Control file title. For DL_FIELD 4.10
49796
    1MOL     C1    1   0.488   1.740   5.045  0.6476 -0.1578  1.1363
    1MOL     C2    2   0.404   1.621   5.102  0.1318 -0.8547  0.2878
    1MOL     C3    3   0.264   1.669   5.150  0.1291  0.2900  0.2197
    1MOL     C4    4   0.140   1.589   5.117  0.2907 -0.4081  0.1230
    1MOL     C5    5   0.022   1.661   5.184 -0.7457  0.2785 -0.2297
    1MOL     C6    6   0.116   1.591   4.962 -0.1023  0.7385  0.0144
    1MOL     C7    7   0.142   1.439   5.166 -0.0710 -0.2714 -0.0043
    1MOL     H8    8   0.435   1.797   4.968  0.6209  0.0776  1.3296
    1MOL     H9    9   0.516   1.812   5.121  0.1480  1.1509  0.0956
    1MOL    H10   10   0.378   1.559   5.016 -1.5243  0.2987 -0.0679
    1MOL    H11   11   0.259   1.769   5.106  1.0128 -0.0193 -0.6027
    1MOL    H12   12   0.271   1.707   5.252 -0.9516 -0.0568  0.4296
    1MOL    H13   13   0.039   1.660   5.291  1.7057  2.4983 -0.5489
    1MOL    H14   14   7.697   1.604   5.163 -0.4929 -0.3937  0.4876
    1MOL    H15   15   0.023   1.761   5.141  1.5036  0.6410  0.6201
    1MOL    H16   16   0.166   1.509   4.910 -0.5028  1.5714 -1.7324
    1MOL    H17   17   0.012   1.575   4.933  0.2614 -1.5854 -0.0461
    1MOL    H18   18   0.146   1.684   4.912  0.8840 -0.3847 -1.5492
    1MOL    H19   19   0.058   1.383   5.126 -1.9083  1.5601  1.1927
    1MOL    H20   20   0.129   1.425   5.273  0.1402  0.8150  0.1673
    1MOL    H21   21   0.235   1.389   5.136 -0.8994 -3.3411  2.2336
    1MOL    H22   22   0.585   1.713   5.003  0.7474 -1.7491  2.3315
    1MOL    C23   23   0.478   1.519   5.198  0.1302 -0.3689 -0.1690
    1MOL    C24   24   0.612   1.453   5.150  0.0439 -0.2240  0.4087
    1MOL    C25   25   0.592   1.370   5.023  0.0500  0.4368  0.4134
    1MOL    C26   26   0.708   1.360   4.922 -0.1610 -0.0439  0.1864
    1MOL    C27   27   0.832   1.293   4.980  0.1051 -0.0773  0.7212
    1MOL    C28   28   0.667   1.268   4.806  0.0173  0.2487 -0.6654
    1MOL    C29   29   0.746   1.489   4.859  0.1354 -0.5441  0.5315
    1MOL    H30   30   0.506   1.575   5.287  1.8897 -2.7049  0.7841
    1MOL    H31   31   0.414   1.438   5.235  0.5691 -0.7545 -0.2495
    1MOL    H32   32   0.682   1.535   5.131 -1.6973  1.1851 -0.0445
    1MOL    H33   33   0.503   1.410   4.974  0.0255  1.0579  0.9503
    1MOL    H34   34   0.569   1.267   5.046  2.1998  0.0857  1.1246
    1MOL    H35   35   0.870   1.353   5.062 -2.0828  1.0263  0.9623
    1MOL    H36   36   0.793   1.199   5.020 -0.4472 -0.0101  0.3443
    1MOL    H37   37   0.910   1.258   4.913 -0.5928 -2.3785  1.0769
    1MOL    H38   38   0.660   1.167   4.845 -0.3876  0.5321 -0.0026
    1MOL    H39   39   0.577   1.296   4.752 -0.4956 -1.7995 -0.9060
    1MOL    H40   40   0.749   1.282   4.735  1.1597  2.0498  0.9551
    1MOL    H41   41   0.822   1.491   4.781  0.8759  0.9695  1.2730
    1MOL    H42   42   0.764   1.563   4.938  0.5227  0.0787 -0.1344
    1MOL    H43   43   0.656   1.524   4.808 -0.8430 -0.1133  2.4930
    1MOL    C44   44   0.668   1.369   5.265 -0.5545 -0.9267 -0.1357
    1MOL    C45   45   0.683   1.421   5.415 -0.0051 -0.2505 -0.2869
    1MOL    C46   46   0.795   1.521   5.434  0.6972 -0.2910 -0.6663
    1MOL    C47   47   0.768   1.645   5.528 -0.4699  0.4231 -0.7858
    1MOL    C48   48   0.743   1.618   5.685  0.5156  0.0991 -0.2546
    1MOL    C49   49   0.661   1.737   5.471  0.2563  0.3301  0.3665
    1MOL    C50   50   0.906   1.709   5.527 -0.7182  0.3845 -0.2339
    1MOL    H51   51   0.594   1.289   5.278  2.0806 -3.3925  0.1028
    1MOL    H52   52   0.765   1.331   5.234 -0.1483  0.0743 -0.1088
    1MOL    H53   53   0.584   1.458   5.442 -0.3000 -0.6218 -0.8334
    1MOL    H54   54   0.815   1.560   5.334 -0.8023  0.4458 -0.6888
    1MOL    H55   55   0.890   1.477   5.466  0.4873  0.7276  1.4827
    1MOL    H56   56   0.817   1.546   5.720 -0.6385 -1.5546 -1.1070
    1MOL    H57   57   0.643   1.579   5.706  0.5494 -0.7439 -1.5372
    1MOL    H58   58   0.760   1.708   5.743  0.4770 -1.2805  1.9647
    1MOL    H59   59   0.679   1.761   5.366 -2.0318 -0.4196 -0.2202
    1MOL    H60   60   0.559   1.698   5.473  1.2981 -2.6612 -1.1347
    1MOL    H61   61   0.661   1.832   5.525 -4.9191  0.5341  0.2118
    1MOL    H62   62   0.993   1.648   5.551 -0.0314  1.2897 -0.3550
    1MOL    H63   63   0.941   1.747   5.431 -2.5663 -1.5991 -1.7362
    1MOL    H64   64   0.915   1.796   5.592  1.3439 -0.5518  0.7622
    1MOL    C65   65   0.699   1.300   5.511  0.6823  0.3443  0.3115
    1MOL    C66   66   0.582   1.203   5.537 -0.6000  0.6507 -0.3477
    1MOL    C67   67   0.482   1.265   5.645 -0.0815 -0.8746 -0.4093
    1MOL    C68   68   0.328   1.235   5.632 -0.0393 -0.6579  0.0860
    1MOL    C69   69   0.260   1.284   5.758  0.2716 -0.2336 -0.1457
    1MOL    C70   70   0.269   1.308   5.506  0.0229  0.3739 -0.0713
    1MOL    C71   71   0.303   1.083   5.612  0.3996  0.4005 -0.6303
    1MOL    H72   72   0.782   1.243   5.471  1.4851  0.9246  1.1444
    1MOL    H73   73   0.731   1.332   5.610  0.3646  2.2740 -0.1865
    1MOL    H74   74   0.524   1.173   5.450 -0.2236 -1.3226  0.0527
    1MOL    H75   75   0.491   1.373   5.634 -1.0902 -0.8527 -1.1039
    1MOL    H76   76   0.526   1.231   5.739 -0.4085 -0.9822 -0.2922
    1MOL    H77   77   0.280   1.229   5.850  3.0754 -2.0539 -1.7650
    1MOL    H78   78   0.287   1.387   5.780  1.9422 -0.7284  0.1821
    1MOL    H79   79   0.152   1.273   5.751 -0.0133  2.8230 -1.1306
    1MOL    H80   80   0.294   1.414   5.505  0.9951  0.1586  0.7116
    1MOL    H81   81   0.160   1.306   5.504  0.0459 -0.7849 -0.4942
    1MOL    H82   82   0.302   1.264   5.413 -1.0883  1.8820 -1.2044
    1MOL    H83   83   0.343   1.015   5.687 -0.3319  0.9230  0.2524
    1MOL    H84   84   0.340   1.047   5.516  2.0507 -1.1533  0.5551
    1MOL    H85   85   0.197   1.057   5.615  0.3873  0.5665  0.5742
    1MOL    C86   86   0.643   1.068   5.574 -0.3825  0.5585 -0.0782
    1MOL    C87   87   0.701   0.993   5.452 -0.0504 -0.4655 -0.0660
    1MOL    C88   88   0.585   0.924   5.374  0.3852 -0.1499  0.4807
    1MOL    C89   89   0.591   0.892   5.224 -0.8200  0.2314  0.3131
    1MOL    C90   90   0.596   1.026   5.152  0.0659 -0.1063 -0.0332
    1MOL    C91   91   0.466   0.809   5.187  0.3547  0.7193 -0.2869
    1MOL    C92   92   0.704   0.799   5.182 -0.9456  0.1518 -0.1839
    1MOL    H93   93   0.577   0.998   5.626 -0.4845  1.0365  0.4397
    1MOL    H94   94   0.723   1.093   5.644 -1.1115 -1.0488  1.3776
    1MOL    H95   95   0.752   1.061   5.384 -2.9543  0.9555 -0.9059
    1MOL    H96   96   0.498   0.987   5.393  0.7975 -0.0567  2.0505
    1MOL    H97   97   0.548   0.833   5.421 -0.9873  0.0218 -0.2314
    1MOL    H98   98   0.494   1.066   5.155  0.5600  1.1967 -0.3753
    1MOL    H99   99   0.618   1.006   5.047  1.0420 -1.8634  0.4860
    1MOL   H100  100   0.676   1.096   5.173 -0.2319  0.3340 -0.3466
    1MOL   H101  101   0.468   0.776   5.083  1.7353  1.1735 -0.4170
    1MOL   H102  102   0.470   0.716   5.244  1.0892  1.3395  0.6866
    1MOL   H103  103   0.368   0.852   5.205 -0.6689 -2.0619  1.1099
    1MOL   H104  104   0.798   0.855   5.181 -0.5950 -0.4374 -0.4223
    1MOL   H105  105   0.731   0.720   5.252  0.7658  0.2393 -0.7078
    1MOL   H106  106   0.682   0.766   5.081  2.5223 -1.3087 -0.5287
    1MOL   C107  107   0.803   0.884   5.493 -0.2041  0.5896  0.4987
    1MOL   C108  108   0.939   0.934   5.551  0.2270 -0.1478 -0.0156
    1MOL   C109  109   1.017   0.827   5.630 -0.6424  0.4223  0.4907
    1MOL   C110  110   0.970   0.782   5.776 -0.8660 -0.1556 -0.3585
    1MOL   C111  111   0.900   0.642   5.765  0.1873  0.0622  0.7435
    1MOL   C112  112   0.880   0.883   5.851  0.3938  0.6443 -0.3307
    1MOL   C113  113   1.094   0.764   5.875 -0.5613 -0.5450  0.4949
    1MOL   H114  114   0.829   0.817   5.412  1.0965  0.3246  1.1241
    1MOL   H115  115   0.763   0.827   5.577  1.7133  0.5773  1.4358
    1MOL   H116  116   0.920   1.016   5.620  0.2788  0.2931 -0.5227
    1MOL   H117  117   1.022   0.736   5.570 -1.8382  1.3568 -1.0774
    1MOL   H118  118   1.124   0.840   5.645  0.2456 -3.6325 -1.4976
    1MOL   H119  119   0.912   0.578   5.852  1.2816  1.7872  1.8874
    1MOL   H120  120   0.799   0.652   5.725  0.1295 -1.3556  0.5145
    1MOL   H121  121   0.945   0.581   5.686  0.0403  0.5292  0.2968
    1MOL   H122  122   0.940   0.972   5.873  1.3707  0.6371 -2.8838
    1MOL   H123  123   0.845   0.836   5.943 -2.8307  1.2237 -1.1999
    1MOL   H124  124   0.792   0.911   5.793 -0.6373 -1.1987  0.3006
    1MOL   H125  125   1.161   0.694   5.827  1.3249  1.1448  0.5799
    1MOL   H126  126   1.072   0.736   5.978  0.0315  1.5620  1.2381
    1MOL   H127  127   1.148   0.859   5.881  1.8771 -1.7270 -1.9972
    1MOL   C128  128   1.022   1.007   5.443 -0.6448 -0.8433 -0.7399
    1MOL   C129  129   1.161   1.056   5.487 -0.0546  0.2323  0.2050
    1MOL   C130  130   1.236   1.129   5.371  0.3151 -0.0256  0.2882
    1MOL   C131  131   1.297   1.055   5.245 -0.1739 -0.4751  0.0725
    1MOL   C132  132   1.192   0.991   5.145 -0.0899 -0.1119  0.3619
    1MOL   C133  133   1.387   0.939   5.293 -0.2508  0.8574 -0.0423
    1MOL   C134  134   1.382   1.157   5.164  0.2281 -0.3877 -0.0398
    1MOL   H135  135   0.961   1.088   5.404  1.5730  1.6451  0.7618
    1MOL   H136  136   1.022   0.945   5.353 -1.6887 -2.5365  0.3754
    1MOL   H137  137   1.221   0.967   5.505  2.3904  1.1935 -2.6889
    1MOL   H138  138   1.162   1.195   5.325  0.7356  1.3695  1.5884
    1MOL   H139  139   1.308   1.204   5.403 -0.3244  0.0212  1.6157
    1MOL   H140  140   1.234   0.968   5.047  0.8548 -0.9370  0.9412
    1MOL   H141  141   1.115   1.063   5.119  0.3432  0.3599  0.3745
    1MOL   H142  142   1.143   0.906   5.192 -0.4214  0.5518  1.2311
    1MOL   H143  143   1.471   0.965   5.358 -1.4529 -0.9685  2.3292
    1MOL   H144  144   1.433   0.887   5.208 -0.9565  0.3667 -0.1299
    1MOL   H145  145   1.336   0.858   5.345  0.2037 -0.7444 -2.0310
    1MOL   H146  146   1.438   1.101   5.089  1.0829  1.0003 -0.4607
    1MOL   H147  147   1.330   1.248   5.135 -0.2190 -0.2718  1.1079
    1MOL   H148  148   1.451   1.197   5.239 -0.6355  0.9465  0.0529
    1MOL   C149  149   1.162   1.147   5.610  0.2838 -0.2875  0.4245
    1MOL   C150  150   1.296   1.205   5.667  0.0757  0.5181  0.0625
    1MOL   C151  151   1.276   1.268   5.811  0.6053  0.1027  0.1260
    1MOL   C152  152   1.182   1.393   5.832 -0.2648  0.0658  0.8197
    1MOL   C153  153   1.189   1.494   5.709 -0.7100  0.4198  0.1843
    1MOL   C154  154   1.240   1.461   5.954 -0.0653 -0.3813 -0.3240
    1MOL   C155  155   1.034   1.345   5.854 -0.5016  0.6024 -0.1529
    1MOL   H156  156   1.140   1.083   5.696 -2.0614  1.8455  1.4783
    1MOL   H157  157   1.083   1.221   5.600  1.4291  1.3608  3.0908
    1MOL   H158  158   1.335   1.281   5.599  0.7451 -1.0219 -1.2968
    1MOL   H159  159   1.370   1.303   5.853  0.7243 -0.0382 -0.0240
    1MOL   H160  160   1.246   1.189   5.880  0.4460 -2.2986 -2.6168
    1MOL   H161  161   1.132   1.459   5.623 -1.7095  2.2621  0.0886
    1MOL   H162  162   1.154   1.590   5.745 -1.5883 -0.3396  1.4223
    1MOL   H163  163   1.293   1.503   5.677 -1.0986 -0.4399 -1.3889
    1MOL   H164  164   1.256   1.395   6.039  1.0470  0.3681  0.0617
    1MOL   H165  165   1.190   1.555   5.977  1.6636  0.1505  1.3171
    1MOL   H166  166   1.340   1.497   5.931 -1.3252  3.5403 -0.1165
    1MOL   H167  167   0.971   1.430   5.883 -1.3945 -0.0125 -0.2845
    1MOL   H168  168   0.979   1.313   5.766 -0.4089  0.8939 -0.3177
    1MOL   H169  169   1.026   1.266   5.929  2.2490 -1.8968 -2.4288
    1MOL   C170  170   1.400   1.089   5.669 -0.5378  0.0864 -0.1768
    1MOL   C171  171   1.541   1.141   5.681  0.5339 -0.5282  0.7105
    1MOL   C172  172   1.601   1.190   5.538  0.7195 -0.0011 -0.6103
    1MOL   C173  173   1.688   1.311   5.530  0.0997  0.6885 -0.1024
    1MOL   C174  174   1.614   1.443   5.583 -0.7997  0.2998  0.4212
    1MOL   C175  175   1.728   1.342   5.379  0.3789 -0.4277  0.8919
    1MOL   C176  176   1.820   1.289   5.604  0.1712  0.5867 -0.6840
    1MOL   H177  177   1.397   1.027   5.580  1.7886  1.1572 -1.0406
    1MOL   H178  178   1.373   1.024   5.752 -0.3363  1.2136  0.7857
    1MOL   H179  179   1.535   1.224   5.751 -0.5547  1.9501 -2.2102
    1MOL   H180  180   1.646   1.102   5.492  1.4813  0.0542  0.0091
    1MOL   H181  181   1.509   1.214   5.486 -0.2532  1.5283  1.7374
    1MOL   H182  182   1.598   1.446   5.691 -0.7240 -0.4187  0.4541
    1MOL   H183  183   1.663   1.536   5.555 -2.2479  0.2632 -2.4214
    1MOL   H184  184   1.515   1.457   5.537 -0.3856  0.9518 -0.2919
    1MOL   H185  185   1.643   1.359   5.312  0.5163 -0.2479  0.7607
    1MOL   H186  186   1.782   1.435   5.364 -1.9881  0.9665  0.7703
    1MOL   H187  187   1.792   1.262   5.342  1.3788  0.9842 -0.5166
    1MOL   H188  188   1.866   1.197   5.569 -1.8036 -0.2994 -0.9738
    1MOL   H189  189   1.891   1.368   5.579 -0.4863  1.9313  1.5070
    1MOL   H190  190   1.811   1.275   5.712  2.6029  1.1610 -0.3640
    1MOL   C191  191   1.637   1.031   5.747  0.1163  0.9074 -0.5940
    1MOL   C192  192   1.592   0.965   5.887 -0.9316 -0.5794  0.3461
    1MOL   C193  193   1.603   1.062   6.006  0.6133 -0.3003 -0.1229
    1MOL   C194  194   1.557   1.029   6.151 -0.5080  0.1026  0.3268
    1MOL   C195  195   1.571   1.171   6.219 -0.4408  0.7230 -0.2891
    1MOL   C196  196   1.650   0.936   6.226 -0.0714 -0.2466  0.0467
    1MOL   C197  197   1.412   0.977   6.159 -0.1652  0.6951  0.5634
    1MOL   H198  198   1.652   0.949   5.677  0.0789 -0.9049  1.4856
    1MOL   H199  199   1.735   1.075   5.763  0.7462 -0.5187 -0.5055
    1MOL   H200  200   1.487   0.936   5.884 -0.4342 -2.4045 -0.0352
    1MOL   H201  201   1.536   1.140   5.969 -1.0794 -1.5952  0.1894
    1MOL   H202  202   1.703   1.100   6.028 -0.0627  1.6115 -0.2466
    1MOL   H203  203   1.516   1.250   6.168 -0.2685 -0.1289 -1.8362
    1MOL   H204  204   1.520   1.161   6.315 -0.9875  1.2688 -0.5180
    1MOL   H205  205   1.670   1.205   6.249 -0.1369 -1.6631  1.5760
    1MOL   H206  206   1.755   0.949   6.201 -0.1944 -2.0153 -1.5707
    1MOL   H207  207   1.638   0.957   6.332  0.3724 -1.8528  0.4371
    1MOL   H208  208   1.637   0.828   6.239  1.5643 -0.4434  0.1422
    1MOL   H209  209   1.378   0.978   6.263  0.3974  2.2711  0.7492
    1MOL   H210  210   1.335   1.028   6.102 -0.8898 -0.7151  0.2632
    1MOL   H211  211   1.401   0.873   6.126  0.9634  1.1301 -1.2245
    1MOL   C212  212   1.672   0.835   5.913  0.2559 -0.2207  1.0120
    1MOL   C213  213   1.672   0.718   5.804  0.2564 -0.0495 -0.3325
    1MOL   C214  214   1.529   0.682   5.762 -0.0747  0.3978  0.1824
    1MOL   C215  215   1.502   0.584   5.645  0.6621 -0.3801 -0.3816
    1MOL   C216  216   1.531   0.441   5.694 -0.6041 -0.6118 -0.1073
    1MOL   C217  217   1.351   0.591   5.606 -0.8687  0.0126  0.3088
    1MOL   C218  218   1.580   0.636   5.527 -0.2333  0.5980  0.4757
    1MOL   H219  219   1.774   0.865   5.939 -0.0551  0.1112  1.8675
    1MOL   H220  220   1.642   0.787   6.006  0.0795 -0.8290  0.6449
    1MOL   H221  221   1.726   0.760   5.719  0.9152  1.3073  0.7272
    1MOL   H222  222   1.478   0.774   5.735  1.3437  1.1679  0.1199
    1MOL   H223  223   1.476   0.649   5.852 -0.3660 -0.3406 -0.2561
    1MOL   H224  224   1.529   0.445   5.803  2.1310  2.3555 -0.0851
    1MOL   H225  225   1.626   0.400   5.661 -1.1362 -1.9027 -0.0542
    1MOL   H226  226   1.449   0.382   5.652 -0.0535 -1.1990 -0.3475
    1MOL   H227  227   1.328   0.518   5.529 -1.2020  1.6095 -1.1256
    1MOL   H228  228   1.291   0.554   5.689  1.7427 -0.2311  2.1660
    1MOL   H229  229   1.311   0.690   5.585  0.4778  0.3811 -0.6067
    1MOL   H230  230   1.547   0.735   5.495  3.3604  1.4441 -0.8913
    1MOL   H231  231   1.564   0.570   5.442  1.6955 -0.7449  1.1056
    1MOL   H232  232   1.686   0.620   5.549 -0.5168 -0.5177  1.0528
    1MOL   C233  233   1.750   0.605   5.873 -0.1065  0.4268 -0.3609
    1MOL   C234  234   1.896   0.630   5.920 -0.4333 -0.0813  0.5478
    1MOL   C235  235   1.944   0.515   6.011  0.5051  0.4967  0.1193
    1MOL   C236  236   1.895   0.502   6.162 -0.2077 -0.3077 -0.0369
    1MOL   C237  237   1.936   0.628   6.239  0.9021 -0.6380 -0.6369
    1MOL   C238  238   1.747   0.487   6.180 -0.2697 -0.5231  0.4724
    1MOL   C239  239   1.975   0.389   6.220 -0.0069 -0.0908 -1.1308
    1MOL   H240  240   1.759   0.523   5.802 -3.1503 -2.8729  2.8140
    1MOL   H241  241   1.684   0.562   5.948 -0.9940  1.2815 -0.6360
    1MOL   H242  242   1.894   0.708   5.995 -0.4926  1.8918 -1.4511
    1MOL   H243  243   1.937   0.419   5.959  1.3037  0.8726 -0.6957
    1MOL   H244  244   2.053   0.519   6.015  0.6521 -2.1192 -0.1309
    1MOL   H245  245   2.041   0.654   6.232  0.7358 -0.3202 -2.1246
    1MOL   H246  246   1.914   0.613   6.345  3.9162 -1.1835 -0.0379
    1MOL   H247  247   1.876   0.713   6.205  0.7900 -0.7018 -0.6003
    1MOL   H248  248   1.699   0.582   6.154  0.5888 -1.1189 -3.6446
    1MOL   H249  249   1.705   0.402   6.127  3.2871 -2.1355  0.1683
    1MOL   H250  250   1.734   0.472   6.287 -4.5367  0.0964  0.1428
    1MOL   H251  251   2.084   0.388   6.218  0.0776 -3.5816  0.6018
    1MOL   H252  252   1.945   0.375   6.323  2.7414 -0.2413 -0.3130
    1MOL   H253  253   1.939   0.290   6.190  0.7915 -0.8354  0.3054
    1MOL   C254  254   1.993   0.653   5.804 -0.5890  0.0863  0.1830
    1MOL   C255  255   2.085   0.776   5.820 -0.0642 -0.1102  0.2892
    1MOL   C256  256   2.165   0.810   5.687  0.5378 -0.7101  0.9237
    1MOL   C257  257   2.091   0.856   5.563 -0.2071 -0.2435 -0.4545
    1MOL   C258  258   2.049   0.736   5.469 -0.6304 -0.1015  0.0624
    1MOL   C259  259   2.189   0.952   5.486 -0.2685 -0.3542  0.6555
    1MOL   C260  260   1.968   0.950   5.583 -0.3992  0.4012 -0.5656
    1MOL   H261  261   1.945   0.659   5.706 -0.0010 -0.2417 -0.1305
    1MOL   H262  262   2.047   0.561   5.782 -0.3664  0.7991 -2.3046
    1MOL   H263  263   2.018   0.860   5.840  0.6541  0.5226  0.0433
    1MOL   H264  264   2.228   0.897   5.704 -0.9683  1.0600 -2.1098
    1MOL   H265  265   2.245   0.738   5.667  0.3641 -0.6473 -0.0333
    1MOL   H266  266   2.142   0.693   5.432  0.2310  2.1760 -0.5241
    1MOL   H267  267   2.000   0.769   5.378 -0.8785 -0.4504  0.0698
    1MOL   H268  268   1.993   0.653   5.513  0.6084 -0.8413  0.2788
    1MOL   H269  269   2.139   0.992   5.398 -0.1383 -1.4413  0.0850
    1MOL   H270  270   2.278   0.896   5.458  0.4069  0.1905  1.6509
    1MOL   H271  271   2.211   1.043   5.543  2.2844 -1.1992  1.0784
    1MOL   H272  272   1.981   1.034   5.652 -1.1296 -0.4124  0.5771
    1MOL   H273  273   1.935   0.984   5.485  0.0030  0.7112 -0.5942
    1MOL   H274  274   1.890   0.888   5.626  0.5788  0.5406  1.4884
    1MOL   C275  275   2.192   0.774   5.934  0.2160  0.3035 -0.6701
    1MOL   C276  276   2.227   0.914   6.001 -0.4038 -0.1028 -0.2673
    1MOL   C277  277   2.115   0.973   6.080  0.3642 -0.0414  0.0202
    1MOL   C278  278   2.092   1.125   6.072 -0.2952 -0.6839  0.1929
    1MOL   C279  279   2.029   1.158   5.939 -0.0352 -0.1889 -0.1471
    1MOL   C280  280   1.991   1.156   6.185  0.0438  0.2396 -0.0322
    1MOL   C281  281   2.222   1.198   6.099 -0.3488 -0.1820  0.0548
    1MOL   H282  282   2.159   0.720   6.023  2.7650  0.0976  0.2023
    1MOL   H283  283   2.276   0.710   5.906  0.9259  1.0295 -0.2417
    1MOL   H284  284   2.243   0.983   5.919 -2.9405 -1.1466 -1.6808
    1MOL   H285  285   2.142   0.957   6.184  0.5495 -0.5635 -0.1050
    1MOL   H286  286   2.026   0.916   6.052 -1.0417  1.6028  1.0206
    1MOL   H287  287   1.944   1.091   5.925 -0.3738  0.1394  0.3239
    1MOL   H288  288   2.004   1.264   5.932 -1.2881 -0.5856 -2.2475
    1MOL   H289  289   2.090   1.122   5.856  0.3027  3.1561 -1.4635
    1MOL   H290  290   1.892   1.113   6.173  0.8500 -1.9500  0.9305
    1MOL   H291  291   1.970   1.263   6.183  0.1073  0.2395 -1.1336
    1MOL   H292  292   2.011   1.133   6.290  0.2673 -0.4005 -0.2119
    1MOL   H293  293   2.267   1.166   6.193 -0.3903 -0.9913 -0.1962
    1MOL   H294  294   2.205   1.303   6.124  1.1740  0.1185 -0.1143
    1MOL   H295  295   2.290   1.202   6.014  0.3559  2.6216  0.6815
    1MOL   C296  296   2.370   0.890   6.080  0.3233 -0.1131  0.4449
    1MOL   C297  297   2.504   0.939   6.014 -0.0586  0.4445 -0.0674
    1MOL   C298  298   2.516   0.882   5.866 -0.0385 -0.0567 -0.5553
    1MOL   C299  299   2.587   0.951   5.750 -0.8739 -0.4328 -0.3440
    1MOL   C300  300   2.732   0.980   5.790 -0.5405  0.3263 -0.5103
    1MOL   C301  301   2.598   0.849   5.632 -0.1350 -0.3420 -0.4118
    1MOL   C302  302   2.513   1.082   5.706  0.7235  0.0790 -0.7674
    1MOL   H303  303   2.384   0.784   6.105 -0.6285 -0.4959 -0.6538
    1MOL   H304  304   2.362   0.938   6.178  1.1651  2.6017 -0.7702
    1MOL   H305  305   2.490   1.047   6.003 -2.0273  0.3831  1.5509
    1MOL   H306  306   2.417   0.850   5.832 -0.9065  1.1371  0.8159
    1MOL   H307  307   2.560   0.782   5.866 -1.9565 -0.9500  1.8079
    1MOL   H308  308   2.781   0.886   5.818 -0.2032  0.4206 -0.7866
    1MOL   H309  309   2.786   1.026   5.707 -0.0381 -0.7882 -0.8232
    1MOL   H310  310   2.731   1.049   5.874 -1.1564  1.1310 -1.1711
    1MOL   H311  311   2.649   0.758   5.661 -0.7967 -0.8385 -0.7853
    1MOL   H312  312   2.503   0.804   5.601  0.0718 -0.9256 -0.1905
    1MOL   H313  313   2.661   0.880   5.548  0.4521 -0.6838 -0.0934
    1MOL   H314  314   2.405   1.073   5.691  0.3495  1.3446  0.9265
    1MOL   H315  315   2.515   1.160   5.782  1.6813 -0.0398 -0.6703
    1MOL   H316  316   2.554   1.126   5.615 -0.2370  1.0026 -0.7635
    1MOL   C317  317   2.632   0.895   6.099  0.1689  0.4542 -0.1070
    1MOL   C318  318   2.663   0.973   6.232  0.4221  0.5033  0.1365
    1MOL   C319  319   2.603   0.902   6.357 -0.2417 -0.6885  0.3797
    1MOL   C320  320   2.550   0.979   6.475  0.6794 -0.0899 -0.3249
    1MOL   C321  321   2.669   1.056   6.547  0.2370 -0.3459 -0.4961
    1MOL   C322  322   2.486   0.885   6.578 -0.8908  0.4184  0.6911
    1MOL   C323  323   2.432   1.066   6.440 -0.7248  0.2018 -0.2018
    1MOL   H324  324   2.638   0.789   6.123 -1.9362  0.1706 -0.7968
    1MOL   H325  325   2.718   0.899   6.032  0.6881 -1.7840  0.3753
    1MOL   H326  326   2.596   1.057   6.215  0.5151  0.3221 -1.1778
    1MOL   H327  327   2.676   0.830   6.394 -0.6652 -2.4758 -2.0953
    1MOL   H328  328   2.535   0.822   6.327  0.7288 -1.1595 -0.6041
    1MOL   H329  329   2.757   0.993   6.538  0.2406 -0.5561  0.9094
    1MOL   H330  330   2.648   1.083   6.651 -0.8786 -0.0027 -0.8028
    1MOL   H331  331   2.705   1.145   6.495  1.6505  0.2949  1.4924
    1MOL   H332  332   2.553   0.804   6.606 -2.1044 -0.2246  1.8238
    1MOL   H333  333   2.469   0.929   6.677 -1.3882  1.8822 -0.0404
    1MOL   H334  334   2.395   0.833   6.546  0.4503 -0.1714 -2.3068
    1MOL   H335  335   2.351   1.008   6.395  0.3012 -1.8220  0.4978
    1MOL   H336  336   2.460   1.142   6.367  0.1244  2.3424  2.2621
    1MOL   H337  337   2.397   1.118   6.530  0.6031 -1.4542  1.3110
    1MOL   C338  338   2.809   1.011   6.241  0.2376  0.1092  0.3528
    1MOL   C339  339   2.865   1.121   6.150  0.5674 -0.1689  0.2415
    1MOL   C340  340   3.022   1.127   6.153  0.6422 -0.3523  0.1667
    1MOL   C341  341   3.103   1.038   6.060 -0.5196 -1.0058  0.3050
    1MOL   C342  342   3.249   1.044   6.110  0.3403 -0.0866 -0.0325
    1MOL   C343  343   3.060   0.891   6.063 -0.1485  0.0816 -0.3936
    1MOL   C344  344   3.097   1.098   5.921  0.2775  0.1474  0.2151
    1MOL   H345  345   2.874   0.923   6.243 -1.8508 -1.4653  0.1303
    1MOL   H346  346   2.825   1.050   6.342  0.3099  0.5040  0.1898
    1MOL   H347  347   2.834   1.091   6.049 -0.8055 -3.1375  1.4807
    1MOL   H348  348   3.039   1.097   6.256  0.6477  0.5017  0.4187
    1MOL   H349  349   3.063   1.228   6.152  1.6633 -0.7476 -1.5771
    1MOL   H350  350   3.255   1.012   6.214  1.4102  0.2459  0.0158
    1MOL   H351  351   3.306   0.970   6.053 -2.2226 -0.2603 -2.4570
    1MOL   H352  352   3.293   1.142   6.094 -1.9040  1.1579  1.1116
    1MOL   H353  353   2.958   0.882   6.024 -0.5373  2.7401 -0.0786
    1MOL   H354  354   3.115   0.829   5.992  1.0949  0.1968  0.4609
    1MOL   H355  355   3.061   0.844   6.161 -0.6012 -0.7301 -0.7720
    1MOL   H356  356   2.994   1.118   5.890  0.3468 -1.0049 -0.8138
    1MOL   H357  357   3.155   1.190   5.908 -1.4917  1.2700  0.0519
    1MOL   H358  358   3.127   1.015   5.858  0.8126 -0.0101  0.6761
    1MOL   C359  359   2.799   1.260   6.194  0.8236 -0.1410  0.0842
    1MOL   C360  360   2.800   1.389   6.109 -0.0730  0.4449 -0.1190
    1MOL   C361  361   2.728   1.508   6.185  0.2821 -0.2422  0.0598
    1MOL   C362  362   2.810   1.601   6.274  0.0687 -0.7516  0.0774
    1MOL   C363  363   2.712   1.704   6.334 -0.7048 -1.0025 -0.0447
    1MOL   C364  364   2.916   1.664   6.179 -0.1908 -0.1614  0.2351
    1MOL   C365  365   2.880   1.527   6.394  0.4941  0.1531 -1.2935
    1MOL   H366  366   2.828   1.282   6.296  2.3689  1.5837 -0.6874
    1MOL   H367  367   2.692   1.243   6.193  0.5819  1.1764 -2.6670
    1MOL   H368  368   2.901   1.423   6.084 -0.6178  1.1319 -1.4339
    1MOL   H369  369   2.687   1.575   6.109 -0.4843 -2.1630 -1.2470
    1MOL   H370  370   2.647   1.469   6.247 -0.8265  0.7986 -0.7000
    1MOL   H371  371   2.621   1.664   6.379 -0.6411 -0.8489  0.2195
    1MOL   H372  372   2.748   1.777   6.407 -2.6451 -0.8603  0.8115
    1MOL   H373  373   2.661   1.759   6.254 -0.5531 -1.2999 -0.3451
    1MOL   H374  374   2.975   1.735   6.238 -2.1556  1.6425  0.0947
    1MOL   H375  375   2.882   1.722   6.094 -1.9091  1.3898  1.9038
    1MOL   H376  376   2.995   1.598   6.144 -1.2683 -1.8685  0.9208
    1MOL   H377  377   2.961   1.464   6.357  0.4100 -0.0794 -1.0824
    1MOL   H378  378   2.809   1.463   6.447  0.1901  0.4418 -1.3572
    1MOL   H379  379   2.927   1.595   6.465 -1.5038 -2.1439  2.4247
    1MOL   C380  380   2.738   1.362   5.964  0.1189  0.3793  0.5393
    1MOL   C381  381   2.796   1.459   5.857  0.6866 -0.1278  0.3887
    1MOL   C382  382   2.697   1.461   5.734 -0.1027  0.4566 -0.2175
    1MOL   C383  383   2.599   1.581   5.717 -0.0122 -0.0847  0.5187
    1MOL   C384  384   2.685   1.707   5.689  1.0753  0.5477 -0.5915
    1MOL   C385  385   2.498   1.583   5.835  0.5662 -0.1262  0.2887
    1MOL   C386  386   2.516   1.560   5.591  0.3142  0.1544 -0.2483
    1MOL   H387  387   2.631   1.364   5.981  0.2029 -0.4338  1.2460
    1MOL   H388  388   2.754   1.257   5.943  2.5465  0.7644  0.3049
    1MOL   H389  389   2.803   1.557   5.904 -0.3050 -0.2490  0.8060
    1MOL   H390  390   2.759   1.460   5.645 -1.0497  2.6149 -0.9265
    1MOL   H391  391   2.631   1.374   5.733 -1.3786  1.3465  1.9169
    1MOL   H392  392   2.744   1.740   5.774  0.5636 -1.2407  0.4945
    1MOL   H393  393   2.737   1.710   5.594 -0.8406 -0.3926 -1.7113
    1MOL   H394  394   2.608   1.783   5.677  0.7636  0.1741 -0.9562
    1MOL   H395  395   2.414   1.652   5.829  0.9521  0.4384  1.2322
    1MOL   H396  396   2.560   1.630   5.912 -2.9681  3.8105  0.9156
    1MOL   H397  397   2.469   1.481   5.859 -0.0583 -0.1669 -0.6344
    1MOL   H398  398   2.579   1.551   5.502 -1.9914 -0.5722 -1.8604
    1MOL   H399  399   2.451   1.647   5.588 -0.8161 -0.4524  3.7798
    1MOL   H400  400   2.463   1.465   5.597 -0.7649  0.6349 -1.6798
    1MOL   C401  401   2.936   1.407   5.811  0.1280  0.4799 -0.3363
    1MOL   C402  402   3.025   1.512   5.744 -0.1466 -0.2069 -0.4875
    1MOL   C403  403   3.082   1.628   5.827 -1.1606  0.6149  0.2728
    1MOL   C404  404   3.126   1.745   5.740 -0.1131 -1.2340  0.2027
    1MOL   C405  405   3.206   1.698   5.615  0.0457 -0.0090 -0.2540
    1MOL   C406  406   3.215   1.822   5.828  0.0421 -0.1505  0.1370
    1MOL   C407  407   3.008   1.831   5.707  1.4571  0.0180 -0.1893
    1MOL   H408  408   2.991   1.361   5.892  1.1444  0.7696 -0.8457
    1MOL   H409  409   2.909   1.326   5.744  1.6157 -0.3913  0.1019
    1MOL   H410  410   3.108   1.453   5.704  0.1415 -0.0506 -0.1150
    1MOL   H411  411   3.166   1.585   5.881 -1.3228  0.3416  0.3040
    1MOL   H412  412   3.018   1.662   5.908 -1.7108  2.2476 -0.8071
    1MOL   H413  413   3.135   1.649   5.549  0.8732 -2.1924  0.4338
    1MOL   H414  414   3.271   1.616   5.645 -0.3433 -0.2501 -0.0645
    1MOL   H415  415   3.260   1.776   5.561 -0.0677  0.6650  0.5875
    1MOL   H416  416   3.315   1.789   5.855  0.6102  3.1018  2.3346
    1MOL   H417  417   3.176   1.836   5.929  1.3520  1.0569  0.4897
    1MOL   H418  418   3.234   1.921   5.785 -0.7107  0.2339  0.6722
    1MOL   H419  419   2.954   1.872   5.792  1.1510  0.6735 -0.6914
    1MOL   H420  420   3.040   1.922   5.655  3.3948 -0.1641  0.6239
    1MOL   H421  421   2.934   1.781   5.646  0.2702  1.1868  0.2584
    1MOL   H422  422   2.976   1.568   5.664 -0.8241 -0.8446 -0.5113
    2MOL     C1  423   7.419   6.303   6.777 -0.3097 -0.8391 -0.5948
    2MOL     C2  424   7.281   6.313   6.849 -0.8609  0.3381 -0.0926
    2MOL     C3  425   7.237   6.169   6.891  0.0769 -0.4571 -0.1756
    2MOL     C4  426   7.293   6.104   7.023  0.2466 -0.1365  0.8788
    2MOL     C5  427   7.350   6.207   7.119  0.0999 -0.0763  0.7855
    2MOL     C6  428   7.186   6.025   7.105  0.9404 -0.4988  0.0568
    2MOL     C7  429   7.406   6.002   6.989 -0.4902  0.0535 -0.1793
    2MOL     H8  430   7.436   6.261   6.678  1.0392  2.2722 -1.7672
    2MOL     H9  431   7.469   6.400   6.773 -0.9322 -0.4796  0.2248
    2MOL    H10  432   7.299   6.375   6.936 -0.4921 -0.6077  0.5201
    2MOL    H11  433   7.239   6.105   6.803  1.6328  1.9252 -1.9628
    2MOL    H12  434   7.129   6.172   6.901 -0.2011 -0.1499 -2.8841
    2MOL    H13  435   7.374   6.165   7.217  2.5224 -2.8778 -0.9294
    2MOL    H14  436   7.272   6.282   7.133 -0.7726 -0.4358 -2.0121
    2MOL    H15  437   7.441   6.259   7.086 -0.7115  0.4246 -0.6936
    2MOL    H16  438   7.236   5.959   7.177 -0.2374  0.6259  1.9439
    2MOL    H17  439   7.115   6.084   7.162  0.3676 -2.3782  1.3512
    2MOL    H18  440   7.134   5.963   7.033  2.7526 -1.2029 -0.6792
    2MOL    H19  441   7.484   6.046   6.927 -1.0400  0.9757 -0.2247
    2MOL    H20  442   7.364   5.919   6.932 -1.6346  1.4751 -1.4016
    2MOL    H21  443   7.448   5.949   7.075 -0.2758 -1.2312 -1.0512
    2MOL    H22  444   7.480   6.239   6.840  0.3902 -1.8123 -2.2217
    2MOL    C23  445   7.181   6.381   6.757 -0.1011 -0.4799  0.2519
    2MOL    C24  446   7.102   6.499   6.822  0.3415  0.2616 -0.3076
    2MOL    C25  447   6.994   6.436   6.909  0.2787  0.3556 -0.1787
    2MOL    C26  448   6.940   6.500   7.034 -0.1317 -0.5498 -0.2689
    2MOL    C27  449   7.050   6.563   7.122 -0.0440 -0.5303 -0.4723
    2MOL    C28  450   6.841   6.617   7.000  0.9275 -0.2003 -0.8305
    2MOL    C29  451   6.868   6.393   7.131 -0.5908 -0.3964 -0.3078
    2MOL    H30  452   7.246   6.430   6.684 -0.5218  1.0443  0.8757
    2MOL    H31  453   7.115   6.317   6.699  0.2937  1.7042 -2.7258
    2MOL    H32  454   7.167   6.563   6.882 -0.3049  1.3553 -0.7694
    2MOL    H33  455   7.046   6.347   6.947 -2.7935 -1.8781 -0.9743
    2MOL    H34  456   6.906   6.406   6.851  1.4012 -2.3348 -0.5957
    2MOL    H35  457   7.105   6.637   7.064  0.2760 -2.2703 -2.4450
    2MOL    H36  458   7.004   6.612   7.208  5.0450  1.6939  1.1876
    2MOL    H37  459   7.116   6.482   7.154 -1.6601 -2.0581 -0.9225
    2MOL    H38  460   6.752   6.586   6.946  1.2727 -2.7378  0.0171
    2MOL    H39  461   6.804   6.674   7.086  1.8218 -0.3744 -0.3274
    2MOL    H40  462   6.879   6.700   6.940 -0.6458  0.3400 -1.1043
    2MOL    H41  463   6.777   6.350   7.090 -0.4087  0.5405 -1.7165
    2MOL    H42  464   6.842   6.433   7.229 -3.6828 -1.3013 -0.7018
    2MOL    H43  465   6.940   6.317   7.164 -1.7200 -0.5116  1.9643
    2MOL    C44  466   7.034   6.590   6.709  0.3080  0.8100  0.2633
    2MOL    C45  467   7.115   6.687   6.628 -0.1768 -0.8232 -0.0221
    2MOL    C46  468   7.040   6.817   6.608 -0.1872 -0.6695 -0.3874
    2MOL    C47  469   7.071   6.940   6.696  0.8430 -0.9910 -0.8780
    2MOL    C48  470   7.055   6.922   6.856  0.4968  0.4371  0.1589
    2MOL    C49  471   6.979   7.060   6.664 -0.5882  0.1123  0.7806
    2MOL    C50  472   7.211   6.991   6.665  0.2875  0.7964  0.2154
    2MOL    H51  473   6.964   6.537   6.643  0.4267  0.6033  0.3048
    2MOL    H52  474   6.965   6.655   6.763 -0.7832 -1.7387  2.0241
    2MOL    H53  475   7.204   6.704   6.687  0.3234  1.4164 -1.3801
    2MOL    H54  476   6.932   6.806   6.617 -0.2321 -1.6206 -1.9620
    2MOL    H55  477   7.046   6.856   6.507  1.1146  1.7511  0.5653
    2MOL    H56  478   7.129   6.975   6.915 -1.9189  1.4001  2.4344
    2MOL    H57  479   7.061   6.815   6.877  1.5137  0.3944 -0.2996
    2MOL    H58  480   6.955   6.943   6.893 -0.1780 -2.0476 -0.1307
    2MOL    H59  481   6.986   7.083   6.558  1.0361  0.2649  0.9160
    2MOL    H60  482   6.877   7.029   6.688 -1.2605  0.0460 -1.9638
    2MOL    H61  483   7.003   7.155   6.712 -1.2337  1.6380 -1.8209
    2MOL    H62  484   7.291   6.923   6.694 -0.6399 -0.7051 -0.6801
    2MOL    H63  485   7.225   7.028   6.564  2.2652  1.2159  0.6335
    2MOL    H64  486   7.221   7.073   6.736 -0.6090  1.4322 -0.3866
    2MOL    C65  487   7.143   6.624   6.483 -0.0456  0.7255 -0.3379
    2MOL    C66  488   7.278   6.673   6.419  0.2399 -0.2112 -0.0957
    2MOL    C67  489   7.282   6.641   6.270  0.4295  0.2830  0.0583
    2MOL    C68  490   7.206   6.736   6.175 -0.2502 -0.0001 -0.0834
    2MOL    C69  491   7.230   6.680   6.027  0.4450 -0.7121 -0.3299
    2MOL    C70  492   7.056   6.735   6.189  0.2306  0.6451  0.1886
    2MOL    C71  493   7.266   6.876   6.191 -0.0055 -0.0749  0.1386
    2MOL    H72  494   7.155   6.518   6.507  2.1196  0.8244 -0.8324
    2MOL    H73  495   7.054   6.636   6.423 -0.1761 -1.4878 -0.6270
    2MOL    H74  496   7.277   6.782   6.427 -1.2052 -0.2892  1.0770
    2MOL    H75  497   7.259   6.536   6.253 -0.6692  0.5050  0.1114
    2MOL    H76  498   7.389   6.635   6.249  0.3872 -1.1020  0.1610
    2MOL    H77  499   7.180   6.586   6.003 -1.7069  0.2892  0.1371
    2MOL    H78  500   7.194   6.751   5.952  1.1301 -0.7548 -0.6983
    2MOL    H79  501   7.337   6.666   6.010  0.6249 -0.0106  0.2097
    2MOL    H80  502   7.013   6.801   6.114 -0.6873 -1.9207 -1.6120
    2MOL    H81  503   7.023   6.786   6.279 -1.8714  1.3641 -0.9478
    2MOL    H82  504   7.004   6.640   6.178  0.3787  0.7861 -1.9725
    2MOL    H83  505   7.374   6.876   6.174  0.2501 -0.4503  1.7020
    2MOL    H84  506   7.255   6.919   6.290  2.3618 -0.0891  0.4448
    2MOL    H85  507   7.225   6.940   6.113 -0.9505 -0.7426  0.0851
    2MOL    C86  508   7.392   6.605   6.499  0.2956  0.1007 -0.3192
    2MOL    C87  509   7.540   6.639   6.469 -0.1425  0.3075 -0.3236
    2MOL    C88  510   7.627   6.533   6.534  0.2969  0.6898 -0.0306
    2MOL    C89  511   7.690   6.422   6.431  0.2537  0.7463 -0.2042
    2MOL    C90  512   0.033   6.484   6.334 -0.4662  0.4105 -0.1586
    2MOL    C91  513   7.579   6.355   6.341 -0.2192 -0.3978  0.1516
    2MOL    C92  514   7.762   6.317   6.519 -0.4025  0.0605  0.2741
    2MOL    H93  515   7.382   6.497   6.486  1.0447  0.1240 -1.1280
    2MOL    H94  516   7.382   6.615   6.607 -2.5711  1.2101 -0.6469
    2MOL    H95  517   7.554   6.643   6.360 -0.8486 -1.2086 -0.4796
    2MOL    H96  518   7.583   6.474   6.614 -0.4008  0.7724 -0.3507
    2MOL    H97  519   7.711   6.567   6.595  0.0769 -1.4430  1.5150
    2MOL    H98  520   7.743   6.535   6.255 -1.5154  1.7320  1.4162
    2MOL    H99  521   0.089   6.403   6.286 -0.7583 -0.1869  0.5116
    2MOL   H100  522   0.096   6.554   6.388  1.6391 -0.4372 -1.4305
    2MOL   H101  523   7.616   6.281   6.270 -0.7270 -1.2296  0.7379
    2MOL   H102  524   7.494   6.314   6.397  0.2694 -0.9083  0.5274
    2MOL   H103  525   7.532   6.438   6.289  0.2236  0.2432  0.7587
    2MOL   H104  526   0.027   6.236   6.454 -2.7447  0.9718 -2.0450
    2MOL   H105  527   0.092   6.350   6.561  0.2052 -1.0920 -0.1901
    2MOL   H106  528   7.696   6.284   6.599  0.7053  0.4884  1.3933
    2MOL   C107  529   7.582   6.773   6.535  0.0307  0.2112 -0.3993
    2MOL   C108  530   7.709   6.847   6.495  0.8238  0.6219 -0.1371
    2MOL   C109  531   7.692   6.915   6.357 -0.0301 -0.2199 -0.7433
    2MOL   C110  532   0.045   6.934   6.254 -0.1820 -0.3218 -0.7442
    2MOL   C111  533   0.123   7.063   6.294 -0.6179  0.0936  0.1482
    2MOL   C112  534   7.752   6.951   6.111 -0.9327 -1.1385 -0.3923
    2MOL   C113  535   0.145   6.814   6.239 -0.4473  0.4520  0.0122
    2MOL   H114  536   7.583   6.762   6.643 -0.8700 -0.5854 -0.4720
    2MOL   H115  537   7.499   6.843   6.527 -0.4114 -0.2168  0.4849
    2MOL   H116  538   0.030   6.782   6.482  1.0944  1.3189 -1.9621
    2MOL   H117  539   7.619   6.853   6.306 -1.1742  0.5129 -0.0255
    2MOL   H118  540   7.639   7.009   6.377 -0.2094 -0.6334  0.7265
    2MOL   H119  541   0.051   7.144   6.302 -1.3879 -0.4431 -1.1984
    2MOL   H120  542   0.181   7.041   6.384  1.0817 -1.3057 -1.2642
    2MOL   H121  543   0.199   7.085   6.219  0.2960 -1.2903  0.6573
    2MOL   H122  544   7.725   6.851   6.076  0.5397 -2.1295  1.2151
    2MOL   H123  545   0.066   6.987   6.047 -0.3343  1.0850  1.5305
    2MOL   H124  546   7.671   7.024   6.116 -0.4719 -0.5909 -0.9402
    2MOL   H125  547   0.216   6.839   6.161 -1.1311  0.0491 -0.7409
    2MOL   H126  548   0.088   6.727   6.209  2.0291 -0.7515 -1.3155
    2MOL   H127  549   0.182   6.790   6.339 -2.0513  1.2207  0.8129
    2MOL   C128  550   7.748   6.958   6.602  0.7393  0.3257  0.1796
    2MOL   C129  551   0.047   6.895   6.726  1.0347 -0.0178 -0.1708
    2MOL   C130  552   0.204   6.912   6.691  1.0591 -0.3352  0.9411
    2MOL   C131  553   0.295   6.793   6.749 -0.2674 -0.7158 -0.9197
    2MOL   C132  554   0.290   6.789   6.907 -0.6113 -0.1185  0.1691
    2MOL   C133  555   0.440   6.825   6.716 -0.4460  0.4306  0.5014
    2MOL   C134  556   0.259   6.655   6.692 -0.4267  0.4101 -0.5173
    2MOL   H135  557   7.656   7.009   6.632 -0.7940 -1.3389 -1.4896
    2MOL   H136  558   0.043   7.041   6.566 -1.7796  2.3353  0.3535
    2MOL   H137  559   0.017   6.790   6.732  1.1973 -0.1011 -0.8278
    2MOL   H138  560   0.229   6.915   6.585  1.6196  0.3044  1.0921
    2MOL   H139  561   0.226   7.011   6.730 -3.0889  1.0055  0.1356
    2MOL   H140  562   0.328   6.879   6.956 -1.8581 -0.7701  2.3991
    2MOL   H141  563   0.351   6.705   6.941 -0.4699 -0.1195 -0.0893
    2MOL   H142  564   0.191   6.763   6.944 -0.6418 -2.9642 -1.7789
    2MOL   H143  565   0.458   6.857   6.613  0.0000 -0.3226  0.3404
    2MOL   H144  566   0.493   6.734   6.746 -1.0315  0.5947  2.0840
    2MOL   H145  567   0.472   6.902   6.786 -0.3641 -0.3053  1.2813
    2MOL   H146  568   0.339   6.583   6.707  0.2871  0.9806 -1.5434
    2MOL   H147  569   0.165   6.610   6.725 -0.1843 -0.4980 -1.0372
    2MOL   H148  570   0.251   6.657   6.583  0.6835 -1.2402 -0.6555
    2MOL   C149  571   0.014   6.981   6.859  0.0702  0.0649  0.4845
    2MOL   C150  572   7.645   6.940   6.923  0.1780  0.7948 -1.1728
    2MOL   C151  573   7.653   6.791   6.973 -0.2462  0.2638 -0.0363
    2MOL   C152  574   7.514   6.711   6.992 -0.0024 -0.9593  0.0183
    2MOL   C153  575   7.550   6.582   7.072 -0.2044  0.1998 -0.0944
    2MOL   C154  576   7.474   6.658   6.853 -0.3660 -0.1746  0.0860
    2MOL   C155  577   7.397   6.787   7.065  0.4881  0.1313 -0.0037
    2MOL   H156  578   0.008   7.080   6.815  1.6267 -0.4429 -0.9347
    2MOL   H157  579   0.091   6.970   6.936 -1.4844 -1.1668  1.8912
    2MOL   H158  580   7.571   6.944   6.843 -1.4383  0.3847  0.2784
    2MOL   H159  581   7.696   6.804   7.072  0.5666  1.1657 -0.5026
    2MOL   H160  582   7.717   6.719   6.922  0.9690  1.0340  0.3932
    2MOL   H161  583   7.592   6.614   7.167  0.0628 -1.2581  0.2871
    2MOL   H162  584   7.471   6.512   7.099 -0.4745  0.5426  0.0040
    2MOL   H163  585   7.629   6.531   7.017  1.5516  1.0470  1.5744
    2MOL   H164  586   7.552   6.605   6.799  0.6525  1.0580  0.3457
    2MOL   H165  587   7.435   6.737   6.789  0.0968 -0.2612 -0.3054
    2MOL   H166  588   7.384   6.596   6.863 -1.2641  1.0956 -0.0811
    2MOL   H167  589   7.423   6.827   7.163 -0.4279 -0.3161  0.4248
    2MOL   H168  590   7.351   6.866   7.005 -1.0415 -0.4983  0.3219
    2MOL   H169  591   7.313   6.720   7.080  0.1998  0.6806  0.9130
    2MOL   C170  592   7.617   7.050   7.029 -0.6315 -0.1238  0.2805
    2MOL   C171  593   7.585   7.194   6.978  0.3116 -0.5117  0.4860
    2MOL   C172  594   7.617   7.299   7.092  0.2376 -0.3734 -0.0258
    2MOL   C173  595   7.754   7.362   7.109  0.5039  0.7270  0.2021
    2MOL   C174  596   0.020   7.459   6.990 -0.3307 -0.5230  0.1933
    2MOL   C175  597   0.099   7.259   7.133 -0.5100  0.3053 -0.2074
    2MOL   C176  598   7.734   7.443   7.242 -0.5372 -0.6895  0.3010
    2MOL   H177  599   7.703   7.039   7.095  1.2593  2.3509 -1.7072
    2MOL   H178  600   7.530   7.010   7.081 -1.7345  0.8953 -0.7568
    2MOL   H179  601   7.654   7.226   6.899 -0.2344  1.4552  0.7715
    2MOL   H180  602   7.547   7.382   7.079 -2.4157 -2.6010 -0.4912
    2MOL   H181  603   7.577   7.253   7.182  0.3052  0.5793  0.4985
    2MOL   H182  604   0.044   7.421   6.890 -0.8785  0.5357 -0.3555
    2MOL   H183  605   7.706   7.529   6.968 -0.4957 -1.4447 -2.2998
    2MOL   H184  606   0.095   7.530   7.025 -1.0420  0.8813 -1.0705
    2MOL   H185  607   0.085   7.202   7.225 -0.3709  0.6836  0.0518
    2MOL   H186  608   0.112   7.185   7.055 -0.2859  0.5887 -0.4425
    2MOL   H187  609   0.192   7.316   7.136 -1.5723  2.0482  0.4034
    2MOL   H188  610   0.054   7.501   7.275 -0.3855 -1.0733  0.5820
    2MOL   H189  611   7.653   7.516   7.240  0.3525  0.2959 -0.4079
    2MOL   H190  612   7.703   7.382   7.327 -1.2003 -0.0226  0.5409
    2MOL   C191  613   7.434   7.206   6.937  0.3471  0.5764  0.3157
    2MOL   C192  614   7.402   7.333   6.846  0.6631 -0.3281  0.0496
    2MOL   C193  615   7.250   7.371   6.843  0.1697  0.1502 -0.1377
    2MOL   C194  616   7.186   7.459   6.966  0.1263  0.6310  0.1937
    2MOL   C195  617   7.276   7.586   6.981  0.6335 -0.1415  0.2721
    2MOL   C196  618   7.184   7.383   7.102  0.1512  0.6234  0.0412
    2MOL   C197  619   7.042   7.493   6.933 -0.4890  0.4175 -0.6182
    2MOL   H198  620   7.409   7.121   6.873 -3.3021  1.2497  0.7103
    2MOL   H199  621   7.361   7.187   7.016  1.3593  0.2351  1.1841
    2MOL   H200  622   7.465   7.412   6.887 -0.0854 -0.1094  0.8002
    2MOL   H201  623   7.192   7.280   6.830 -0.0089  0.3447 -0.7433
    2MOL   H202  624   7.225   7.435   6.758  2.0572  0.6411 -0.3557
    2MOL   H203  625   7.250   7.658   6.903 -1.2872 -0.5544  0.5059
    2MOL   H204  626   7.243   7.644   7.067  1.5273 -0.8493  1.1016
    2MOL   H205  627   7.384   7.575   6.986  0.5762 -2.6483 -2.5785
    2MOL   H206  628   7.132   7.450   7.170  1.2127  0.0934  1.3990
    2MOL   H207  629   7.122   7.296   7.083 -1.9256  1.9651  0.4650
    2MOL   H208  630   7.284   7.360   7.140 -0.8029 -0.9086  1.6548
    2MOL   H209  631   6.977   7.406   6.932 -0.1226  0.1476 -0.7015
    2MOL   H210  632   7.007   7.549   7.021  0.5100 -2.7044  1.8504
    2MOL   H211  633   7.017   7.546   6.841 -1.5819 -1.8537 -1.6548
    2MOL   C212  634   7.443   7.309   6.701  0.0318  0.6003  0.8788
    2MOL   C213  635   7.491   7.438   6.621  0.0237 -0.2011  0.7637
    2MOL   C214  636   7.465   7.422   6.468 -0.1227  0.2052  0.2333
    2MOL   C215  637   7.319   7.444   6.407  0.4032  0.0585 -0.1047
    2MOL   C216  638   7.228   7.324   6.447 -0.5996  0.3690  0.2389
    2MOL   C217  639   7.260   7.583   6.445 -0.0346 -0.5859  0.1968
    2MOL   C218  640   7.337   7.448   6.249  0.4003 -0.5018  0.1204
    2MOL   H219  641   7.539   7.259   6.710 -0.2045 -0.4299 -1.7661
    2MOL   H220  642   7.377   7.240   6.647  0.8689  1.7620 -1.7219
    2MOL   H221  643   7.435   7.524   6.656  1.2018  1.2792 -0.9087
    2MOL   H222  644   7.510   7.329   6.434  0.0341  0.5760 -0.5764
    2MOL   H223  645   7.529   7.497   6.421 -2.0764  2.7182  1.4079
    2MOL   H224  646   7.207   7.324   6.553 -1.5457 -1.7193  0.0696
    2MOL   H225  647   7.276   7.227   6.433 -1.3009  0.2658 -1.6824
    2MOL   H226  648   7.132   7.335   6.397 -0.2702  1.2216 -0.2271
    2MOL   H227  649   7.236   7.599   6.550  1.6137  0.7631  0.3840
    2MOL   H228  650   7.323   7.670   6.427 -0.2577 -0.2315  1.1165
    2MOL   H229  651   7.167   7.598   6.390  1.8608  3.6518 -2.0260
    2MOL   H230  652   7.240   7.464   6.201  0.1991 -0.2170  0.6203
    2MOL   H231  653   7.371   7.359   6.196  0.2284 -0.3229 -0.3002
    2MOL   H232  654   7.404   7.529   6.217  0.7741 -1.8528 -2.7347
    2MOL   C233  655   7.644   7.466   6.631  0.0748 -0.3813  0.0572
    2MOL   C234  656   7.691   7.612   6.604 -0.3348  0.1548 -0.4901
    2MOL   C235  657   7.650   7.694   6.727 -0.2149  0.5640  0.3869
    2MOL   C236  658   7.591   0.072   6.713  0.5935 -0.0175  0.6078
    2MOL   C237  659   7.451   0.064   6.643  0.1765 -0.0127 -0.2248
    2MOL   C238  660   7.566   0.133   6.855 -1.0057  0.5138 -0.1815
    2MOL   C239  661   7.687   0.158   6.633  0.3824 -0.0101 -0.3626
    2MOL   H240  662   7.698   7.395   6.568  0.2922  1.1029 -1.4511
    2MOL   H241  663   7.666   7.446   6.736 -1.1007 -1.0918  0.1807
    2MOL   H242  664   7.630   7.660   6.527 -0.6714  0.2420 -0.1694
    2MOL   H243  665   7.575   7.642   6.787  0.6179  2.2261  2.9581
    2MOL   H244  666   7.732   7.701   6.798 -0.4896  1.8635  0.5798
    2MOL   H245  667   7.397   7.740   6.672  0.4763  0.7257  2.7625
    2MOL   H246  668   7.467   0.063   6.535  0.3930  1.2344 -0.2212
    2MOL   H247  669   7.398   0.154   6.676  0.0082  0.1109 -0.8213
    2MOL   H248  670   7.486   0.092   6.916 -0.9181  0.2264 -0.2593
    2MOL   H249  671   7.655   0.143   6.918 -0.3536  1.0461 -1.1793
    2MOL   H250  672   7.544   0.239   6.841  2.1316  1.0481 -1.7226
    2MOL   H251  673   7.701   0.127   6.530 -2.5408 -0.0696 -0.7777
    2MOL   H252  674   7.654   0.261   6.622 -0.9496 -0.6662 -2.8562
    2MOL   H253  675   0.020   0.166   6.680  0.3623 -1.2391 -0.0899
    2MOL   C254  676   0.077   7.628   6.583 -0.2509 -0.7823  0.2218
    2MOL   C255  677   0.127   7.580   6.446 -0.3659 -0.1528 -0.3751
    2MOL   C256  678   0.287   7.588   6.446 -0.2611  0.5330  0.1148
    2MOL   C257  679   0.375   7.461   6.472  0.3971  0.3532 -0.6767
    2MOL   C258  680   0.326   7.379   6.595  0.0975  0.5608 -0.2514
    2MOL   C259  681   0.522   7.485   6.496  1.1132  0.5402 -0.6799
    2MOL   C260  682   0.354   7.362   6.351  0.2995 -0.2614  0.0309
    2MOL   H261  683   0.129   7.575   6.663 -0.2861 -0.8557  0.1966
    2MOL   H262  684   0.111   7.729   6.604  1.8337 -1.4935  0.4742
    2MOL   H263  685   0.087   7.479   6.437 -0.8778 -0.0747  0.8884
    2MOL   H264  686   0.325   7.625   6.351 -0.8455  1.0219  0.0737
    2MOL   H265  687   0.319   7.665   6.517  0.1793 -0.0291  0.5336
    2MOL   H266  688   0.369   7.433   6.679  0.6025  0.6225 -0.5453
    2MOL   H267  689   0.365   7.277   6.594 -4.2753 -1.2580  2.6730
    2MOL   H268  690   0.219   7.376   6.610 -0.2382  2.1482 -2.1484
    2MOL   H269  691   0.576   7.398   6.532  0.3848 -0.0066 -0.9122
    2MOL   H270  692   0.528   7.539   6.591 -0.8636 -1.0568  0.3760
    2MOL   H271  693   0.564   7.525   6.403  0.2272  1.0720 -0.8656
    2MOL   H272  694   0.250   7.329   6.344  0.1837 -0.1379  1.0877
    2MOL   H273  695   0.373   7.402   6.251  0.7805 -0.5998 -0.0140
    2MOL   H274  696   0.422   7.278   6.366  0.9519  0.2044 -0.2913
    2MOL   C275  697   0.076   7.684   6.341  0.2330  0.9913  0.0972
    2MOL   C276  698   0.088   7.635   6.196  0.3540  0.7654 -0.1695
    2MOL   C277  699   7.748   7.521   6.168  0.0581 -0.9590 -0.0213
    2MOL   C278  700   0.000   7.426   6.050  0.0523  0.0563  0.6972
    2MOL   C279  701   0.126   7.331   6.066 -0.1243 -0.3159  0.7018
    2MOL   C280  702   7.633   7.344   6.049  0.1840 -0.4862  0.4096
    2MOL   C281  703   0.017   7.482   5.906 -0.0192 -0.2977 -0.3489
    2MOL   H282  704   7.736   7.708   6.350 -0.1095 -0.4267 -0.1249
    2MOL   H283  705   0.127   0.014   6.349  0.0587  1.0934 -0.0239
    2MOL   H284  706   0.188   7.595   6.180 -0.2401 -1.0382  0.4271
    2MOL   H285  707   7.646   7.559   6.175  1.2793  2.6032 -0.7683
    2MOL   H286  708   7.747   7.465   6.262 -0.7660  0.0651  0.5855
    2MOL   H287  709   0.222   7.380   6.054 -0.3411 -0.6081 -2.7164
    2MOL   H288  710   0.125   7.290   6.167 -0.4756  0.5600  1.0543
    2MOL   H289  711   0.125   7.244   6.000  0.2213  1.3342 -1.5096
    2MOL   H290  712   7.635   7.266   5.973 -1.5920 -2.5088  2.3766
    2MOL   H291  713   7.540   7.398   6.031  1.1882  0.5614 -1.8549
    2MOL   H292  714   7.615   7.290   6.142  2.1373 -0.4565  0.8362
    2MOL   H293  715   0.107   7.543   5.895 -1.0318  1.9731  3.1306
    2MOL   H294  716   7.698   7.547   5.882 -0.9453 -0.8673  1.2899
    2MOL   H295  717   0.013   7.398   5.838  0.2840 -1.1879  0.7267
    2MOL   C296  718   0.054   7.756   6.106 -0.0790  0.8301 -0.4892
    2MOL   C297  719   0.160   0.100   6.083  0.8652  0.1959  0.5141
    2MOL   C298  720   0.108   0.206   5.981  0.2685 -0.4531 -0.5793
    2MOL   C299  721   0.035   0.332   6.033 -0.2400 -0.6333  0.8196
    2MOL   C300  722   7.691   0.286   6.133  0.0769 -0.3127  0.0860
    2MOL   C301  723   0.132   0.431   6.111  0.2936  0.4744 -0.4496
    2MOL   C302  724   7.733   0.408   5.917 -0.6788  0.1540  0.2021
    2MOL   H303  725   7.730   0.031   6.152  0.4687  0.5100  0.8674
    2MOL   H304  726   0.017   7.726   6.008  0.1862  0.0401 -0.3444
    2MOL   H305  727   0.188   0.147   6.177  2.3925  0.8518 -0.2480
    2MOL   H306  728   0.064   0.153   5.896 -2.3060 -0.9017  0.9732
    2MOL   H307  729   0.200   0.233   5.929  0.8400 -0.5554  0.3662
    2MOL   H308  730   7.625   0.206   6.098  0.8911 -0.0942 -2.0263
    2MOL   H309  731   7.730   0.245   6.226  0.1602 -0.2818  0.0644
    2MOL   H310  732   7.629   0.372   6.157 -2.1005 -1.6655 -0.5589
    2MOL   H311  733   0.191   0.486   6.038 -1.1951  1.3889 -0.9882
    2MOL   H312  734   0.067   0.503   6.162  0.3331  0.1818  0.0162
    2MOL   H313  735   0.203   0.382   6.178 -1.1122 -1.3104 -0.2086
    2MOL   H314  736   7.663   0.335   5.877 -0.0314 -0.7672  0.7194
    2MOL   H315  737   7.684   0.496   5.958  0.7743  1.6483 -1.1814
    2MOL   H316  738   0.036   0.442   5.839 -0.8839 -0.9313 -0.4620
    2MOL   C317  739   0.295   0.038   6.024  0.0732  0.4397  0.6542
    2MOL   C318  740   0.413   0.134   6.034 -0.2348  0.5505  0.1730
    2MOL   C319  741   0.472   0.119   6.185  0.1810  0.2732  0.0948
    2MOL   C320  742   0.568   0.224   6.236  0.3819  0.2051 -1.0834
    2MOL   C321  743   0.519   0.371   6.218  0.2698 -0.1543 -1.0472
    2MOL   C322  744   0.714   0.220   6.183 -0.7923 -0.1323 -0.0077
    2MOL   C323  745   0.579   0.198   6.386 -0.3640  0.3731  0.6449
    2MOL   H324  746   0.325   7.708   6.064  0.3313  0.6210  0.8875
    2MOL   H325  747   0.275   0.010   5.920 -1.3459 -0.1663  1.0659
    2MOL   H326  748   0.393   0.240   6.024  0.1545  0.6015 -0.0558
    2MOL   H327  749   0.520   0.024   6.207  1.3415  0.7237 -0.4958
    2MOL   H328  750   0.389   0.104   6.255  0.5024 -0.9007  0.2354
    2MOL   H329  751   0.493   0.390   6.114 -1.9441 -0.8948 -0.6444
    2MOL   H330  752   0.590   0.447   6.251  0.5802 -0.6085 -0.6592
    2MOL   H331  753   0.421   0.384   6.264 -0.1568 -2.0087 -1.3748
    2MOL   H332  754   0.757   0.120   6.187 -1.7297 -0.4579  2.1832
    2MOL   H333  755   0.711   0.260   6.081 -0.2237  0.1804  0.0976
    2MOL   H334  756   0.782   0.291   6.231  1.0974 -1.9876  0.1381
    2MOL   H335  757   0.623   0.102   6.413  0.5663  0.4723 -0.5117
    2MOL   H336  758   0.487   0.196   6.445 -0.6531  0.7454  0.2030
    2MOL   H337  759   0.635   0.276   6.439 -0.7173  1.9885 -1.2973
    2MOL   C338  760   0.515   0.084   5.928  0.2971 -0.4177  0.7807
    2MOL   C339  761   0.497   0.105   5.781 -0.3960  0.3249  0.0202
    2MOL   C340  762   0.558   7.760   5.688 -0.0390 -0.0267 -0.1863
    2MOL   C341  763   0.482   7.642   5.627 -0.0437 -0.0001  0.3381
    2MOL   C342  764   0.424   7.563   5.745  1.0184 -0.2637 -0.1028
    2MOL   C343  765   0.363   7.695   5.537  0.2273 -0.1400  0.3233
    2MOL   C344  766   0.581   7.563   5.539  0.6646 -0.3685 -0.4781
    2MOL   H345  767   0.514   7.741   5.935  1.8625 -0.4635  0.4450
    2MOL   H346  768   0.619   0.110   5.948  0.3413  1.8873 -2.1155
    2MOL   H347  769   0.391   0.095   5.760  0.1791 -2.3559 -1.9301
    2MOL   H348  770   0.643   7.724   5.745 -0.3092  0.1359  0.3163
    2MOL   H349  771   0.602   0.057   5.610  2.2272 -0.2964  0.8350
    2MOL   H350  772   0.498   7.550   5.825  0.9244  0.5227  0.1102
    2MOL   H351  773   0.333   7.613   5.777  0.4754 -1.8294  0.8742
    2MOL   H352  774   0.393   7.465   5.710 -0.8206 -0.7420  2.6938
    2MOL   H353  775   0.301   7.608   5.520  0.1124  0.1009 -0.5155
    2MOL   H354  776   0.310   0.013   5.583 -0.2616 -1.3012  1.9245
    2MOL   H355  777   0.396   7.741   5.444  1.0081 -2.8002 -0.7632
    2MOL   H356  778   0.647   7.501   5.600  1.6809  2.5139  1.4696
    2MOL   H357  779   0.521   7.495   5.479  1.1795 -1.4011  0.1655
    2MOL   H358  780   0.640   7.626   5.473  0.9921  0.9765  1.0670
    2MOL   C359  781   0.538   0.248   5.746 -0.2908 -0.5778  1.3841
    2MOL   C360  782   0.469   0.300   5.613  0.3022  0.7606  0.0307
    2MOL   C361  783   0.565   0.400   5.536 -0.6892  0.1558  0.4062
    2MOL   C362  784   0.668   0.346   5.436 -0.0638  0.4613  0.3571
    2MOL   C363  785   0.787   0.272   5.507  0.5054 -0.4769  0.8644
    2MOL   C364  786   0.709   0.458   5.334  0.1740  0.0765  0.1204
    2MOL   C365  787   0.591   0.244   5.343  0.0280 -0.3972  0.1962
    2MOL   H366  788   0.645   0.259   5.724 -1.0136  1.2123 -1.4959
    2MOL   H367  789   0.540   0.317   5.830  0.3495 -0.3044  1.1557
    2MOL   H368  790   0.447   0.216   5.547  1.6222 -0.0243  0.5537
    2MOL   H369  791   0.493   0.445   5.468 -1.5105 -4.0031 -1.6081
    2MOL   H370  792   0.609   0.473   5.605  0.6666 -1.2824  1.0940
    2MOL   H371  793   0.834   0.326   5.588 -1.9929  0.6624  1.5871
    2MOL   H372  794   0.758   0.171   5.536 -1.9374 -0.4613 -1.3414
    2MOL   H373  795   0.857   0.247   5.427  1.2676  0.6163  1.1793
    2MOL   H374  796   0.618   0.490   5.282 -0.7810  0.8042  2.1806
    2MOL   H375  797   0.787   0.415   5.271 -0.6917 -0.5986 -0.5095
    2MOL   H376  798   0.766   0.541   5.374  1.8544 -1.0638  0.1265
    2MOL   H377  799   0.638   0.224   5.247 -2.6277  1.3442 -1.5185
    2MOL   H378  800   0.498   0.295   5.319 -0.4570 -1.2934  0.1349
    2MOL   H379  801   0.581   0.145   5.389 -0.1280 -0.8518 -0.7901
    2MOL   C380  802   0.335   0.374   5.639  0.2073 -0.1975 -0.2590
    2MOL   C381  803   0.241   0.409   5.519  0.1491 -0.8087 -0.1582
    2MOL   C382  804   0.141   0.521   5.565  0.2031  0.6526 -0.5063
    2MOL   C383  805   0.165   0.662   5.506  0.6110  0.6080 -0.6079
    2MOL   C384  806   0.312   0.706   5.531  0.3375 -0.3424  0.5100
    2MOL   C385  807   0.064   0.770   5.560 -0.2172 -0.3483 -0.2425
    2MOL   C386  808   0.147   0.657   5.352  0.4330  0.2425 -0.0686
    2MOL   H387  809   0.362   0.459   5.702 -1.0904  1.4139 -1.8395
    2MOL   H388  810   0.277   0.307   5.702 -0.0792 -0.6270 -0.9742
    2MOL   H389  811   0.301   0.447   5.437  1.6846 -1.6649  0.5458
    2MOL   H390  812   0.038   0.504   5.534  0.1310  1.3861 -0.6754
    2MOL   H391  813   0.138   0.534   5.673  2.3342 -0.2878 -0.3169
    2MOL   H392  814   0.329   0.708   5.638  1.6869  1.5913  0.2790
    2MOL   H393  815   0.393   0.643   5.494 -1.9787 -2.5263 -1.0647
    2MOL   H394  816   0.335   0.803   5.488 -2.4510  0.3735  0.5587
    2MOL   H395  817   0.100   0.871   5.541  0.1618 -0.4591 -0.1239
    2MOL   H396  818   0.052   0.771   5.668 -1.9114  2.5318 -0.4209
    2MOL   H397  819   7.725   0.756   5.535 -0.3782  0.5511 -0.0782
    2MOL   H398  820   0.169   0.757   5.315 -1.6081  1.8437  2.8857
    2MOL   H399  821   0.042   0.645   5.325 -0.0699  0.3654  1.7767
    2MOL   H400  822   0.218   0.592   5.302 -0.2723  0.3369 -1.2048
    2MOL   C401  823   0.172   0.291   5.452 -0.5093  0.0460  0.0742
    2MOL   C402  824   0.041   0.243   5.523  0.1957 -0.3506  0.3118
    2MOL   C403  825   0.017   0.092   5.493  0.1184  0.1992 -0.1418
    2MOL   C404  826   7.654   0.024   5.530  0.4319  0.0425 -0.0039
    2MOL   C405  827   7.615   0.068   5.675 -0.3563 -0.5100 -0.1815
    2MOL   C406  828   7.656   7.634   5.516 -0.3181 -0.6342  0.0531
    2MOL   C407  829   7.540   0.074   5.436  0.7226 -0.7716  0.4386
    2MOL   H408  830   0.148   0.322   5.350 -3.0458 -0.5907  0.4565
    2MOL   H409  831   0.238   0.204   5.443 -0.6471 -0.1528  0.9770
    2MOL   H410  832   0.054   0.259   5.630 -1.4565 -1.7563  0.7522
    2MOL   H411  833   0.098   0.033   5.535  1.4365  0.3904 -2.3617
    2MOL   H412  834   0.039   0.073   5.388  0.9958 -0.4047  0.1531
    2MOL   H413  835   7.592   0.174   5.669  1.9926 -0.0574 -1.8872
    2MOL   H414  836   7.695   0.043   5.745  1.7599  1.7132 -1.7031
    2MOL   H415  837   7.515   0.034   5.703 -0.8115  0.1967 -0.9128
    2MOL   H416  838   7.695   7.599   5.420 -1.7644 -1.9638 -0.0710
    2MOL   H417  839   7.561   7.581   5.523 -0.5180 -0.0363  2.1326
    2MOL   H418  840   7.711   7.600   5.604  0.9581 -0.7287 -0.7696
    2MOL   H419  841   7.547   0.029   5.338  1.5352  1.4427 -0.5566
    2MOL   H420  842   7.442   0.055   5.479 -0.7497  1.0009 -2.0107
    2MOL   H421  843   7.554   0.181   5.420 -0.3083 -0.6499  0.3454
    2MOL   H422  844   7.722   0.299   5.485  0.0544 -0.4676  0.4555
    3MOL     C1  845   3.010   3.985   5.231 -0.3406  0.0488  0.4173
    3MOL     C2  846   3.005   3.958   5.072 -0.6142  0.7700 -0.7060
    3MOL     C3  847   3.092   4.073   5.014  0.3000 -0.4505 -0.3897
    3MOL     C4  848   3.215   4.039   4.936  0.4096  0.6610  0.5431
    3MOL     C5  849   3.266   4.166   4.868 -0.1103  0.0916 -0.6221
    3MOL     C6  850   3.325   3.966   5.024  0.4923 -0.1867 -0.3521
    3MOL     C7  851   3.174   3.950   4.817 -0.4782 -0.1057  0.0193
    3MOL     H8  852   3.117   3.984   5.256  0.3852 -0.3782 -2.4638
    3MOL     H9  853   2.968   4.082   5.255  1.3993  1.0627 -0.4907
    3MOL    H10  854   3.062   3.867   5.052 -0.5819  0.4399  0.7894
    3MOL    H11  855   3.124   4.145   5.090  1.3712  0.1410 -1.3693
    3MOL    H12  856   3.020   4.128   4.954  1.0124  2.4330  1.2502
    3MOL    H13  857   3.188   4.207   4.804 -1.3572 -2.2401 -0.6475
    3MOL    H14  858   3.344   4.155   4.793  0.6466 -1.3441  0.3628
    3MOL    H15  859   3.296   4.240   4.942 -1.1846  1.4461 -1.5192
    3MOL    H16  860   3.424   3.998   4.991  0.6755  0.7756  1.0905
    3MOL    H17  861   3.323   3.999   5.128 -3.4965  1.0184 -0.7308
    3MOL    H18  862   3.311   3.858   5.027 -1.2905  0.0091 -1.2213
    3MOL    H19  863   3.237   3.941   4.728  0.6031 -0.0056  0.7673
    3MOL    H20  864   3.086   3.995   4.771 -0.1893  1.0407  0.5714
    3MOL    H21  865   3.151   3.847   4.843  0.1326 -0.4222 -0.6652
    3MOL    H22  866   2.969   3.905   5.292 -0.6970  1.4702  2.0599
    3MOL    C23  867   2.862   3.940   5.016 -1.3312 -0.4481  0.0125
    3MOL    C24  868   2.797   3.800   5.052  0.3780  0.2048 -0.4036
    3MOL    C25  869   2.865   3.684   4.977 -0.5501  0.8275  0.0009
    3MOL    C26  870   2.868   3.540   5.046  0.0675 -0.0098  0.3306
    3MOL    C27  871   2.908   3.434   4.945 -0.1535  0.2599  0.7600
    3MOL    C28  872   2.982   3.543   5.151  0.6922  0.3088  0.5597
    3MOL    C29  873   2.739   3.496   5.110  0.2026  0.1816 -0.1488
    3MOL    H30  874   2.808   4.026   5.054 -1.5469 -0.4027 -0.4001
    3MOL    H31  875   2.859   3.950   4.908  0.5230  0.5706  0.0395
    3MOL    H32  876   2.814   3.792   5.159 -2.9253  0.0768  0.1659
    3MOL    H33  877   2.967   3.710   4.951 -1.2378  3.1336 -0.5128
    3MOL    H34  878   2.810   3.668   4.884  1.3802 -1.3617 -0.7985
    3MOL    H35  879   2.828   3.420   4.872  0.1999  2.4728 -0.0803
    3MOL    H36  880   3.002   3.450   4.891 -0.6916  0.7450 -0.0450
    3MOL    H37  881   2.917   3.341   5.001 -0.0689  0.2866  0.7910
    3MOL    H38  882   3.072   3.594   5.117  1.1995 -1.4923 -0.8330
    3MOL    H39  883   2.957   3.601   5.240  0.6836  1.3452 -0.1110
    3MOL    H40  884   3.002   3.440   5.182  1.9927  0.8713  1.6158
    3MOL    H41  885   2.657   3.478   5.041 -1.4954 -0.0179  1.8741
    3MOL    H42  886   2.710   3.555   5.197 -0.6154 -1.0784  0.4503
    3MOL    H43  887   2.758   3.397   5.151  2.6263  0.1550 -1.2257
    3MOL    C44  888   2.642   3.800   5.014 -0.4399  0.5126 -0.2340
    3MOL    C45  889   2.551   3.898   5.097 -0.1218  0.0643 -0.7069
    3MOL    C46  890   2.551   3.858   5.254  0.0301 -0.7827 -0.3751
    3MOL    C47  891   2.552   3.972   5.363 -0.2365  0.0543 -0.5533
    3MOL    C48  892   2.425   4.053   5.356  0.1062 -0.0447 -0.3019
    3MOL    C49  893   2.673   4.068   5.353 -0.1734 -0.6184  0.1696
    3MOL    C50  894   2.563   3.901   5.497  0.1814 -0.5438  0.0498
    3MOL    H51  895   2.639   3.825   4.908 -0.2392  1.3320 -0.0535
    3MOL    H52  896   2.604   3.698   5.016  0.8831 -0.0294 -2.0634
    3MOL    H53  897   2.593   3.998   5.089 -0.4319  0.1954 -0.7031
    3MOL    H54  898   2.639   3.799   5.276  0.7929  1.2295  2.2989
    3MOL    H55  899   2.480   3.776   5.266  2.6357 -3.2655 -1.5111
    3MOL    H56  900   2.417   4.108   5.262  1.1140 -1.5448 -1.3045
    3MOL    H57  901   2.415   4.124   5.438  4.4362 -2.2208  2.2470
    3MOL    H58  902   2.341   3.984   5.347  0.1121  0.0577 -1.2304
    3MOL    H59  903   2.680   4.140   5.435 -1.1621  2.0065 -1.9724
    3MOL    H60  904   2.771   4.022   5.356  0.2685  0.3874  1.2433
    3MOL    H61  905   2.680   4.125   5.260  0.5969  0.8852  1.1469
    3MOL    H62  906   2.660   3.856   5.516 -0.7820 -2.0002  1.6821
    3MOL    H63  907   2.541   3.969   5.579  1.0534  1.1277 -1.0768
    3MOL    H64  908   2.506   3.809   5.510  0.4048 -0.9117 -1.4768
    3MOL    C65  909   2.411   3.888   5.047  0.7326  0.0617 -0.0109
    3MOL    C66  910   2.381   3.970   4.918  0.3685  0.2729 -0.4074
    3MOL    C67  911   2.382   4.125   4.949 -0.2997 -0.4013  0.4861
    3MOL    C68  912   2.450   4.213   4.838  0.0922  0.2856  0.2339
    3MOL    C69  913   2.405   4.184   4.691  0.5849  0.0588 -0.9720
    3MOL    C70  914   2.424   4.359   4.871  0.1473  0.0619  0.3886
    3MOL    C71  915   2.602   4.204   4.857  0.0165  0.3116  0.1047
    3MOL    H72  916   2.378   3.784   5.048 -0.4341  0.4156 -0.5777
    3MOL    H73  917   2.340   3.931   5.118 -1.7341 -0.6186 -2.0012
    3MOL    H74  918   2.449   3.947   4.836  0.9520 -1.4272  0.5358
    3MOL    H75  919   2.409   4.155   5.050  0.8986  0.9289 -0.2146
    3MOL    H76  920   2.279   4.158   4.933 -0.1516  0.5103  1.3713
    3MOL    H77  921   2.463   4.238   4.616  0.5127  0.1952 -0.9314
    3MOL    H78  922   2.407   4.079   4.664 -0.0040 -0.4291  0.7851
    3MOL    H79  923   2.301   4.215   4.696  0.9663  0.9975  2.7440
    3MOL    H80  924   2.327   4.395   4.839 -0.9877 -2.0164  1.3782
    3MOL    H81  925   2.492   4.432   4.826  0.2997  0.3716  1.1173
    3MOL    H82  926   2.438   4.388   4.975 -0.0899  1.4225  0.0516
    3MOL    H83  927   2.641   4.104   4.835  0.4197  0.6001 -0.5097
    3MOL    H84  928   2.626   4.218   4.962  0.2142 -0.1039  0.1169
    3MOL    H85  929   2.657   4.279   4.800  0.0189  0.7777  0.7209
    3MOL    C86  930   2.242   3.936   4.853 -0.4785 -0.4407  0.0871
    3MOL    C87  931   2.242   3.800   4.781  0.0100 -0.1634 -0.1237
    3MOL    C88  932   2.275   3.802   4.623  0.2568 -0.5213  0.1617
    3MOL    C89  933   2.377   3.698   4.582 -0.1630  0.0317 -0.1986
    3MOL    C90  934   2.384   3.704   4.423 -0.3311 -0.6111  0.1358
    3MOL    C91  935   2.338   3.555   4.615 -0.2725  0.2543 -0.6288
    3MOL    C92  936   2.516   3.728   4.648 -0.7353 -0.2036 -0.0750
    3MOL    H93  937   2.210   4.010   4.779  1.4350  0.2666 -0.0739
    3MOL    H94  938   2.172   3.942   4.937 -0.1054 -0.3659  0.3946
    3MOL    H95  939   2.317   3.740   4.832 -0.5935 -0.3034  0.6099
    3MOL    H96  940   2.318   3.896   4.587  1.8978 -2.1087 -2.2319
    3MOL    H97  941   2.189   3.787   4.558  0.0122 -2.8390  0.9735
    3MOL    H98  942   2.290   3.678   4.375 -0.6529  1.9138 -0.6642
    3MOL    H99  943   2.468   3.641   4.393  1.1905  1.4016  0.0008
    3MOL   H100  944   2.420   3.802   4.392 -1.3817 -0.1858  0.2478
    3MOL   H101  945   2.239   3.544   4.570 -1.6552 -0.0319  2.3527
    3MOL   H102  946   2.406   3.481   4.574  2.0551  2.7184 -1.2650
    3MOL   H103  947   2.330   3.543   4.724  0.9883  0.3112 -0.5273
    3MOL   H104  948   2.601   3.682   4.598 -2.5619 -0.9821 -2.5933
    3MOL   H105  949   2.538   3.832   4.671  0.5901 -0.7570  1.2621
    3MOL   H106  950   2.519   3.684   4.747 -0.6093 -1.3858 -0.5980
    3MOL   C107  951   2.111   3.721   4.803  0.2395  0.1153  0.5909
    3MOL   C108  952   2.068   3.670   4.945 -0.4392 -0.1764  0.1657
    3MOL   C109  953   1.910   3.667   4.961  1.0244  0.0606  0.2421
    3MOL   C110  954   1.833   3.798   4.991  0.3988  0.1992  0.6882
    3MOL   C111  955   1.689   3.767   5.027  0.4142  0.2598 -0.7089
    3MOL   C112  956   1.820   3.893   4.869 -0.0053 -0.2466 -0.4866
    3MOL   C113  957   1.893   3.873   5.112  0.2387  0.5680  0.3661
    3MOL   H114  958   2.121   3.633   4.739  1.4945 -0.2251  1.2493
    3MOL   H115  959   2.032   3.779   4.755 -1.2787 -0.9486  1.7433
    3MOL   H116  960   2.104   3.735   5.024  1.4267 -0.9127 -0.0573
    3MOL   H117  961   1.859   3.620   4.877  0.4488  0.3426  0.4309
    3MOL   H118  962   1.880   3.599   5.041 -1.2375  0.8453  0.1047
    3MOL   H119  963   1.643   3.699   4.956 -1.2610  0.2211  0.3829
    3MOL   H120  964   1.684   3.698   5.111 -1.7037  1.5617  0.2838
    3MOL   H121  965   1.635   3.856   5.060  0.1829  1.0238 -3.0864
    3MOL   H122  966   1.742   3.967   4.886 -2.1251 -2.0907 -1.9194
    3MOL   H123  967   1.791   3.833   4.783 -0.4422 -0.0663 -0.4690
    3MOL   H124  968   1.914   3.944   4.848 -0.4814  0.2543 -1.4522
    3MOL   H125  969   1.850   3.972   5.123 -2.2158 -0.0264 -2.9907
    3MOL   H126  970   1.998   3.896   5.091  0.1181  0.6265 -0.1828
    3MOL   H127  971   1.888   3.818   5.206  1.9026 -0.8300 -0.3141
    3MOL   C128  972   2.135   3.533   4.968  0.8840  0.4859  0.5372
    3MOL   C129  973   2.127   3.470   5.110 -0.2821  0.0472 -0.4406
    3MOL   C130  974   2.162   3.321   5.110  0.8617  0.0325  0.0075
    3MOL   C131  975   2.043   3.223   5.084  0.1999 -0.0137  0.4385
    3MOL   C132  976   2.094   3.074   5.079  0.9076  1.1461 -0.1627
    3MOL   C133  977   1.961   3.263   4.965  0.0308  0.3452  0.3699
    3MOL   C134  978   1.957   3.229   5.214  0.4123  0.9321  0.1976
    3MOL   H135  979   2.240   3.541   4.939  0.3655  1.7077 -1.0899
    3MOL   H136  980   2.092   3.474   4.888  2.7259  1.7404 -1.4334
    3MOL   H137  981   2.024   3.483   5.144  0.3609  0.5337  1.3977
    3MOL   H138  982   2.244   3.299   5.041  2.2575  1.3989  1.1855
    3MOL   H139  983   2.198   3.280   5.204  0.2024 -1.5783 -0.4241
    3MOL   H140  984   2.008   3.011   5.103  1.5927  0.8129  1.4925
    3MOL   H141  985   2.175   3.042   5.146  2.1695  2.1296 -1.1985
    3MOL   H142  986   2.118   3.044   4.977  2.1075  0.6088  0.2578
    3MOL   H143  987   2.031   3.256   4.881  0.0313 -0.3855  0.4238
    3MOL   H144  988   1.922   3.365   4.970 -0.7222  0.1283 -0.9097
    3MOL   H145  989   1.880   3.194   4.944  1.3963 -1.0583 -0.4664
    3MOL   H146  990   1.871   3.161   5.210  0.5598  0.7809 -0.5286
    3MOL   H147  991   2.019   3.204   5.300  0.2310 -0.1690  0.0249
    3MOL   H148  992   1.921   3.329   5.236  2.1513  2.1158 -2.2478
    3MOL   C149  993   2.210   3.553   5.213  0.3476  0.4406  0.2547
    3MOL   C150  994   2.170   3.536   5.361  0.2067  0.0858  0.2164
    3MOL   C151  995   2.288   3.551   5.460  0.0037  0.2491  0.0095
    3MOL   C152  996   2.387   3.425   5.488 -0.2737 -0.0316  0.8845
    3MOL   C153  997   2.459   3.387   5.364 -0.0249  0.5092  1.0143
    3MOL   C154  998   2.312   3.301   5.548 -0.7616  0.3943  0.4080
    3MOL   C155  999   2.496   3.485   5.584  0.3059 -0.0412 -0.4793
    3MOL   H156 1000   2.188   3.658   5.194 -0.0293  1.0001  3.5172
    3MOL   H157 1001   2.315   3.532   5.193  0.2592  2.4672 -2.5782
    3MOL   H158 1002   2.124   3.439   5.378 -0.4557  0.6553  1.7741
    3MOL   H159 1003   2.252   3.594   5.553 -2.2222 -0.5121 -0.4663
    3MOL   H160 1004   2.339   3.640   5.421 -1.1738  0.1037 -1.9478
    3MOL   H161 1005   2.523   3.299   5.378 -2.1817 -1.0025  1.5521
    3MOL   H162 1006   2.395   3.345   5.287 -0.9653 -2.4935  3.3348
    3MOL   H163 1007   2.519   3.470   5.327 -0.3209  0.5606  0.6487
    3MOL   H164 1008   2.382   3.246   5.610  0.1419  2.0489  0.8989
    3MOL   H165 1009   2.254   3.243   5.477  1.9633 -0.1704 -1.3982
    3MOL   H166 1010   2.244   3.341   5.624 -1.0716  0.5364  0.0581
    3MOL   H167 1011   2.549   3.574   5.552 -0.1117 -0.5164 -2.5228
    3MOL   H168 1012   2.440   3.516   5.673  0.4212  0.1439 -0.4725
    3MOL   H169 1013   2.573   3.411   5.606  0.2254 -0.4147 -1.4236
    3MOL   C170 1014   2.057   3.640   5.392  0.3192  0.2896  0.2387
    3MOL   C171 1015   1.962   3.622   5.522  0.3656 -0.1693 -0.0306
    3MOL   C172 1016   1.869   3.493   5.517 -1.0003  0.5785 -0.8706
    3MOL   C173 1017   1.837   3.422   5.649 -0.2603 -0.1253  0.5145
    3MOL   C174 1018   1.955   3.343   5.707  0.0264  0.5651  0.0263
    3MOL   C175 1019   1.730   3.324   5.610  0.3249  0.0728  0.4748
    3MOL   C176 1020   1.777   3.516   5.762 -0.8259 -0.1893 -0.2367
    3MOL   H177 1021   1.988   3.639   5.308 -0.0438  0.8836  0.5235
    3MOL   H178 1022   2.117   3.729   5.411  0.2996  0.5449 -0.8776
    3MOL   H179 1023   2.026   3.614   5.610  2.5903 -0.9418 -1.6971
    3MOL   H180 1024   1.777   3.518   5.465 -0.5877  2.3830 -0.7998
    3MOL   H181 1025   1.918   3.420   5.453  1.9106  0.3892  1.4534
    3MOL   H182 1026   2.047   3.400   5.722  0.4993  0.7561 -3.2936
    3MOL   H183 1027   1.934   3.308   5.808  0.7877 -0.8111 -0.2659
    3MOL   H184 1028   1.981   3.251   5.654  2.4841  1.9938 -1.3925
    3MOL   H185 1029   1.627   3.354   5.592  0.0643 -0.9594  0.2051
    3MOL   H186 1030   1.760   3.251   5.535  0.1790 -1.5007  1.9124
    3MOL   H187 1031   1.710   3.261   5.697  0.1667  0.1963  0.5275
    3MOL   H188 1032   1.680   3.560   5.741 -0.9710 -0.2070  0.3766
    3MOL   H189 1033   1.756   3.461   5.854  1.0495  1.8661  1.4813
    3MOL   H190 1034   1.842   3.599   5.792 -0.3784 -0.0331 -1.5938
    3MOL   C191 1035   1.871   3.746   5.541  0.0534 -0.1938  0.2832
    3MOL   C192 1036   1.949   3.874   5.599 -0.0897  0.4413 -0.3740
    3MOL   C193 1037   2.006   3.857   5.742 -0.1642 -0.0539  0.0016
    3MOL   C194 1038   2.148   3.925   5.774  0.6399 -1.1828 -0.3729
    3MOL   C195 1039   2.149   4.075   5.742  0.4259  0.1465 -0.4627
    3MOL   C196 1040   2.265   3.865   5.694  0.3548  0.0640  0.8098
    3MOL   C197 1041   2.192   3.903   5.923  0.5243  0.6152 -0.1107
    3MOL   H198 1042   1.816   3.753   5.446 -0.0062  0.4476  0.3579
    3MOL   H199 1043   1.794   3.717   5.612 -2.6889  1.5658 -1.8226
    3MOL   H200 1044   2.036   3.885   5.535  0.9270 -1.5209  0.6322
    3MOL   H201 1045   2.029   3.751   5.758 -2.6048 -0.7766 -1.0257
    3MOL   H202 1046   1.930   3.868   5.821 -0.8434 -0.2656 -0.6153
    3MOL   H203 1047   2.068   4.124   5.796  0.6737  0.4613 -0.3728
    3MOL   H204 1048   2.230   4.136   5.783  0.3685  0.7687 -1.2488
    3MOL   H205 1049   2.138   4.100   5.636 -1.1831 -2.4060 -0.9276
    3MOL   H206 1050   2.353   3.928   5.703  0.4190  0.5723 -2.7893
    3MOL   H207 1051   2.286   3.760   5.715  0.4797  0.0642  0.6843
    3MOL   H208 1052   2.239   3.871   5.589  2.5134  0.3536  0.2627
    3MOL   H209 1053   2.297   3.931   5.932  0.0936  2.1132  0.4269
    3MOL   H210 1054   2.131   3.960   5.992  0.1978  0.5066 -0.3093
    3MOL   H211 1055   2.175   3.796   5.938  0.0344  1.0669  2.7971
    3MOL   C212 1056   1.870   4.007   5.573 -0.1081  0.5025 -0.2079
    3MOL   C213 1057   1.720   4.013   5.581 -0.5049  0.2347 -0.2900
    3MOL   C214 1058   1.667   4.159   5.528 -0.4390  0.0517  0.3750
    3MOL   C215 1059   1.581   4.174   5.405 -0.0327  0.1918  0.4342
    3MOL   C216 1060   1.444   4.098   5.421 -0.2227 -0.1878  0.1714
    3MOL   C217 1061   1.557   4.323   5.381 -0.1354 -0.5127 -0.6123
    3MOL   C218 1062   1.646   4.101   5.286 -0.0643 -0.3323  0.1808
    3MOL   H219 1063   1.906   4.083   5.642 -2.1470  1.0214  0.3329
    3MOL   H220 1064   1.900   4.047   5.477 -2.1169  2.3707 -0.0985
    3MOL   H221 1065   1.683   3.935   5.515  0.0188  0.1785 -0.5171
    3MOL   H222 1066   1.744   4.237   5.527  0.1449 -0.5101 -1.2115
    3MOL   H223 1067   1.609   4.204   5.608 -0.5416  0.9936 -0.2091
    3MOL   H224 1068   1.374   4.124   5.342  1.6852 -0.1406 -1.5463
    3MOL   H225 1069   1.393   4.124   5.514 -0.2617  1.1367 -0.2182
    3MOL   H226 1070   1.454   3.989   5.422  1.5547 -0.0417  1.2560
    3MOL   H227 1071   1.514   4.390   5.456  0.3503  0.5000 -1.2245
    3MOL   H228 1072   1.652   4.373   5.360  0.1812 -0.5171  0.7376
    3MOL   H229 1073   1.506   4.343   5.287 -0.0322 -2.2322 -1.0440
    3MOL   H230 1074   1.591   4.118   5.193  0.2566  2.9654  0.5346
    3MOL   H231 1075   1.654   3.994   5.307 -0.9413 -0.5334 -0.4975
    3MOL   H232 1076   1.749   4.130   5.266 -0.7913  2.6457  0.4856
    3MOL   C233 1077   1.678   3.977   5.729  0.8529 -0.4877 -0.0640
    3MOL   C234 1078   1.532   3.934   5.765 -0.3348  0.0111 -0.5797
    3MOL   C235 1079   1.498   3.791   5.713  0.1793  0.2157  0.0537
    3MOL   C236 1080   1.350   3.741   5.702  0.4532 -0.5137 -0.2608
    3MOL   C237 1081   1.277   3.730   5.841 -0.3075 -0.3099 -0.9429
    3MOL   C238 1082   1.266   3.825   5.608  0.1045 -0.2178 -0.5262
    3MOL   C239 1083   1.362   3.603   5.637  0.0803  0.2560  0.0728
    3MOL   H240 1084   1.706   4.072   5.775 -1.0894  0.8601 -1.5509
    3MOL   H241 1085   1.739   3.892   5.757  3.7363  0.7012 -2.4902
    3MOL   H242 1086   1.468   4.009   5.718  0.4669  3.2945  3.2922
    3MOL   H243 1087   1.537   3.789   5.612  0.6165  1.0962  0.2035
    3MOL   H244 1088   1.549   3.717   5.776 -0.4250 -0.7585 -0.5765
    3MOL   H245 1089   1.329   3.668   5.915 -2.2541 -0.0267  0.7210
    3MOL   H246 1090   1.184   3.675   5.828 -1.1121  0.4029  1.4110
    3MOL   H247 1091   1.249   3.830   5.873  1.9933 -0.4815  1.8851
    3MOL   H248 1092   1.169   3.776   5.600  0.9169 -1.4442 -3.4216
    3MOL   H249 1093   1.247   3.922   5.654 -0.9134 -0.8995  0.5044
    3MOL   H250 1094   1.311   3.843   5.510 -1.4681 -1.0783 -1.4286
    3MOL   H251 1095   1.264   3.560   5.616 -0.2221  1.7167 -1.5531
    3MOL   H252 1096   1.420   3.599   5.545  1.6895  0.0142  1.0809
    3MOL   H253 1097   1.417   3.534   5.700 -1.1117 -0.4148  0.4005
    3MOL   C254 1098   1.511   3.959   5.919 -0.8278  0.0162 -0.6091
    3MOL   C255 1099   1.466   4.101   5.960 -0.4473  0.9916  0.0750
    3MOL   C256 1100   1.494   4.138   6.115  0.1885 -0.5592 -0.9884
    3MOL   C257 1101   1.609   4.239   6.147 -0.6825 -0.3439  0.5199
    3MOL   C258 1102   1.642   4.233   6.300 -0.5621 -0.3401 -0.1843
    3MOL   C259 1103   1.560   4.379   6.118  0.1021  0.2867  0.6613
    3MOL   C260 1104   1.737   4.217   6.058 -0.5466 -0.0050 -0.5243
    3MOL   H261 1105   1.605   3.939   5.970 -0.6651 -0.3226 -1.0370
    3MOL   H262 1106   1.437   3.895   5.967  0.9593  0.1814  2.4543
    3MOL   H263 1107   1.515   4.175   5.897 -1.5310  1.1394 -0.5981
    3MOL   H264 1108   1.397   4.176   6.150 -0.3932  0.0615 -3.1901
    3MOL   H265 1109   1.515   4.043   6.163 -3.4469 -0.4904  0.9379
    3MOL   H266 1110   1.560   4.261   6.367 -0.3083 -0.5029  0.1978
    3MOL   H267 1111   1.732   4.290   6.321  0.3400 -2.2111  1.2518
    3MOL   H268 1112   1.658   4.133   6.341 -2.1159  0.0453  1.4032
    3MOL   H269 1113   1.641   4.452   6.124  0.0385  0.5156 -1.0019
    3MOL   H270 1114   1.488   4.411   6.193  0.2725  0.3798  0.7849
    3MOL   H271 1115   1.526   4.386   6.014 -0.5474 -1.5306  0.7311
    3MOL   H272 1116   1.822   4.278   6.089  1.2120 -1.5375 -2.2101
    3MOL   H273 1117   1.779   4.116   6.063  0.1672  0.3618  1.2988
    3MOL   H274 1118   1.723   4.231   5.951 -0.4253 -2.2518 -0.8637
    3MOL   C275 1119   1.316   4.118   5.919 -0.0557 -0.7433  0.7018
    3MOL   C276 1120   1.256   4.258   5.920  0.4409 -0.3022 -0.4313
    3MOL   C277 1121   1.314   4.346   5.803 -0.7592 -0.1212 -0.3301
    3MOL   C278 1122   1.294   4.504   5.810 -0.4665  0.4164 -0.1170
    3MOL   C279 1123   1.176   4.532   5.714  0.4427  0.2363 -0.2851
    3MOL   C280 1124   1.274   4.567   5.948  0.6223  0.0725  0.4413
    3MOL   C281 1125   1.424   4.576   5.762  0.4084 -0.0555 -0.1865
    3MOL   H282 1126   1.306   4.078   5.819  0.3296 -0.0679  0.3936
    3MOL   H283 1127   1.259   4.047   5.979  0.0506 -1.7530 -0.3791
    3MOL   H284 1128   1.284   4.312   6.010  2.6561 -1.6175 -0.2958
    3MOL   H285 1129   1.258   4.305   5.719 -0.4497  0.9781 -1.0866
    3MOL   H286 1130   1.421   4.322   5.801 -0.6534  0.2567  0.6507
    3MOL   H287 1131   1.196   4.485   5.618 -2.2535  0.6313 -1.0867
    3MOL   H288 1132   1.083   4.494   5.756  2.6098 -2.9525  1.8419
    3MOL   H289 1133   1.154   4.638   5.696 -1.5558 -0.2269 -0.6857
    3MOL   H290 1134   1.174   4.556   5.990  1.3008 -0.4883  1.9462
    3MOL   H291 1135   1.284   4.676   5.954  1.5563 -0.0051  0.4584
    3MOL   H292 1136   1.344   4.514   6.013 -0.2687 -1.5497  0.0912
    3MOL   H293 1137   1.511   4.561   5.826 -1.2325 -0.4042  2.0186
    3MOL   H294 1138   1.409   4.681   5.740  0.9442 -0.4746 -2.6489
    3MOL   H295 1139   1.463   4.528   5.672 -1.6292 -0.1049 -1.0923
    3MOL   C296 1140   1.104   4.259   5.919  1.1706 -0.1804  0.1427
    3MOL   C297 1141   1.033   4.188   6.039  0.0196  0.6700  0.3978
    3MOL   C298 1142   0.894   4.143   5.988 -0.0145  0.8745 -0.0059
    3MOL   C299 1143   0.880   4.001   5.935  0.4030 -0.4687 -0.4082
    3MOL   C300 1144   0.919   3.900   6.037 -0.7940  0.1481  0.3987
    3MOL   C301 1145   0.735   3.978   5.900 -0.2107 -0.1363 -0.4060
    3MOL   C302 1146   0.968   3.967   5.814 -0.4397 -0.8558 -0.1529
    3MOL   H303 1147   1.068   4.207   5.830 -1.5337 -0.1403  1.1557
    3MOL   H304 1148   1.068   4.361   5.910  0.4489 -0.4973 -0.6328
    3MOL   H305 1149   1.083   4.095   6.067 -0.2373  0.1558 -0.7738
    3MOL   H306 1150   0.860   4.223   5.922  1.0492  1.5196  0.2139
    3MOL   H307 1151   0.822   4.151   6.069  1.0916  0.2062  1.0476
    3MOL   H308 1152   1.025   3.892   6.060 -1.1962 -1.2738  1.8856
    3MOL   H309 1153   0.870   3.924   6.132 -1.3230 -0.5995  0.3161
    3MOL   H310 1154   0.884   3.798   6.022 -1.0618  0.2478  0.3447
    3MOL   H311 1155   0.710   3.876   5.871  0.5781 -0.5458  0.3522
    3MOL   H312 1156   0.679   3.997   5.992  0.2961  0.9132 -0.3156
    3MOL   H313 1157   0.696   4.037   5.817  0.2738 -0.5514 -0.9307
    3MOL   H314 1158   0.948   3.872   5.765 -2.3464 -0.1304 -0.8278
    3MOL   H315 1159   0.947   4.045   5.740 -2.0093 -0.8113  0.3172
    3MOL   H316 1160   1.075   3.972   5.835 -0.1600 -3.4709 -0.8523
    3MOL   C317 1161   1.028   4.287   6.162 -0.4117  0.0916  0.4971
    3MOL   C318 1162   0.971   4.243   6.300  0.0745 -0.3737 -0.3543
    3MOL   C319 1163   1.037   4.294   6.429 -0.2337 -0.1830 -0.2833
    3MOL   C320 1164   1.163   4.223   6.492 -0.3826  0.3272  0.0485
    3MOL   C321 1165   1.125   4.091   6.569 -0.2910 -0.8122  0.2069
    3MOL   C322 1166   1.226   4.313   6.598  0.0862  0.2257  0.0029
    3MOL   C323 1167   1.271   4.187   6.387 -0.5925  0.0966 -0.3666
    3MOL   H324 1168   1.132   4.318   6.178 -0.0735 -1.8955  2.4656
    3MOL   H325 1169   0.982   4.379   6.125  1.0878  0.2365 -1.1076
    3MOL   H326 1170   0.992   4.136   6.298 -1.1949 -0.6492  0.1226
    3MOL   H327 1171   0.959   4.308   6.504 -0.5464 -1.9562 -0.2510
    3MOL   H328 1172   1.063   4.397   6.405 -2.0790  0.6501  1.2170
    3MOL   H329 1173   1.064   4.119   6.655 -0.8036 -1.3968  0.0347
    3MOL   H330 1174   1.218   4.052   6.609  0.2505  1.5780  1.3885
    3MOL   H331 1175   1.076   4.015   6.509 -1.9086  1.0381 -0.9010
    3MOL   H332 1176   1.288   4.261   6.672  2.7548  0.1965 -2.1599
    3MOL   H333 1177   1.299   4.386   6.562  0.2688  0.1787  0.2787
    3MOL   H334 1178   1.154   4.363   6.663 -0.0190  1.6044 -1.1324
    3MOL   H335 1179   1.322   4.276   6.348 -0.1107 -0.4105 -0.9065
    3MOL   H336 1180   1.224   4.133   6.305  0.5572 -0.4417 -0.6769
    3MOL   H337 1181   1.346   4.116   6.422 -0.0101  0.1958 -1.3744
    3MOL   C338 1182   0.820   4.289   6.311  0.2495  0.0070  0.2287
    3MOL   C339 1183   0.726   4.203   6.398  0.6348 -0.1746  0.1844
    3MOL   C340 1184   0.687   4.073   6.318  0.2481  0.1718 -0.0014
    3MOL   C341 1185   0.619   3.954   6.381 -0.1211 -0.2871  0.2651
    3MOL   C342 1186   0.629   3.838   6.275 -0.4002 -0.2486  0.2613
    3MOL   C343 1187   0.686   3.914   6.508 -0.0658  0.7373 -0.4364
    3MOL   C344 1188   0.467   3.962   6.406 -0.9642 -0.6472 -0.6448
    3MOL   H345 1189   0.769   4.294   6.215  3.3461  0.3814 -1.4489
    3MOL   H346 1190   0.811   4.391   6.349  2.4940  0.1665  0.3763
    3MOL   H347 1191   0.773   4.164   6.489  0.9749 -1.4702 -0.5256
    3MOL   H348 1192   0.783   4.048   6.274 -0.2958 -1.0886 -0.4861
    3MOL   H349 1193   0.627   4.109   6.234  0.9528 -0.7781 -0.9182
    3MOL   H350 1194   0.571   3.747   6.291 -0.5930 -0.3725 -1.0792
    3MOL   H351 1195   0.594   3.874   6.179  0.0810  0.9972  0.5436
    3MOL   H352 1196   0.733   3.807   6.260 -0.7646 -1.0891 -0.6032
    3MOL   H353 1197   0.656   3.976   6.592 -0.1736  0.7880 -0.5142
    3MOL   H354 1198   0.656   3.811   6.527  0.5801  0.9267  1.7544
    3MOL   H355 1199   0.795   3.923   6.501  0.2599 -2.9842 -1.5841
    3MOL   H356 1200   0.421   3.865   6.423 -3.8000  0.3260 -2.4228
    3MOL   H357 1201   0.436   4.037   6.479 -3.0915 -0.7905 -1.3711
    3MOL   H358 1202   0.421   3.997   6.313 -1.4103 -0.4327 -0.3421
    3MOL   C359 1203   0.600   4.285   6.452 -0.2480  0.4536 -0.7707
    3MOL   C360 1204   0.627   4.382   6.575 -0.8093  0.7141 -0.0785
    3MOL   C361 1205   0.648   4.303   6.707 -0.1960 -0.2468  0.3591
    3MOL   C362 1206   0.726   4.371   6.829 -0.4629 -0.0104  0.8781
    3MOL   C363 1207   0.661   4.502   6.876 -0.5357  0.7137 -0.1765
    3MOL   C364 1208   0.868   4.403   6.792 -0.5527 -0.4067  0.1494
    3MOL   C365 1209   0.719   4.265   6.944 -0.0247 -0.4360  0.1748
    3MOL   H366 1210   0.534   4.211   6.496  1.8499 -0.0011  1.7611
    3MOL   H367 1211   0.539   4.318   6.368 -1.3725 -1.7645 -0.8387
    3MOL   H368 1212   0.721   4.432   6.551 -0.3223 -0.3205 -0.3185
    3MOL   H369 1213   0.553   4.255   6.732  1.2134 -3.7337 -0.7055
    3MOL   H370 1214   0.707   4.213   6.689  1.1069  0.4279  1.1877
    3MOL   H371 1215   0.558   4.473   6.898  0.6250 -0.9025  3.3625
    3MOL   H372 1216   0.700   4.546   6.968  0.2222  0.6540 -0.4673
    3MOL   H373 1217   0.669   4.585   6.805  0.5622 -0.1348 -1.0657
    3MOL   H374 1218   0.906   4.308   6.752 -0.1428 -0.0730 -0.2588
    3MOL   H375 1219   0.925   4.424   6.883 -1.2101  3.2844 -0.2382
    3MOL   H376 1220   0.891   4.481   6.720  1.2508 -0.8279  0.2335
    3MOL   H377 1221   0.620   4.220   6.949 -0.7199  0.6153 -2.7343
    3MOL   H378 1222   0.740   4.311   7.040  3.3612 -1.3206 -0.0809
    3MOL   H379 1223   0.797   4.191   6.928  1.2857  1.0697 -0.5778
    3MOL   C380 1224   0.513   4.487   6.585  0.1937 -0.5215 -0.6787
    3MOL   C381 1225   0.548   4.611   6.499 -0.0300 -0.3224  0.0605
    3MOL   C382 1226   0.659   4.698   6.554 -0.3523 -0.7720 -0.5545
    3MOL   C383 1227   0.761   4.769   6.456 -0.1186  0.2232  0.7029
    3MOL   C384 1228   0.849   4.658   6.392  0.6108 -0.6899  0.3622
    3MOL   C385 1229   0.855   4.852   6.547 -0.4775  0.5203 -0.1416
    3MOL   C386 1230   0.700   4.860   6.350  0.5680 -0.2804 -1.1079
    3MOL   H387 1231   0.493   4.509   6.690  0.2850 -0.2879 -0.7084
    3MOL   H388 1232   0.424   4.435   6.550 -1.9836  3.2703 -0.9908
    3MOL   H389 1233   0.583   4.579   6.401 -1.0545 -0.8320 -0.1512
    3MOL   H390 1234   0.621   4.763   6.633  0.9146 -0.4042 -0.2367
    3MOL   H391 1235   0.732   4.635   6.603  1.8563  1.9624 -0.2303
    3MOL   H392 1236   0.930   4.697   6.331 -0.0793  2.6763  1.4742
    3MOL   H393 1237   0.882   4.587   6.468 -0.3236  1.0973  2.5213
    3MOL   H394 1238   0.789   4.603   6.320 -0.0626 -1.1115  1.2363
    3MOL   H395 1239   0.922   4.920   6.495  0.5910 -0.9682 -0.7757
    3MOL   H396 1240   0.928   4.790   6.601 -0.0204  2.0733  1.0417
    3MOL   H397 1241   0.801   4.907   6.623  0.5659  1.1375  0.1564
    3MOL   H398 1242   0.645   4.794   6.282 -0.7747 -0.4528  0.1228
    3MOL   H399 1243   0.772   4.915   6.289  0.7795 -2.1468 -2.5995
    3MOL   H400 1244   0.623   4.924   6.392  2.0384  2.0642 -1.8840
    3MOL   C401 1245   0.421   4.703   6.486  0.4708 -0.3092  0.5842
    3MOL   C402 1246   0.316   4.653   6.386  0.2605 -0.0831  0.7523
    3MOL   C403 1247   0.188   4.741   6.378  0.3002 -0.4444  0.3927
    3MOL   C404 1248   0.062   4.683   6.302 -0.4791 -0.1586 -0.0093
    3MOL   C405 1249   7.705   4.780   6.312  0.4904  0.3122 -0.8255
    3MOL   C406 1250   0.020   4.546   6.361  0.1872  0.1468  0.8117
    3MOL   C407 1251   0.098   4.658   6.153 -0.0292  0.1505  0.1654
    3MOL   H408 1252   0.377   4.729   6.583  3.6888  2.3013  1.4173
    3MOL   H409 1253   0.450   4.802   6.451  0.4103 -0.4002  0.2786
    3MOL   H410 1254   0.366   4.656   6.289  1.9607  0.1523  1.6314
    3MOL   H411 1255   0.221   4.836   6.335 -0.6331 -0.4282 -0.2877
    3MOL   H412 1256   0.163   4.765   6.481 -0.9864  0.6681 -0.1564
    3MOL   H413 1257   7.632   4.750   6.236  2.0950  0.6416 -2.5527
    3MOL   H414 1258   7.733   4.885   6.302  1.8232  0.0024 -0.4315
    3MOL   H415 1259   7.660   4.777   6.411 -0.2357 -0.0773 -1.1623
    3MOL   H416 1260   0.092   4.464   6.355  0.2044  0.1971  0.3135
    3MOL   H417 1261   7.704   4.507   6.300  0.6896 -0.1320  0.3195
    3MOL   H418 1262   7.740   4.543   6.460  0.8144  0.6322  1.1114
    3MOL   H419 1263   0.007   4.646   6.093  0.4413 -0.4479 -0.4316
    3MOL   H420 1264   0.175   4.720   6.107 -1.5323  2.4220  0.6234
    3MOL   H421 1265   0.150   4.562   6.155  1.9346  1.2159  2.4726
    3MOL   H422 1266   0.291   4.549   6.407  0.8860 -0.7148 -1.4479
    4MOL     C1 1267   5.854   4.786   3.943 -0.3452 -0.4333 -0.2190
    4MOL     C2 1268   5.807   4.656   3.998  0.4946 -0.2161  0.0972
    4MOL     C3 1269   5.679   4.676   4.086  0.0978 -0.6008 -0.0655
    4MOL     C4 1270   5.550   4.610   4.028  0.3196  0.1181 -0.2304
    4MOL     C5 1271   5.579   4.458   4.015 -0.3019 -0.4028  0.2193
    4MOL     C6 1272   5.433   4.637   4.123 -0.0649 -0.6509  0.7560
    4MOL     C7 1273   5.508   4.663   3.883 -0.0307 -1.0543 -0.1510
    4MOL     H8 1274   5.896   4.850   4.020  2.0936 -0.7986 -1.1984
    4MOL     H9 1275   5.928   4.784   3.863  0.4714  0.2906  0.4963
    4MOL    H10 1276   5.787   4.600   3.907 -1.1075  2.0483 -0.9781
    4MOL    H11 1277   5.662   4.781   4.107  0.2381 -0.8610  1.4211
    4MOL    H12 1278   5.687   4.630   4.185 -0.3492  0.1165  0.3059
    4MOL    H13 1279   5.670   4.431   3.962 -0.7988  0.6444 -1.2028
    4MOL    H14 1280   5.492   4.403   3.980  0.3963 -0.4166 -1.5727
    4MOL    H15 1281   5.591   4.425   4.118 -2.0847 -0.8748  0.2953
    4MOL    H16 1282   5.412   4.743   4.129 -0.4810 -0.6956  0.1037
    4MOL    H17 1283   5.347   4.574   4.099  0.0996  0.3037 -2.5567
    4MOL    H18 1284   5.456   4.598   4.222  0.7588  2.2272  1.7287
    4MOL    H19 1285   5.566   4.620   3.801  0.4577 -0.3592 -0.1707
    4MOL    H20 1286   5.533   4.769   3.881  1.6240 -1.4070  0.6372
    4MOL    H21 1287   5.405   4.637   3.860  0.0476 -0.5405 -1.1095
    4MOL    H22 1288   5.778   4.834   3.881 -2.4504 -1.3229  1.6112
    4MOL    C23 1289   5.919   4.584   4.078 -0.0547  0.5476 -0.2648
    4MOL    C24 1290   6.051   4.566   3.997 -0.7706 -0.5376 -0.5722
    4MOL    C25 1291   6.038   4.427   3.924  0.1406 -0.2772  0.6211
    4MOL    C26 1292   6.078   4.411   3.776 -0.4512 -0.0673 -0.4739
    4MOL    C27 1293   5.999   4.507   3.693  0.7611  0.3349 -0.9304
    4MOL    C28 1294   6.228   4.436   3.752  0.4119  0.3112  1.1197
    4MOL    C29 1295   6.051   4.271   3.730 -0.3722  0.6059  0.4400
    4MOL    H30 1296   5.932   4.658   4.157  0.1221 -0.0557  0.2764
    4MOL    H31 1297   5.886   4.488   4.117 -0.1907  0.2147 -1.1866
    4MOL    H32 1298   6.076   4.644   3.925  1.6736 -1.2562 -0.5756
    4MOL    H33 1299   5.937   4.391   3.944  0.8285 -2.6425 -0.0602
    4MOL    H34 1300   6.095   4.352   3.978  1.2085 -0.7710 -1.1554
    4MOL    H35 1301   5.892   4.494   3.710  1.1206  0.1219  1.4335
    4MOL    H36 1302   6.024   4.613   3.697  0.8163  0.2661  1.2207
    4MOL    H37 1303   6.014   4.483   3.588 -0.9993  2.2412 -1.6369
    4MOL    H38 1304   6.282   4.359   3.806  0.0769 -3.2554 -3.2931
    4MOL    H39 1305   6.240   4.422   3.644  0.4275 -1.3472  1.3180
    4MOL    H40 1306   6.261   4.537   3.774 -0.2576  0.2624  2.3896
    4MOL    H41 1307   6.097   4.235   3.638 -0.5418  0.6201  0.3491
    4MOL    H42 1308   5.944   4.251   3.727 -0.7628  2.5142  0.8048
    4MOL    H43 1309   6.076   4.195   3.803  0.4099 -1.6104 -2.0642
    4MOL    C44 1310   6.174   4.566   4.092 -0.2479  0.5137 -0.7876
    4MOL    C45 1311   6.213   4.701   4.156 -0.6895 -0.1110  0.8204
    4MOL    C46 1312   6.320   4.765   4.061  0.3535  0.6521 -0.8457
    4MOL    C47 1313   6.314   4.918   4.059  0.2259  0.9345 -0.4676
    4MOL    C48 1314   6.331   4.989   4.194 -0.2509 -0.9523  0.2325
    4MOL    C49 1315   6.183   4.974   4.000 -0.4366  0.2516  0.0284
    4MOL    C50 1316   6.428   4.974   3.969 -0.1062  0.0324 -0.3725
    4MOL    H51 1317   6.151   4.491   4.168 -0.1516  0.0961 -1.1743
    4MOL    H52 1318   6.264   4.522   4.050 -0.5972 -2.5341  1.5212
    4MOL    H53 1319   6.123   4.761   4.167 -0.9041 -0.3493  0.3921
    4MOL    H54 1320   6.316   4.724   3.960  1.8993 -2.0850  0.1413
    4MOL    H55 1321   6.420   4.739   4.096  0.1405 -1.0804 -1.4823
    4MOL    H56 1322   6.422   4.962   4.248  1.5499  1.4264 -1.5183
    4MOL    H57 1323   6.242   4.973   4.256 -1.1034 -1.3971 -1.0840
    4MOL    H58 1324   6.348   5.096   4.182 -1.7114 -0.6645  0.6290
    4MOL    H59 1325   6.176   5.076   3.963 -2.6112  0.0377 -0.1945
    4MOL    H60 1326   6.158   4.912   3.914 -0.2682  1.9491 -1.2871
    4MOL    H61 1327   6.102   4.972   4.073 -0.6592  2.8723 -0.0921
    4MOL    H62 1328   6.406   4.930   3.872  0.9728 -0.9379 -0.1912
    4MOL    H63 1329   6.423   5.081   3.951 -3.2781  0.2198  1.3118
    4MOL    H64 1330   6.530   4.946   3.998  0.6791  0.5278 -2.4979
    4MOL    C65 1331   6.255   4.673   4.296 -0.5000  0.4730  0.3903
    4MOL    C66 1332   6.161   4.665   4.418  0.6556  0.2614 -1.1431
    4MOL    C67 1333   6.098   4.805   4.453 -0.3993  0.3436 -0.3630
    4MOL    C68 1334   5.958   4.818   4.507  0.6780  0.5418 -0.0511
    4MOL    C69 1335   5.849   4.773   4.396  0.0354 -0.8473 -0.3480
    4MOL    C70 1336   5.941   4.740   4.635  0.3519 -0.3871  0.2233
    4MOL    C71 1337   5.931   4.966   4.545 -0.3611 -0.0476  0.0645
    4MOL    H72 1338   6.318   4.584   4.293  0.0312  0.8816 -0.7580
    4MOL    H73 1339   6.324   4.753   4.324  0.7335 -0.2652 -0.4826
    4MOL    H74 1340   6.077   4.596   4.407  0.3282  0.1982  1.4294
    4MOL    H75 1341   6.096   4.859   4.359  0.9097  2.1902  0.6419
    4MOL    H76 1342   6.166   4.856   4.521  0.6951 -0.6289 -0.7044
    4MOL    H77 1343   5.856   4.669   4.364  0.8324 -0.8737 -0.0992
    4MOL    H78 1344   5.746   4.792   4.426  0.2753  3.5866 -1.9379
    4MOL    H79 1345   5.854   4.832   4.304 -1.3284  1.0943  0.7896
    4MOL    H80 1346   6.026   4.759   4.700 -0.2253 -0.0665  0.8957
    4MOL    H81 1347   5.922   4.634   4.621  1.6153 -0.4249 -1.3014
    4MOL    H82 1348   5.852   4.779   4.686  0.6325  1.9543 -1.0126
    4MOL    H83 1349   5.952   5.028   4.459  0.6628  2.1158  1.8203
    4MOL    H84 1350   6.003   4.992   4.623  1.3305 -1.0797 -1.1059
    4MOL    H85 1351   5.832   4.984   4.588 -0.8394  0.5691 -1.2813
    4MOL    C86 1352   6.244   4.603   4.538 -0.0410 -0.3396 -0.4542
    4MOL    C87 1353   6.307   4.456   4.533  0.4933 -0.8541  0.8364
    4MOL    C88 1354   6.195   4.347   4.481 -1.0811  0.2905  0.2581
    4MOL    C89 1355   6.238   4.202   4.441 -0.1429  0.5836  0.2430
    4MOL    C90 1356   6.263   4.110   4.556  0.2054  0.2740  0.6412
    4MOL    C91 1357   6.363   4.208   4.346  0.0085 -0.2512  1.2179
    4MOL    C92 1358   6.121   4.138   4.362 -0.2126 -0.2640 -0.1145
    4MOL    H93 1359   6.181   4.602   4.627  1.9907  0.9994  1.0331
    4MOL    H94 1360   6.325   4.676   4.543 -1.6247  1.2865  2.7579
    4MOL    H95 1361   6.393   4.466   4.467  0.2343  2.0787  0.8811
    4MOL    H96 1362   6.156   4.387   4.387  0.5813 -0.4990 -0.7923
    4MOL    H97 1363   6.115   4.345   4.555 -2.3419 -1.5017 -1.1078
    4MOL    H98 1364   6.267   4.007   4.521 -1.2797 -0.1797  1.7581
    4MOL    H99 1365   6.204   4.122   4.646  0.8683  0.7826  1.0117
    4MOL   H100 1366   6.364   4.121   4.596  0.4488 -0.3800  0.2136
    4MOL   H101 1367   6.350   4.284   4.268 -1.9812 -0.1505  1.6280
    4MOL   H102 1368   6.446   4.239   4.409 -1.5102 -0.6320  3.4266
    4MOL   H103 1369   6.394   4.116   4.297 -2.1927 -0.2703 -0.2184
    4MOL   H104 1370   6.160   4.042   4.327  0.5005  0.0957 -0.3210
    4MOL   H105 1371   6.027   4.133   4.416 -0.5856 -1.3346 -0.8361
    4MOL   H106 1372   6.105   4.192   4.269 -1.6123 -0.5788 -0.0572
    4MOL   C107 1373   6.363   4.420   4.674  0.3727  0.1006 -0.0335
    4MOL   C108 1374   6.499   4.492   4.698 -0.0838  0.1119 -0.0001
    4MOL   C109 1375   6.518   4.525   4.853  0.0341 -0.4283 -0.1517
    4MOL   C110 1376   6.427   4.640   4.914 -0.3453 -0.2997  0.4271
    4MOL   C111 1377   6.493   4.676   5.055 -0.4001 -0.2922  0.2191
    4MOL   C112 1378   6.281   4.604   4.950 -0.1951 -0.1824  0.4379
    4MOL   C113 1379   6.418   4.768   4.829  0.6862 -0.4620  0.3330
    4MOL   H114 1380   6.360   4.312   4.685 -0.8070  0.2150  0.8847
    4MOL   H115 1381   6.295   4.458   4.751  1.8440  0.2992  1.1904
    4MOL   H116 1382   6.497   4.588   4.646 -2.1759 -0.4516 -1.0000
    4MOL   H117 1383   6.503   4.437   4.915 -1.9035  0.3083  0.4889
    4MOL   H118 1384   6.618   4.562   4.876  0.2737 -2.2616  1.8807
    4MOL   H119 1385   6.596   4.711   5.061 -0.6900  0.3314  1.6926
    4MOL   H120 1386   6.431   4.753   5.100 -0.4912 -1.0477  1.4138
    4MOL   H121 1387   6.482   4.587   5.117 -1.8371 -0.7950 -0.7205
    4MOL   H122 1388   6.218   4.603   4.861  0.7718  1.9040 -0.2750
    4MOL   H123 1389   6.230   4.679   5.010  1.8568  2.3492 -0.9151
    4MOL   H124 1390   6.268   4.507   4.999  2.3096 -0.7759 -0.0033
    4MOL   H125 1391   6.349   4.755   4.746  1.1411 -0.8592  0.0105
    4MOL   H126 1392   6.515   4.783   4.782  0.1008  0.8304 -0.4779
    4MOL   H127 1393   6.386   4.854   4.888  0.0621 -0.1674 -0.4383
    4MOL   C128 1394   6.616   4.409   4.639 -0.3575  0.5940  0.0176
    4MOL   C129 1395   6.738   4.491   4.590  0.0835 -0.2178  0.4038
    4MOL   C130 1396   6.864   4.402   4.562 -0.8422 -0.5452 -0.0014
    4MOL   C131 1397   6.995   4.426   4.631  0.4253 -0.8952  0.0849
    4MOL   C132 1398   6.977   4.409   4.784  0.6158 -0.0657 -0.1082
    4MOL   C133 1399   7.055   4.565   4.600  0.5154  0.1107 -0.0595
    4MOL   C134 1400   7.111   4.332   4.588  0.2483 -0.3116 -0.5375
    4MOL   H135 1401   6.572   4.355   4.555 -1.6419  0.4269  0.7806
    4MOL   H136 1402   6.655   4.336   4.709  0.1461 -2.0171 -2.8869
    4MOL   H137 1403   6.762   4.557   4.674 -0.9263 -2.9212  2.9301
    4MOL   H138 1404   6.840   4.298   4.585  1.7292 -1.0872  0.3522
    4MOL   H139 1405   6.891   4.385   4.458  0.7959 -1.3500  0.5507
    4MOL   H140 1406   7.066   4.426   4.845  0.6100  2.1043 -0.6568
    4MOL   H141 1407   6.942   4.306   4.796 -0.5529  0.3552  0.1283
    4MOL   H142 1408   6.891   4.469   4.814 -0.2072 -0.5407 -1.4760
    4MOL   H143 1409   6.985   4.643   4.630 -1.4697 -1.2263 -1.0738
    4MOL   H144 1410   7.077   4.578   4.494 -1.0210  1.5317 -0.2180
    4MOL   H145 1411   7.144   4.584   4.659  0.0438  1.1959  0.3068
    4MOL   H146 1412   7.079   4.228   4.590 -0.7218 -0.0133  2.4683
    4MOL   H147 1413   7.131   4.363   4.485  0.7408 -1.8357 -0.9011
    4MOL   H148 1414   7.196   4.343   4.655  1.1317  0.2074 -1.7138
    4MOL   C149 1415   6.691   4.567   4.466  0.0083 -0.1640  0.5504
    4MOL   C150 1416   6.750   4.703   4.419  0.5198 -0.3755 -0.6246
    4MOL   C151 1417   6.724   4.745   4.270 -0.6518  0.5314 -0.1435
    4MOL   C152 1418   6.784   4.655   4.155 -0.0720  0.4711 -0.5588
    4MOL   C153 1419   6.821   4.731   4.022  0.3296 -0.4751 -0.4203
    4MOL   C154 1420   6.691   4.540   4.120  0.5345  0.3005  0.3228
    4MOL   C155 1421   6.925   4.599   4.190  0.2223 -0.1543  0.1344
    4MOL   H156 1422   6.584   4.582   4.462 -0.3392 -2.1754  1.6010
    4MOL   H157 1423   6.717   4.499   4.384  0.8101  0.6831  0.0867
    4MOL   H158 1424   6.857   4.725   4.426  0.4929 -0.1862 -0.8117
    4MOL   H159 1425   6.750   4.850   4.261  0.5745  0.1053 -1.8087
    4MOL   H160 1426   6.616   4.757   4.256 -0.6711 -0.0674 -0.5163
    4MOL   H161 1427   6.892   4.814   4.019 -0.8213  0.5504  0.1045
    4MOL   H162 1428   6.856   4.666   3.942  0.2406 -1.2335  0.1585
    4MOL   H163 1429   6.730   4.782   3.991 -0.5875 -0.1293  2.6783
    4MOL   H164 1430   6.592   4.582   4.103  0.6244  0.1292 -0.6504
    4MOL   H165 1431   6.680   4.455   4.188 -1.2422 -1.2202 -1.7735
    4MOL   H166 1432   6.720   4.490   4.028  0.2653  0.7081  0.0193
    4MOL   H167 1433   7.001   4.674   4.214  0.1935  0.0435 -0.3733
    4MOL   H168 1434   6.917   4.527   4.271  0.1932  0.5794  0.7859
    4MOL   H169 1435   6.968   4.536   4.112 -0.7081 -0.3138 -0.2588
    4MOL   C170 1436   6.689   4.809   4.518 -0.6630  0.0009 -0.4390
    4MOL   C171 1437   6.779   4.932   4.554 -0.3466 -1.0833  0.2360
    4MOL   C172 1438   6.761   4.985   4.698 -0.4970  0.2868  0.0452
    4MOL   C173 1439   6.841   4.926   4.815  0.1736 -0.2362 -0.0541
    4MOL   C174 1440   6.783   4.995   4.945 -0.1267 -0.0983 -0.6147
    4MOL   C175 1441   6.991   4.963   4.811  0.8513  0.0468  0.7206
    4MOL   C176 1442   6.829   4.772   4.844 -0.6347 -0.1820 -0.3497
    4MOL   H177 1443   6.670   4.757   4.612  2.1963  1.0650  0.8036
    4MOL   H178 1444   6.590   4.844   4.489 -2.4210 -1.3993  3.4944
    4MOL   H179 1445   6.881   4.895   4.563  0.4966  1.3546  1.5454
    4MOL   H180 1446   6.780   5.093   4.701 -0.1633  0.3007 -2.0985
    4MOL   H181 1447   6.655   4.968   4.714 -0.5374 -0.0559 -0.5720
    4MOL   H182 1448   6.845   4.965   5.030  1.3854  1.0839 -1.2693
    4MOL   H183 1449   6.791   5.103   4.941  1.0674 -0.1914 -0.9767
    4MOL   H184 1450   6.685   4.953   4.965  0.0926 -0.0527  0.6094
    4MOL   H185 1451   7.037   4.930   4.717 -1.1073  1.2672 -0.7004
    4MOL   H186 1452   6.995   5.072   4.815 -0.2265  0.1842 -1.2429
    4MOL   H187 1453   7.039   4.920   4.899  0.2756 -0.1874  0.9168
    4MOL   H188 1454   6.722   4.751   4.849 -0.8302  0.1582 -2.5450
    4MOL   H189 1455   6.855   4.713   4.757  1.1530 -0.2028  0.1725
    4MOL   H190 1456   6.888   4.733   4.927 -0.4717  0.5952 -0.0953
    4MOL   C191 1457   6.759   5.050   4.453  0.2904  0.1350 -0.6050
    4MOL   C192 1458   6.897   5.112   4.414 -0.9584  0.3922 -0.4839
    4MOL   C193 1459   6.872   5.252   4.344  0.2775 -1.0537  0.0176
    4MOL   C194 1460   6.882   5.375   4.440  0.6160 -0.4395  0.0250
    4MOL   C195 1461   7.027   5.390   4.487  0.0506  0.5010 -0.2891
    4MOL   C196 1462   6.782   5.374   4.557 -0.5602  0.5134  0.5003
    4MOL   C197 1463   6.848   5.484   4.341 -0.5766 -0.4946  0.3516
    4MOL   H198 1464   6.696   5.019   4.369 -1.7006  1.1280  0.4808
    4MOL   H199 1465   6.688   5.116   4.503  0.1627 -1.1222  0.9171
    4MOL   H200 1466   6.953   5.132   4.505 -0.8967 -1.4037 -0.1267
    4MOL   H201 1467   6.772   5.252   4.302 -0.1271 -1.6585  0.9517
    4MOL   H202 1468   6.940   5.270   4.261  0.4544  1.2931  0.6507
    4MOL   H203 1469   7.091   5.365   4.403 -0.4275  0.1222 -0.5388
    4MOL   H204 1470   7.052   5.488   4.529 -2.7853  1.0259  0.3024
    4MOL   H205 1471   7.053   5.322   4.568 -0.3470 -1.0339 -1.4291
    4MOL   H206 1472   6.682   5.358   4.516  0.6762 -2.1938 -1.5944
    4MOL   H207 1473   6.801   5.293   4.628  0.1681 -0.6331 -0.9769
    4MOL   H208 1474   6.781   5.463   4.619 -2.6324  0.3742  0.7070
    4MOL   H209 1475   6.861   5.580   4.391  0.7026 -1.6883  2.3700
    4MOL   H210 1476   6.915   5.478   4.256 -0.0463  0.3460  0.7017
    4MOL   H211 1477   6.747   5.484   4.300 -0.3637 -3.0711 -0.2683
    4MOL   C212 1478   6.980   5.018   4.319  0.3116 -0.0480 -0.5504
    4MOL   C213 1479   7.133   5.044   4.308 -0.0023  0.0718  0.7308
    4MOL   C214 1480   7.192   4.963   4.186 -0.7055 -0.7440  0.3528
    4MOL   C215 1481   7.213   5.017   4.040 -0.3518 -0.2875 -0.0200
    4MOL   C216 1482   7.313   5.129   4.043 -0.0122 -0.7306  0.7979
    4MOL   C217 1483   7.255   4.897   3.951 -1.0221  0.3473  0.5661
    4MOL   C218 1484   7.073   5.076   3.993 -0.1711  0.5098 -0.8128
    4MOL   H219 1485   6.965   4.916   4.355 -2.8368 -0.2331 -2.1737
    4MOL   H220 1486   6.929   4.996   4.225 -1.4453  0.1814  0.3277
    4MOL   H221 1487   7.164   5.147   4.289 -0.7157  0.1130 -0.2834
    4MOL   H222 1488   7.119   4.885   4.161  0.2279 -1.2129 -1.0056
    4MOL   H223 1489   7.285   4.915   4.215 -0.7576 -0.2859  1.2653
    4MOL   H224 1490   7.279   5.211   4.107 -0.4633  0.1858 -0.5835
    4MOL   H225 1491   7.339   5.173   3.946  3.1255  0.3193  2.0360
    4MOL   H226 1492   7.405   5.086   4.083 -0.2076 -0.1293  1.9241
    4MOL   H227 1493   7.358   4.865   3.970 -1.2951 -1.0068 -0.2030
    4MOL   H228 1494   7.201   4.803   3.945 -0.6693  0.1935 -0.3903
    4MOL   H229 1495   7.256   4.929   3.846  1.3018 -0.9552  0.1453
    4MOL   H230 1496   7.025   5.143   4.065 -0.8823  0.0939 -0.8896
    4MOL   H231 1497   6.998   4.998   4.001 -1.3786  1.4102 -3.0024
    4MOL   H232 1498   7.074   5.128   3.897 -1.6607  1.7666 -0.1761
    4MOL   C233 1499   7.193   4.993   4.445 -0.3944  0.0213 -0.5229
    4MOL   C234 1500   7.347   5.005   4.476 -0.0652  0.2522  0.3161
    4MOL   C235 1501   7.378   5.155   4.507 -0.9268 -0.8359 -0.4055
    4MOL   C236 1502   7.515   5.220   4.507 -0.1790 -0.2057 -0.2895
    4MOL   C237 1503   7.608   5.159   4.614 -0.8906 -0.1329  0.5262
    4MOL   C238 1504   7.579   5.193   4.371  0.3312  0.0515  0.2334
    4MOL   C239 1505   7.507   5.372   4.543  0.4186  0.2148 -0.8579
    4MOL   H240 1506   7.164   4.888   4.450  0.4784 -0.3114 -2.1798
    4MOL   H241 1507   7.148   5.049   4.527  1.4822 -1.8786  1.8843
    4MOL   H242 1508   7.412   4.985   4.391 -0.2320 -1.6158  0.6011
    4MOL   H243 1509   7.319   5.222   4.444 -0.4241 -0.4074 -0.4182
    4MOL   H244 1510   7.346   5.182   4.608 -1.7724 -0.3288 -0.8008
    4MOL   H245 1511   7.708   5.201   4.621 -0.4082 -1.0888 -0.3201
    4MOL   H246 1512   7.621   5.052   4.596 -3.4323 -0.1052 -1.8283
    4MOL   H247 1513   7.575   5.165   4.718  2.1692  4.2070  1.3474
    4MOL   H248 1514   7.517   5.197   4.281 -1.3360 -0.0757  1.3546
    4MOL   H249 1515   7.669   5.253   4.359 -0.6805  1.4554 -0.4043
    4MOL   H250 1516   7.606   5.088   4.371  0.6506  0.1338  0.3163
    4MOL   H251 1517   7.598   5.430   4.530  1.4853 -1.0947  0.5217
    4MOL   H252 1518   7.433   5.427   4.486 -1.3677 -0.2815  0.9169
    4MOL   H253 1519   7.486   5.377   4.650 -1.6178 -2.5790 -1.0724
    4MOL   C254 1520   7.380   4.906   4.586  0.2667  0.2814 -0.5701
    4MOL   C255 1521   7.467   4.784   4.540 -0.7374 -0.7280 -0.1147
    4MOL   C256 1522   7.393   4.698   4.441 -0.0038  0.1328  0.6783
    4MOL   C257 1523   7.472   4.604   4.337  0.2880  0.2566  0.5784
    4MOL   C258 1524   7.572   4.692   4.251  0.2165 -0.2842  0.1142
    4MOL   C259 1525   7.368   4.548   4.239 -0.4381 -0.7268  0.1033
    4MOL   C260 1526   7.550   4.491   4.399 -0.1019 -0.1264 -0.0750
    4MOL   H261 1527   7.288   4.872   4.634  0.4016  1.9179  0.8746
    4MOL   H262 1528   7.437   4.958   4.663  0.5782  0.4878 -0.9393
    4MOL   H263 1529   7.548   4.830   4.483 -2.7999  2.0871 -0.9049
    4MOL   H264 1530   7.333   4.627   4.499  0.0423 -0.7492 -0.3484
    4MOL   H265 1531   7.321   4.751   4.379 -0.8144 -1.1143  0.5293
    4MOL   H266 1532   7.510   4.778   4.225  2.1182  1.1324  0.0938
    4MOL   H267 1533   7.599   4.641   4.159  1.2059  0.8887 -0.2654
    4MOL   H268 1534   7.667   4.719   4.298  0.2652  0.9718 -0.6650
    4MOL   H269 1535   7.321   4.625   4.177  0.5337  0.3482  0.7119
    4MOL   H270 1536   7.288   4.498   4.294 -1.0103  0.1493  0.0658
    4MOL   H271 1537   7.411   4.481   4.164  1.1461 -1.1730  1.3985
    4MOL   H272 1538   7.631   4.530   4.460 -0.7042  0.7254  0.1857
    4MOL   H273 1539   7.493   4.417   4.456 -2.6749 -0.8136 -3.3831
    4MOL   H274 1540   7.610   4.442   4.322 -0.4587  0.4046 -0.6875
    4MOL   C275 1541   7.541   4.722   4.665  0.7794  0.2166 -0.2437
    4MOL   C276 1542   7.671   4.774   4.711 -0.1415 -0.4037 -1.1487
    4MOL   C277 1543   7.691   4.733   4.860 -0.5582 -0.0534  0.0283
    4MOL   C278 1544   7.672   4.853   4.958 -0.5201  1.0354 -0.1880
    4MOL   C279 1545   0.028   4.944   4.938  0.1382  0.1132  0.0064
    4MOL   C280 1546   7.536   4.932   4.943  0.2002  1.0198 -0.0461
    4MOL   C281 1547   7.684   4.799   5.106 -0.0110 -0.2246  0.3391
    4MOL   H282 1548   7.467   4.734   4.744  1.4121  1.7112  0.1318
    4MOL   H283 1549   7.538   4.615   4.645  1.4941  0.0405  0.5653
    4MOL   H284 1550   7.653   4.881   4.705 -0.1565 -0.4219 -1.4167
    4MOL   H285 1551   0.025   4.696   4.879 -0.1898  0.9782  0.0970
    4MOL   H286 1552   7.623   4.649   4.874 -0.0588 -0.3614  0.6327
    4MOL   H287 1553   0.113   4.877   4.924  0.0761  0.0598 -0.1151
    4MOL   H288 1554   0.020   5.001   4.845  0.1351 -0.2967 -0.2478
    4MOL   H289 1555   0.062   5.012   5.016  2.4227  0.4557 -1.2440
    4MOL   H290 1556   7.556   4.987   4.851 -1.4277 -1.4347 -1.9184
    4MOL   H291 1557   7.521   5.017   5.010 -0.1022  1.5000 -0.7203
    4MOL   H292 1558   7.457   4.859   4.927  0.5093  1.0377 -1.7755
    4MOL   H293 1559   0.024   4.784   5.126  0.1478 -0.0779 -0.3567
    4MOL   H294 1560   7.640   4.701   5.122 -0.1238 -0.2209  0.0649
    4MOL   H295 1561   7.662   4.872   5.184 -1.4437 -1.1069  0.7763
    4MOL   C296 1562   0.018   4.718   4.618  0.0596 -0.0681 -0.3697
    4MOL   C297 1563   0.159   4.784   4.614  0.4592 -0.5173  0.0318
    4MOL   C298 1564   0.153   4.933   4.569  0.0227  0.9031  0.2074
    4MOL   C299 1565   0.283   5.019   4.578 -0.1980 -0.3351 -1.0358
    4MOL   C300 1566   0.248   5.160   4.628 -0.3511  1.7897 -0.1808
    4MOL   C301 1567   0.389   4.971   4.686  0.0598 -0.3825  0.4313
    4MOL   C302 1568   0.351   5.037   4.436  1.1572  0.2894 -0.4042
    4MOL   H303 1569   7.742   4.737   4.519 -3.5612  0.2373  1.1280
    4MOL   H304 1570   0.012   4.613   4.648  0.9207  0.5862  2.1626
    4MOL   H305 1571   0.208   4.781   4.711  2.7641 -0.1004 -1.0855
    4MOL   H306 1572   0.071   4.977   4.625 -1.1159  0.3629 -1.0101
    4MOL   H307 1573   0.110   4.938   4.468 -0.9479 -0.3484  0.5464
    4MOL   H308 1574   0.172   5.210   4.568 -1.9664 -0.7963 -0.3900
    4MOL   H309 1575   0.214   5.164   4.731  0.8664 -3.5460  0.5620
    4MOL   H310 1576   0.338   5.220   4.618  1.6384 -0.8156  1.5737
    4MOL   H311 1577   0.466   5.048   4.683  0.8312 -0.9699  3.4439
    4MOL   H312 1578   0.353   4.973   4.789  0.3471  0.4905  0.5170
    4MOL   H313 1579   0.443   4.879   4.664 -2.0890 -1.6732  0.4567
    4MOL   H314 1580   0.453   5.073   4.449  1.1734  0.5502 -1.2418
    4MOL   H315 1581   0.363   4.949   4.373 -0.1034  0.8611 -1.4685
    4MOL   H316 1582   0.312   5.119   4.376  1.5260  2.1567  1.8050
    4MOL   C317 1583   0.244   4.709   4.520 -0.3855  0.3026  0.8105
    4MOL   C318 1584   0.277   4.566   4.559 -0.3117  0.0357 -0.9320
    4MOL   C319 1585   0.376   4.490   4.466 -0.6335  0.4346 -0.3695
    4MOL   C320 1586   0.379   4.504   4.308 -0.1688 -0.7684 -0.5459
    4MOL   C321 1587   0.480   4.400   4.261  0.5242  0.1299 -0.1964
    4MOL   C322 1588   0.425   4.636   4.249 -0.3685 -0.4127  0.0003
    4MOL   C323 1589   0.245   4.464   4.241  0.3240 -0.5220  0.1448
    4MOL   H324 1590   0.199   4.696   4.422  0.7476  0.3903  0.2773
    4MOL   H325 1591   0.336   4.762   4.499 -0.4656  0.1671  0.1166
    4MOL   H326 1592   0.185   4.510   4.543 -1.0907  1.0326 -0.1052
    4MOL   H327 1593   0.364   4.382   4.471 -3.6676  0.5884 -2.6131
    4MOL   H328 1594   0.473   4.522   4.503 -0.7704 -0.9086  1.1705
    4MOL   H329 1595   0.462   4.303   4.309  0.4610  1.2328  2.0658
    4MOL   H330 1596   0.586   4.420   4.278  0.5405  0.7904 -1.0156
    4MOL   H331 1597   0.468   4.380   4.154 -0.4611  2.4364 -0.5490
    4MOL   H332 1598   0.435   4.635   4.140 -0.4690 -0.6329 -0.0082
    4MOL   H333 1599   0.352   4.716   4.263 -1.9622 -1.9520  0.7769
    4MOL   H334 1600   0.525   4.656   4.288 -0.7470 -0.6947  1.1445
    4MOL   H335 1601   0.162   4.533   4.256 -1.7646 -2.7014 -1.1391
    4MOL   H336 1602   0.228   4.360   4.267 -1.1162 -0.0848  1.0416
    4MOL   H337 1603   0.262   4.475   4.134 -0.0543 -1.8212 -0.0592
    4MOL   C338 1604   0.311   4.542   4.712  0.4627 -0.4452 -0.6157
    4MOL   C339 1605   0.311   4.389   4.761 -0.0739  0.2129 -0.1217
    4MOL   C340 1606   0.164   4.336   4.774  0.2567 -0.6197  0.0747
    4MOL   C341 1607   0.130   4.198   4.711  0.4253 -0.3029  0.5856
    4MOL   C342 1608   0.124   4.210   4.561 -0.5692  0.6692  0.1627
    4MOL   C343 1609   0.223   4.089   4.753 -0.5227 -0.2713  0.0517
    4MOL   C344 1610   7.755   4.149   4.756 -0.4754 -0.0942 -0.1863
    4MOL   H345 1611   0.232   4.588   4.771  2.1999  1.6253  0.1364
    4MOL   H346 1612   0.407   4.585   4.740 -0.5558  0.9217  0.8150
    4MOL   H347 1613   0.363   4.329   4.686  1.1416 -5.0433  4.5986
    4MOL   H348 1614   0.096   4.415   4.743  2.1155  0.9080 -0.2324
    4MOL   H349 1615   0.134   4.329   4.878  1.6330  0.7864  0.5850
    4MOL   H350 1616   0.041   4.275   4.531 -2.5720 -0.9252  2.0365
    4MOL   H351 1617   0.217   4.252   4.524 -0.6779 -0.3315 -1.3021
    4MOL   H352 1618   0.104   4.114   4.512  0.1385 -0.1917  1.5177
    4MOL   H353 1619   0.216   3.983   4.731  0.4753 -0.4082  0.3216
    4MOL   H354 1620   0.330   4.112   4.753 -0.7558  0.9194  1.9940
    4MOL   H355 1621   0.206   4.102   4.860 -0.1843  0.7295 -0.0081
    4MOL   H356 1622   7.743   4.043   4.731  0.4981 -0.3717  0.5251
    4MOL   H357 1623   7.746   4.155   4.864  2.2050 -0.1882  0.0548
    4MOL   H358 1624   7.667   4.205   4.723 -1.4494 -1.4892  0.0050
    4MOL   C359 1625   0.373   4.375   4.904  0.2615  0.6820 -0.2143
    4MOL   C360 1626   0.519   4.414   4.929  0.0661 -0.3141  0.5934
    4MOL   C361 1627   0.623   4.316   4.857 -0.0680  0.4058 -0.3804
    4MOL   C362 1628   0.751   4.374   4.804  0.4660  0.1818  0.1771
    4MOL   C363 1629   0.813   4.268   4.716  0.0251 -0.3003  0.5383
    4MOL   C364 1630   0.848   4.424   4.905  0.2611  0.3022 -0.1406
    4MOL   C365 1631   0.720   4.484   4.703  0.1735 -0.6766 -0.6663
    4MOL   H366 1632   0.373   4.268   4.927  1.4764  0.7147 -0.0797
    4MOL   H367 1633   0.302   4.417   4.976 -1.9076  0.4075 -2.1249
    4MOL   H368 1634   0.536   4.516   4.896  1.6884 -1.0841 -1.0462
    4MOL   H369 1635   0.626   4.225   4.917 -0.0063  0.5183 -0.2108
    4MOL   H370 1636   0.574   4.296   4.761 -0.6959  1.3519 -0.2616
    4MOL   H371 1637   0.741   4.241   4.638  0.6508  0.8015 -0.4353
    4MOL   H372 1638   0.917   4.283   4.686 -0.5032  0.6314 -0.8434
    4MOL   H373 1639   0.815   4.178   4.777  2.2209 -1.5350 -1.2592
    4MOL   H374 1640   0.889   4.334   4.951 -1.6201 -2.1067 -3.0079
    4MOL   H375 1641   0.819   4.493   4.984  1.2830  0.8004 -0.2003
    4MOL   H376 1642   0.930   4.469   4.850  0.5116 -0.9695 -0.8371
    4MOL   H377 1643   0.804   4.533   4.654  0.4654  0.9030  1.3572
    4MOL   H378 1644   0.677   4.565   4.761 -3.5412 -1.4178 -2.2639
    4MOL   H379 1645   0.650   4.457   4.624  1.0496  1.5084 -2.2233
    4MOL   C380 1646   0.554   4.417   5.078  0.1273 -0.6293 -0.1209
    4MOL   C381 1647   0.490   4.529   5.170 -0.0589  0.0736 -0.7638
    4MOL   C382 1648   0.547   4.670   5.137  0.2300  0.5192 -0.0319
    4MOL   C383 1649   0.439   4.783   5.110 -0.3456 -0.1295 -0.2901
    4MOL   C384 1650   0.365   4.756   4.975  0.1306 -0.4670 -0.2390
    4MOL   C385 1651   0.514   4.913   5.092  0.7379 -0.2168  0.1066
    4MOL   C386 1652   0.342   4.795   5.217 -0.3399  0.1427  0.2873
    4MOL   H387 1653   0.658   4.433   5.105 -0.6068  1.8123  1.4540
    4MOL   H388 1654   0.533   4.319   5.119 -2.1250 -0.4652 -0.8171
    4MOL   H389 1655   0.381   4.536   5.174  0.0792  1.2243  1.8895
    4MOL   H390 1656   0.603   4.705   5.223  1.8119 -1.6799 -0.1327
    4MOL   H391 1657   0.610   4.664   5.049  0.7712  0.8609  0.3281
    4MOL   H392 1658   0.437   4.737   4.896  0.5260  0.4672 -0.1051
    4MOL   H393 1659   0.306   4.664   4.982  0.6884 -0.8051  0.0417
    4MOL   H394 1660   0.312   4.841   4.931 -0.1459 -1.7158 -2.3850
    4MOL   H395 1661   0.580   4.916   5.005  0.2481  2.2464 -0.2280
    4MOL   H396 1662   0.578   4.935   5.178  0.1378 -0.2238  0.5610
    4MOL   H397 1663   0.440   4.991   5.076 -0.1006 -1.0408 -0.0737
    4MOL   H398 1664   0.289   4.886   5.189 -0.0319  1.1286  2.7714
    4MOL   H399 1665   0.394   4.809   5.312 -0.8215  3.7558  0.0742
    4MOL   H400 1666   0.268   4.716   5.229 -0.1694  0.1244  1.2871
    4MOL   C401 1667   0.506   4.494   5.318  0.0641  0.5092  0.4601
    4MOL   C402 1668   0.650   4.455   5.370  0.1966 -0.1518  0.2949
    4MOL   C403 1669   0.688   4.309   5.385  0.4710  0.0317  0.4250
    4MOL   C404 1670   0.835   4.269   5.409 -0.0350 -0.5100  0.6826
    4MOL   C405 1671   0.880   4.332   5.540 -0.5668 -0.5969  0.2058
    4MOL   C406 1672   0.935   4.329   5.307 -0.3220 -0.0880  0.3220
    4MOL   C407 1673   0.841   4.125   5.406 -0.2211 -0.5051  0.1003
    4MOL   H408 1674   0.470   4.581   5.373 -2.3886  1.0954 -1.9634
    4MOL   H409 1675   0.447   4.404   5.334  1.3720 -0.4337 -0.0255
    4MOL   H410 1676   0.726   4.505   5.310  2.2002 -3.2770  0.0668
    4MOL   H411 1677   0.669   4.269   5.285 -0.7097  0.8446  0.3116
    4MOL   H412 1678   0.613   4.263   5.450  1.8705 -2.4073  0.3848
    4MOL   H413 1679   0.821   4.309   5.629  0.1834 -0.9539  0.6116
    4MOL   H414 1680   0.877   4.440   5.549 -2.6227 -0.5380 -0.7149
    4MOL   H415 1681   0.981   4.295   5.557 -0.8508 -1.8197 -0.6489
    4MOL   H416 1682   0.925   4.437   5.297  1.0784  0.0285  0.1570
    4MOL   H417 1683   0.915   4.292   5.206  1.5097 -3.1772  1.0259
    4MOL   H418 1684   1.038   4.300   5.328 -0.8820 -1.2976  1.4793
    4MOL   H419 1685   0.780   4.078   5.483  1.6602 -0.1648  1.8108
    4MOL   H420 1686   0.808   4.083   5.311  1.2825  2.3548 -1.7527
    4MOL   H421 1687   0.943   4.092   5.423 -0.7583 -2.2320  0.0926
    4MOL   H422 1688   0.670   4.508   5.462 -2.5882  0.7420  0.4191
    5MOL     C1 1689   2.480   1.280   5.318  0.5872 -0.2164  0.0266
    5MOL     C2 1690   2.612   1.223   5.264  0.0575 -0.4120 -0.1452
    5MOL     C3 1691   2.718   1.334   5.292 -0.0377 -0.6432 -0.2152
    5MOL     C4 1692   2.865   1.301   5.309  0.0338 -0.3299  0.6766
    5MOL     C5 1693   2.949   1.434   5.328  0.1107  0.1583  0.3568
    5MOL     C6 1694   2.889   1.223   5.434  0.6500  0.1757  0.2461
    5MOL     C7 1695   2.929   1.224   5.195  0.3022 -0.1117 -1.1170
    5MOL     H8 1696   2.486   1.306   5.424  2.3253 -0.1300 -0.0820
    5MOL     H9 1697   2.463   1.377   5.272 -1.6631  0.2180  1.7076
    5MOL    H10 1698   2.640   1.136   5.325  0.7147  0.8153  1.3454
    5MOL    H11 1699   2.697   1.391   5.383 -2.2500 -0.3213 -0.9138
    5MOL    H12 1700   2.703   1.400   5.207 -0.7087  1.0424  1.1608
    5MOL    H13 1701   3.010   1.451   5.239  1.9801  2.3154  2.0093
    5MOL    H14 1702   3.021   1.444   5.409  0.6610  2.7584 -0.3975
    5MOL    H15 1703   2.895   1.524   5.355  0.7489  0.7196 -0.2233
    5MOL    H16 1704   2.863   1.286   5.519 -2.6778  0.0810 -0.6093
    5MOL    H17 1705   2.819   1.139   5.438  0.2811  0.4835  0.3369
    5MOL    H18 1706   2.987   1.177   5.436  0.9405  0.8184  0.9110
    5MOL    H19 1707   3.035   1.202   5.208 -0.0586 -0.1189  2.2082
    5MOL    H20 1708   2.910   1.276   5.101 -1.5189  0.5231 -0.4166
    5MOL    H21 1709   2.886   1.125   5.181 -0.9813  0.2794 -0.1091
    5MOL    H22 1710   2.395   1.213   5.309 -0.3300  1.0708 -1.2458
    5MOL    C23 1711   2.603   1.189   5.110  0.2157 -0.3512  0.2717
    5MOL    C24 1712   2.567   1.048   5.069 -0.1194  0.1349  0.0938
    5MOL    C25 1713   2.656   0.938   5.136  0.1128  0.8634 -0.9036
    5MOL    C26 1714   2.593   0.812   5.193  0.5589 -0.1472 -1.0060
    5MOL    C27 1715   2.527   0.730   5.092 -0.9704  0.6665  0.5123
    5MOL    C28 1716   2.707   0.733   5.269  1.2900  0.0050 -0.1831
    5MOL    C29 1717   2.484   0.843   5.296 -0.2157 -0.2035  0.6944
    5MOL    H30 1718   2.533   1.253   5.057 -0.4817 -1.9339 -0.7292
    5MOL    H31 1719   2.696   1.219   5.062  0.5596 -2.0991 -0.1643
    5MOL    H32 1720   2.465   1.038   5.106 -0.1209  0.3578  0.1511
    5MOL    H33 1721   2.725   0.993   5.201 -0.4331  0.3638  0.1116
    5MOL    H34 1722   2.729   0.917   5.057 -1.7472 -2.2865 -1.8687
    5MOL    H35 1723   2.494   0.637   5.139  1.9311 -1.7573 -2.0278
    5MOL    H36 1724   2.433   0.770   5.054 -0.7669  3.3397  2.7164
    5MOL    H37 1725   2.593   0.698   5.011 -0.6087  1.3906  0.5164
    5MOL    H38 1726   2.780   0.698   5.196  2.1297  1.1222  0.0931
    5MOL    H39 1727   2.766   0.799   5.333 -1.2981  2.1660  0.0869
    5MOL    H40 1728   2.666   0.654   5.330  0.8991  0.3343 -0.0137
    5MOL    H41 1729   2.386   0.852   5.249  1.5576  0.0720 -3.1053
    5MOL    H42 1730   2.503   0.939   5.346  1.8827 -0.3022  0.1230
    5MOL    H43 1731   2.468   0.774   5.379 -1.7562 -1.8747 -0.9342
    5MOL    C44 1732   2.577   1.038   4.919  0.2806  0.2438  0.6130
    5MOL    C45 1733   2.467   1.100   4.831 -0.2710 -0.2809 -0.5799
    5MOL    C46 1734   2.330   1.034   4.853  0.2357  0.6349 -0.5782
    5MOL    C47 1735   2.216   1.141   4.879 -0.7689  0.0049  0.4055
    5MOL    C48 1736   2.251   1.228   5.010 -0.1721  0.0020 -0.0583
    5MOL    C49 1737   2.091   1.067   4.902  0.4117  0.1184  0.4525
    5MOL    C50 1738   2.198   1.237   4.756 -0.5907 -0.3692  0.2854
    5MOL    H51 1739   2.673   1.077   4.885 -0.2021  1.3547  0.5152
    5MOL    H52 1740   2.585   0.933   4.891 -2.0570 -0.6317  2.9864
    5MOL    H53 1741   2.454   1.207   4.846  0.9409 -0.2729  0.4304
    5MOL    H54 1742   2.335   0.981   4.948 -0.2253  3.3137  0.9710
    5MOL    H55 1743   2.302   0.967   4.771  1.4133  0.4885 -0.8629
    5MOL    H56 1744   2.267   1.174   5.104  1.1796 -0.3821 -0.5023
    5MOL    H57 1745   2.171   1.296   5.042 -0.4353 -0.4090  0.1605
    5MOL    H58 1746   2.326   1.306   4.995  0.9728 -0.9699  0.5679
    5MOL    H59 1747   2.105   0.988   4.976  1.3074 -1.1302 -1.0190
    5MOL    H60 1748   2.005   1.124   4.937 -0.8478 -0.0343 -2.2773
    5MOL    H61 1749   2.065   1.007   4.815 -0.2714 -0.3556  0.9771
    5MOL    H62 1750   2.163   1.334   4.790 -1.8938 -0.1556 -1.6330
    5MOL    H63 1751   2.288   1.270   4.704  0.2153 -1.5233  0.9204
    5MOL    H64 1752   2.124   1.188   4.693 -2.4622  0.2883  1.9398
    5MOL    C65 1753   2.496   1.073   4.681 -0.2728  0.3359  0.4778
    5MOL    C66 1754   2.625   1.140   4.621  0.2766 -0.3495  0.8470
    5MOL    C67 1755   2.598   1.290   4.603  0.5914 -1.5718 -0.4313
    5MOL    C68 1756   2.708   1.390   4.636 -0.3222 -0.2713  0.0483
    5MOL    C69 1757   2.647   1.533   4.642 -0.0834  0.5550 -0.1142
    5MOL    C70 1758   2.770   1.380   4.775  0.2461  0.0423 -0.0643
    5MOL    C71 1759   2.825   1.392   4.543 -0.2183  0.6040  0.0840
    5MOL    H72 1760   2.501   0.966   4.664 -1.2933  0.3370  0.1213
    5MOL    H73 1761   2.409   1.098   4.621  0.0326  0.5665  0.1254
    5MOL    H74 1762   2.704   1.120   4.694  0.8502  0.5767  0.4827
    5MOL    H75 1763   2.520   1.310   4.677  0.9634 -0.4497 -0.3409
    5MOL    H76 1764   2.543   1.317   4.514  0.1722  0.6727  0.4743
    5MOL    H77 1765   2.608   1.572   4.548 -0.5701 -0.3987 -0.3229
    5MOL    H78 1766   2.559   1.536   4.705  0.2435  1.6275  0.2866
    5MOL    H79 1767   2.707   1.608   4.692  2.1345 -2.2099  1.5244
    5MOL    H80 1768   2.699   1.383   4.858  1.9067  2.8085  1.3512
    5MOL    H81 1769   2.838   1.463   4.794 -0.1346  0.3182  0.0760
    5MOL    H82 1770   2.822   1.284   4.786 -1.4705 -0.7886  1.0039
    5MOL    H83 1771   2.807   1.438   4.446 -1.4685 -0.1390 -0.0492
    5MOL    H84 1772   2.866   1.298   4.505  2.9283  1.9311  0.0562
    5MOL    H85 1773   2.919   1.436   4.576  0.6405 -1.3211  0.2818
    5MOL    C86 1774   2.670   1.068   4.491 -0.7576  0.1320 -0.4058
    5MOL    C87 1775   2.751   0.935   4.519  0.4171  0.2220 -0.3807
    5MOL    C88 1776   2.903   0.974   4.554  0.2908 -0.0900  1.1096
    5MOL    C89 1777   2.971   0.893   4.666  0.1745  0.0904  0.1915
    5MOL    C90 1778   3.008   0.742   4.630  0.5344  0.0243 -0.3617
    5MOL    C91 1779   2.897   0.917   4.799 -0.4316 -0.3553 -0.3132
    5MOL    C92 1780   3.113   0.954   4.680 -0.2411  0.1533 -0.1382
    5MOL    H93 1781   2.733   1.126   4.424  1.1008 -2.5288 -1.0595
    5MOL    H94 1782   2.571   1.047   4.452 -0.8870 -1.8646  0.9109
    5MOL    H95 1783   2.700   0.874   4.593  0.7586  1.3960  0.8411
    5MOL    H96 1784   2.901   1.081   4.576  0.1692  0.0295  0.5174
    5MOL    H97 1785   2.960   0.978   4.461 -2.1568 -3.6399 -0.6376
    5MOL    H98 1786   2.926   0.671   4.631  0.7925 -0.2611  0.8660
    5MOL    H99 1787   3.082   0.697   4.696 -0.7608 -0.7675  0.5694
    5MOL   H100 1788   3.057   0.731   4.533 -0.0651 -1.3065 -0.5190
    5MOL   H101 1789   2.806   0.860   4.819 -0.3581 -0.1513  0.6265
    5MOL   H102 1790   2.955   0.879   4.883  0.4516 -0.0250 -0.7682
    5MOL   H103 1791   2.883   1.023   4.820 -0.3930 -0.4507  0.2046
    5MOL   H104 1792   3.160   0.905   4.765  1.3503 -0.1841 -1.2028
    5MOL   H105 1793   3.178   0.945   4.593  1.3653  1.8741  0.8472
    5MOL   H106 1794   3.113   1.060   4.706  0.0390  0.3337 -0.8821
    5MOL   C107 1795   2.764   0.844   4.388  0.9010  0.3627 -0.4971
    5MOL   C108 1796   2.633   0.794   4.322  0.3643 -0.3104  0.0468
    5MOL   C109 1797   2.520   0.745   4.411 -0.0258 -0.3448 -0.8162
    5MOL   C110 1798   2.522   0.602   4.462  1.0408  0.0565  0.4531
    5MOL   C111 1799   2.392   0.587   4.543 -0.1558  0.0825 -0.8126
    5MOL   C112 1800   2.645   0.574   4.552 -0.1607 -0.0904  0.0130
    5MOL   C113 1801   2.528   0.499   4.347 -0.1042  0.2511 -0.6034
    5MOL   H114 1802   2.821   0.755   4.415  0.1977 -0.1046 -0.5292
    5MOL   H115 1803   2.833   0.889   4.317 -0.7214  3.2350 -0.3215
    5MOL   H116 1804   2.655   0.709   4.259  0.5507 -0.0409 -0.2530
    5MOL   H117 1805   2.497   0.816   4.490  2.7129 -1.8601  1.4677
    5MOL   H118 1806   2.430   0.739   4.351 -1.7090 -0.3676  1.6437
    5MOL   H119 1807   2.404   0.509   4.618  1.5775  2.2351  1.2153
    5MOL   H120 1808   2.358   0.680   4.588 -0.1317  0.8675 -2.3946
    5MOL   H121 1809   2.306   0.566   4.478 -0.8174  0.9792 -0.2364
    5MOL   H122 1810   2.646   0.482   4.610  0.6401  0.1839  0.4478
    5MOL   H123 1811   2.663   0.656   4.622 -1.2732 -0.0394  0.2504
    5MOL   H124 1812   2.737   0.558   4.495  0.5657  0.1870  1.0857
    5MOL   H125 1813   2.626   0.469   4.309  1.0631  2.0304  0.9500
    5MOL   H126 1814   2.460   0.534   4.270 -2.6036 -0.4241  1.2210
    5MOL   H127 1815   2.493   0.400   4.375 -0.1777 -0.6547 -3.6989
    5MOL   C128 1816   2.580   0.898   4.219  0.1153 -0.2311  0.5437
    5MOL   C129 1817   2.670   0.965   4.116 -0.4413 -0.1414 -0.1718
    5MOL   C130 1818   2.755   0.863   4.035 -0.4836  0.4027  0.0169
    5MOL   C131 1819   2.903   0.902   3.993  0.4447 -0.2911  0.0641
    5MOL   C132 1820   2.913   1.030   3.902  0.0324  0.1184 -0.2588
    5MOL   C133 1821   2.961   0.780   3.917  0.1950 -0.0791 -0.2035
    5MOL   C134 1822   2.993   0.930   4.108  0.0889 -0.1136 -1.0013
    5MOL   H135 1823   2.530   0.981   4.268 -0.5169  0.5476 -1.3650
    5MOL   H136 1824   2.491   0.857   4.170 -0.2641 -0.9257  1.7947
    5MOL   H137 1825   2.742   1.025   4.172  1.4685 -2.4958 -0.0193
    5MOL   H138 1826   2.771   0.773   4.094 -2.1889 -0.1437 -0.3156
    5MOL   H139 1827   2.703   0.840   3.942 -2.3286  1.1500  0.8462
    5MOL   H140 1828   2.842   1.037   3.820 -0.4224  1.9958  0.2711
    5MOL   H141 1829   3.010   1.048   3.856  0.7138  0.3738  1.2379
    5MOL   H142 1830   2.909   1.123   3.960 -0.4436  1.3664 -2.2462
    5MOL   H143 1831   2.959   0.686   3.973 -0.6315 -0.2534 -0.5179
    5MOL   H144 1832   3.060   0.804   3.878  0.3619  2.5107  1.6748
    5MOL   H145 1833   2.901   0.760   3.829  1.0476 -0.7133 -0.6558
    5MOL   H146 1834   3.002   0.848   4.180  1.9292  0.9609  0.0394
    5MOL   H147 1835   3.097   0.946   4.077  0.6144 -4.8893 -2.1081
    5MOL   H148 1836   2.968   1.021   4.163 -0.0001 -1.8322  1.9331
    5MOL   C149 1837   2.580   1.055   4.020 -0.5430 -0.0183 -0.4259
    5MOL   C150 1838   2.550   1.202   4.074  0.7135  0.9208 -0.4415
    5MOL   C151 1839   2.687   1.276   4.067 -0.0057 -0.7200  0.3526
    5MOL   C152 1840   2.688   1.425   4.115 -0.2999 -0.5196  0.0345
    5MOL   C153 1841   2.834   1.462   4.135  0.1268 -0.8959  0.3642
    5MOL   C154 1842   2.603   1.448   4.242 -0.0057  0.0127 -0.8293
    5MOL   C155 1843   2.648   1.534   4.003  0.1991  0.2670  0.0780
    5MOL   H156 1844   2.489   0.997   4.009 -0.6268 -0.0534  0.4131
    5MOL   H157 1845   2.639   1.060   3.929 -0.1965  1.9776 -0.1242
    5MOL   H158 1846   2.516   1.191   4.177  1.3074 -0.2399 -0.3673
    5MOL   H159 1847   2.731   1.284   3.968 -0.1487 -2.5216  0.1303
    5MOL   H160 1848   2.758   1.225   4.131  0.3712 -1.1326 -0.3905
    5MOL   H161 1849   2.846   1.568   4.160 -0.6896 -1.1478  1.8883
    5MOL   H162 1850   2.872   1.395   4.213 -1.5093 -0.9487  1.1243
    5MOL   H163 1851   2.893   1.456   4.044  0.4426 -0.2369  0.5212
    5MOL   H164 1852   2.624   1.361   4.303  1.2496  0.6203 -0.3842
    5MOL   H165 1853   2.494   1.450   4.238 -0.0040  1.1299 -0.5193
    5MOL   H166 1854   2.618   1.542   4.296 -2.2457 -0.6660  1.0300
    5MOL   H167 1855   2.662   1.632   4.049  1.6138 -0.1845  0.6371
    5MOL   H168 1856   2.715   1.541   3.918  0.1069  0.0222 -0.0148
    5MOL   H169 1857   2.546   1.530   3.964 -0.4058 -0.1771  1.6331
    5MOL   C170 1858   2.435   1.278   3.998  0.3014 -0.3509 -0.0724
    5MOL   C171 1859   2.292   1.218   4.021 -0.8186  0.5789  0.2723
    5MOL   C172 1860   2.211   1.269   3.906 -0.1184 -0.6627 -0.4970
    5MOL   C173 1861   2.208   1.214   3.764 -0.3878 -0.2958 -0.1434
    5MOL   C174 1862   2.121   1.319   3.685  0.5693  0.1656  0.2575
    5MOL   C175 1863   2.123   1.083   3.763 -0.1603  0.5177 -0.2283
    5MOL   C176 1864   2.346   1.203   3.691  0.3078 -0.0411  0.3695
    5MOL   H177 1865   2.473   1.262   3.898 -0.6013  1.4636 -0.7240
    5MOL   H178 1866   2.414   1.383   4.020  1.8517  0.3600 -1.8399
    5MOL   H179 1867   2.282   1.110   4.023 -0.5390  0.5241 -0.8979
    5MOL   H180 1868   2.106   1.269   3.936  0.0819 -1.1651  0.2212
    5MOL   H181 1869   2.245   1.372   3.900  0.5206 -0.8494 -0.1046
    5MOL   H182 1870   2.154   1.423   3.686  0.3163  0.2444  0.2713
    5MOL   H183 1871   2.108   1.301   3.578 -2.5020  2.1307  0.2576
    5MOL   H184 1872   2.021   1.328   3.727  1.7957  2.3921  2.7728
    5MOL   H185 1873   2.155   1.012   3.840 -2.7056 -0.4314 -0.0195
    5MOL   H186 1874   2.015   1.089   3.775 -0.9246 -3.5153 -3.9781
    5MOL   H187 1875   2.132   1.025   3.671 -0.3202  1.2933 -0.7357
    5MOL   H188 1876   2.418   1.127   3.721 -1.7654 -1.2160  2.4705
    5MOL   H189 1877   2.317   1.184   3.588  2.3620  0.2269 -0.2760
    5MOL   H190 1878   2.390   1.303   3.693  0.3546 -0.0854  1.9677
    5MOL   C191 1879   2.230   1.266   4.160 -0.2015  0.1100  0.5930
    5MOL   C192 1880   2.108   1.186   4.218 -0.6702  0.0996 -0.0633
    5MOL   C193 1881   2.025   1.265   4.317 -0.6764 -0.4922  0.2809
    5MOL   C194 1882   1.902   1.347   4.260  0.0150 -0.1352 -0.2922
    5MOL   C195 1883   1.789   1.251   4.200 -0.8833 -0.3882  0.0603
    5MOL   C196 1884   1.943   1.461   4.164  0.1493 -0.2159  0.0793
    5MOL   C197 1885   1.834   1.421   4.380  0.4195 -0.1947 -0.8052
    5MOL   H198 1886   2.310   1.263   4.233  1.0589 -2.7337 -0.8282
    5MOL   H199 1887   2.192   1.368   4.165 -1.0736 -0.2008  0.4798
    5MOL   H200 1888   2.049   1.163   4.129 -0.2125  0.0210 -0.3498
    5MOL   H201 1889   2.091   1.329   4.376  0.3886  0.9408 -2.4039
    5MOL   H202 1890   1.985   1.195   4.391  2.1660 -0.5049  1.8995
    5MOL   H203 1891   1.796   1.241   4.092  2.8665  0.2309  0.2080
    5MOL   H204 1892   1.801   1.152   4.245  1.3425 -0.6800 -1.1500
    5MOL   H205 1893   1.695   1.304   4.221 -0.1588  0.6674  0.6969
    5MOL   H206 1894   2.019   1.530   4.200  1.5950 -0.0723 -3.1436
    5MOL   H207 1895   1.990   1.431   4.070  1.9820 -1.1261  1.2633
    5MOL   H208 1896   1.857   1.512   4.120  0.3617 -0.2823 -0.4152
    5MOL   H209 1897   1.747   1.475   4.343  0.2442 -0.3413 -0.6073
    5MOL   H210 1898   1.794   1.355   4.456  0.5405  0.4151 -0.2054
    5MOL   H211 1899   1.890   1.499   4.431 -1.0944  0.4311 -0.0735
    5MOL   C212 1900   2.170   1.055   4.279 -0.1534  0.0713 -0.6665
    5MOL   C213 1901   2.094   0.923   4.257 -0.4445  0.0491  0.2144
    5MOL   C214 1902   2.127   0.824   4.369 -0.1054 -0.6938  0.2601
    5MOL   C215 1903   2.013   0.799   4.477 -0.0722  0.0719 -0.4286
    5MOL   C216 1904   1.885   0.725   4.419 -1.3042  0.0408 -0.7260
    5MOL   C217 1905   2.060   0.708   4.590 -0.9493  1.5690 -0.3191
    5MOL   C218 1906   1.971   0.934   4.548 -0.5019  0.7578 -0.0807
    5MOL   H219 1907   2.272   1.036   4.245  0.8546 -0.9884  2.7821
    5MOL   H220 1908   2.174   1.077   4.385 -1.0994 -0.9042 -0.4136
    5MOL   H221 1909   1.986   0.930   4.250 -0.5222 -2.8240 -2.2667
    5MOL   H222 1910   2.213   0.860   4.424 -2.1948  3.7059  0.8391
    5MOL   H223 1911   2.143   0.719   4.343 -0.6039 -0.7377  0.1180
    5MOL   H224 1912   1.810   0.717   4.497 -0.5154 -0.5260 -0.0202
    5MOL   H225 1913   1.901   0.626   4.374  1.5737  0.1305 -0.0178
    5MOL   H226 1914   1.840   0.787   4.341 -0.1885 -0.5454 -1.8687
    5MOL   H227 1915   2.078   0.609   4.549  0.4873  2.1244 -1.0584
    5MOL   H228 1916   2.149   0.747   4.640  0.6075 -3.2492  0.9959
    5MOL   H229 1917   1.983   0.692   4.666  1.1058  2.0657  1.9498
    5MOL   H230 1918   1.892   0.926   4.622 -0.5364 -0.1555 -0.2077
    5MOL   H231 1919   1.908   0.987   4.477 -1.3519 -0.7784 -0.4900
    5MOL   H232 1920   2.056   0.997   4.573  0.8145 -0.6905 -0.7942
    5MOL   C233 1921   2.146   0.858   4.120  0.0559 -0.6081  0.2117
    5MOL   C234 1922   2.099   0.719   4.071 -0.6653  0.0325 -0.5425
    5MOL   C235 1923   2.048   0.725   3.929 -0.3292 -0.0340  0.3635
    5MOL   C236 1924   1.895   0.758   3.898 -0.0393  0.5361  0.0992
    5MOL   C237 1925   1.887   0.762   3.750 -0.4314 -0.1347 -0.0597
    5MOL   C238 1926   1.815   0.633   3.946  0.3276 -0.8771  0.7352
    5MOL   C239 1927   1.845   0.889   3.953  0.2169  0.2434  0.0419
    5MOL   H240 1928   2.254   0.856   4.108  0.3820  0.7538  2.5542
    5MOL   H241 1929   2.122   0.930   4.042  2.9384 -0.6350 -0.7372
    5MOL   H242 1930   2.022   0.681   4.137 -0.3006  0.2854  0.0349
    5MOL   H243 1931   2.110   0.798   3.876  0.3460 -0.0171  1.1716
    5MOL   H244 1932   2.082   0.632   3.883 -0.8862 -0.1507  0.1839
    5MOL   H245 1933   1.784   0.751   3.717 -0.4756 -1.2292  0.4250
    5MOL   H246 1934   1.926   0.674   3.699 -1.3326 -0.6267  0.1010
    5MOL   H247 1935   1.933   0.853   3.710 -1.2644 -0.1535 -1.1011
    5MOL   H248 1936   1.712   0.648   3.913  0.9737  1.1018 -0.4442
    5MOL   H249 1937   1.845   0.533   3.915  1.6707 -0.7395  1.5388
    5MOL   H250 1938   1.811   0.624   4.055  1.1309 -1.4492  0.7253
    5MOL   H251 1939   1.841   0.910   4.060 -2.2994  0.2423 -0.0273
    5MOL   H252 1940   1.898   0.976   3.913 -2.7868  1.7833 -0.6869
    5MOL   H253 1941   1.741   0.888   3.922 -0.1532  0.9253  1.2506
    5MOL   C254 1942   2.219   0.621   4.080  0.1477 -0.3988  0.3835
    5MOL   C255 1943   2.191   0.472   4.083  0.5438  0.4694 -0.4968
    5MOL   C256 1944   2.160   0.438   4.232 -0.4109 -0.0741  0.0714
    5MOL   C257 1945   2.082   0.307   4.266 -0.2088 -1.4694 -0.3994
    5MOL   C258 1946   1.939   0.313   4.218  0.4636  0.1143 -0.0541
    5MOL   C259 1947   2.068   0.318   4.425 -0.2970 -0.5682  0.5909
    5MOL   C260 1948   2.150   0.171   4.229 -0.0916  0.2379 -0.1427
    5MOL   H261 1949   2.288   0.647   4.160  0.0654 -1.8683  0.9420
    5MOL   H262 1950   2.274   0.655   3.992 -2.3510  1.7928 -0.4129
    5MOL   H263 1951   2.106   0.446   4.020  1.2684 -2.0813 -0.4920
    5MOL   H264 1952   2.258   0.435   4.278  0.4554 -1.6939 -1.7958
    5MOL   H265 1953   2.099   0.525   4.259  0.7986  1.4792 -2.0364
    5MOL   H266 1954   1.888   0.220   4.245  0.7117 -0.1631 -0.5167
    5MOL   H267 1955   1.940   0.319   4.109  1.1739 -0.8045 -0.1053
    5MOL   H268 1956   1.892   0.401   4.262  0.1834 -0.4934  0.8874
    5MOL   H269 1957   2.159   0.337   4.482  0.5697 -0.1331 -0.9210
    5MOL   H270 1958   2.032   0.229   4.476  1.4070 -0.8506  1.3059
    5MOL   H271 1959   1.997   0.400   4.438  0.9736  0.5966  0.3131
    5MOL   H272 1960   2.122   0.096   4.304 -1.9936  0.7671 -0.2941
    5MOL   H273 1961   2.123   0.129   4.132  0.8792  2.1127 -1.2518
    5MOL   H274 1962   2.257   0.186   4.216 -0.3630  2.0903 -0.3137
    5MOL   C275 1963   2.308   0.395   4.024 -0.7760 -0.2847  0.2119
    5MOL   C276 1964   2.351   0.417   3.872  1.1781  0.4756 -0.5409
    5MOL   C277 1965   2.485   0.343   3.833  0.3790 -0.7234  0.0727
    5MOL   C278 1966   2.623   0.424   3.835 -0.0576  0.0116 -0.0002
    5MOL   C279 1967   2.620   0.537   3.734 -0.6980  0.5877 -0.4293
    5MOL   C280 1968   2.650   0.476   3.977  0.8320 -0.2011 -0.2140
    5MOL   C281 1969   2.738   0.333   3.800 -0.2472 -1.1745 -0.0444
    5MOL   H282 1970   2.395   0.415   4.087 -0.8511 -0.2734  0.3126
    5MOL   H283 1971   2.288   0.288   4.027 -0.9621 -0.3733 -2.9640
    5MOL   H284 1972   2.366   0.523   3.854  2.2397  0.4832  0.3602
    5MOL   H285 1973   2.469   0.302   3.733  0.8534 -2.8010  0.8150
    5MOL   H286 1974   2.491   0.259   3.902  3.6010  0.0470  0.8079
    5MOL   H287 1975   2.711   0.597   3.739 -0.3127 -0.1185  2.2681
    5MOL   H288 1976   2.607   0.494   3.635 -2.2672  0.2102 -0.0660
    5MOL   H289 1977   2.545   0.613   3.754 -1.7679 -0.7273  0.7098
    5MOL   H290 1978   2.663   0.392   4.044  1.6313  2.2419  2.8054
    5MOL   H291 1979   2.575   0.544   4.018 -0.0017 -0.7331 -0.8357
    5MOL   H292 1980   2.750   0.517   3.991  0.1535  0.9326  1.4885
    5MOL   H293 1981   2.733   0.242   3.860 -1.6521 -0.0811  1.5140
    5MOL   H294 1982   2.833   0.377   3.830 -0.3317 -0.7054 -0.4582
    5MOL   H295 1983   2.728   0.305   3.695 -1.0480  0.8212 -0.5247
    5MOL   C296 1984   2.235   0.367   3.778 -0.3656  0.3687  0.6866
    5MOL   C297 1985   2.242   0.411   3.626  0.4077 -0.2301  0.3498
    5MOL   C298 1986   2.195   0.563   3.618  0.2253  0.4114 -0.1452
    5MOL   C299 1987   2.264   0.664   3.514  0.5187 -0.1101 -0.0569
    5MOL   C300 1988   2.268   0.805   3.584 -0.1610 -0.8614  0.0969
    5MOL   C301 1989   2.403   0.624   3.471 -0.1736  0.2756  0.3442
    5MOL   C302 1990   2.162   0.654   3.393 -0.2476 -0.9239 -0.2775
    5MOL   H303 1991   2.139   0.408   3.809  0.0233  1.5502  0.3607
    5MOL   H304 1992   2.231   0.259   3.785 -3.8779  0.4892  1.3838
    5MOL   H305 1993   2.345   0.407   3.590 -0.0323 -1.4230 -0.7791
    5MOL   H306 1994   2.230   0.599   3.714 -2.3389 -1.5817  1.6195
    5MOL   H307 1995   2.086   0.569   3.608  0.0353 -3.1270 -0.8503
    5MOL   H308 1996   2.340   0.814   3.666 -0.9388 -0.6832  0.7651
    5MOL   H309 1997   2.286   0.890   3.519  4.1524 -0.8369  1.1798
    5MOL   H310 1998   2.175   0.816   3.641  0.3104  1.1726  0.5101
    5MOL   H311 1999   2.412   0.528   3.421  0.4323  0.8775 -0.7257
    5MOL   H312 2000   2.437   0.693   3.395 -0.0949  0.4477  0.5343
    5MOL   H313 2001   2.477   0.628   3.552 -0.9357 -1.6219  1.1596
    5MOL   H314 2002   2.150   0.553   3.355  2.7402 -1.3341 -0.2514
    5MOL   H315 2003   2.065   0.692   3.424  0.1014 -0.4645  0.2663
    5MOL   H316 2004   2.191   0.729   3.319  0.1308 -1.7686 -0.9980
    5MOL   C317 2005   2.158   0.335   3.516 -0.3157 -0.0848 -0.4350
    5MOL   C318 2006   2.182   0.180   3.493  0.5706 -0.2965 -0.1894
    5MOL   C319 2007   2.328   0.124   3.520  0.2230  0.0554 -0.4394
    5MOL   C320 2008   2.376   0.005   3.439  0.2074 -0.0758  0.0468
    5MOL   C321 2009   2.400   0.044   3.291 -0.5195  0.8248 -0.6381
    5MOL   C322 2010   2.287   7.650   3.447  0.2312  1.1906  0.0283
    5MOL   C323 2011   2.514   7.719   3.486  0.2214 -0.2863 -0.3279
    5MOL   H324 2012   2.055   0.371   3.513 -0.2519  0.4885  2.7813
    5MOL   H325 2013   2.203   0.371   3.424 -2.4630 -3.1816 -2.8473
    5MOL   H326 2014   2.163   0.160   3.388 -2.0623 -4.1493  0.9250
    5MOL   H327 2015   2.335   0.104   3.627  1.1622  0.3674 -0.4409
    5MOL   H328 2016   2.402   0.203   3.514  0.8057 -0.5899 -2.2483
    5MOL   H329 2017   2.461   0.134   3.291  2.0250 -0.8145  0.8953
    5MOL   H330 2018   2.304   0.065   3.245 -0.0201 -0.9099 -2.5498
    5MOL   H331 2019   2.442   7.725   3.237 -0.5805  1.7396 -2.1604
    5MOL   H332 2020   2.187   7.666   3.406 -0.1368 -0.2588  0.3522
    5MOL   H333 2021   2.326   7.559   3.402 -0.4250  2.8439 -4.1721
    5MOL   H334 2022   2.275   7.627   3.553  0.6773 -1.0922 -0.3963
    5MOL   H335 2023   2.593   0.027   3.480  0.8937 -0.9784  0.0076
    5MOL   H336 2024   2.538   7.625   3.437  1.0397  0.0217 -0.5203
    5MOL   H337 2025   2.507   7.690   3.591 -1.8930 -1.8683 -0.8697
    5MOL   C338 2026   2.082   0.093   3.578 -0.0024 -0.1605  0.5806
    5MOL   C339 2027   1.936   0.106   3.556  0.4888 -0.4398  0.1350
    5MOL   C340 2028   1.843   0.021   3.657 -0.1750 -0.2931 -0.0499
    5MOL   C341 2029   1.815   0.087   3.799 -0.4597 -0.0882  0.8574
    5MOL   C342 2030   1.941   0.135   3.876  0.0415  0.2049 -0.7334
    5MOL   C343 2031   1.715   0.210   3.781 -0.2398  0.2918  0.1246
    5MOL   C344 2032   1.744   7.741   3.880  0.8698  0.4881 -0.3033
    5MOL   H345 2033   2.092   0.119   3.684 -2.6869 -1.6651  1.2590
    5MOL   H346 2034   2.110   7.754   3.589  1.7856  0.4278  2.0112
    5MOL   H347 2035   1.910   0.208   3.583 -1.8138 -0.2123 -2.7458
    5MOL   H348 2036   1.887   7.687   3.658  1.6774  0.4945 -1.8362
    5MOL   H349 2037   1.747   7.766   3.610  0.8394 -2.8306 -1.0468
    5MOL   H350 2038   2.012   0.053   3.883 -1.2293 -0.8133  0.9620
    5MOL   H351 2039   1.998   0.221   3.843  0.9711 -0.2215 -0.2630
    5MOL   H352 2040   1.903   0.159   3.976 -0.1871 -2.1501 -0.2362
    5MOL   H353 2041   1.614   0.185   3.750  0.2431 -1.6651  0.0653
    5MOL   H354 2042   1.708   0.269   3.872  0.0863  0.9342 -0.2611
    5MOL   H355 2043   1.757   0.283   3.710 -0.0232  1.3609  1.3294
    5MOL   H356 2044   1.793   7.648   3.908  0.1877  0.2032 -0.0641
    5MOL   H357 2045   1.729   0.001   3.985  1.2056 -0.5956  0.0154
    5MOL   H358 2046   1.643   7.718   3.848  1.3690 -0.8950 -0.9299
    5MOL   C359 2047   1.906   0.068   3.407 -0.5861 -0.2683 -0.4889
    5MOL   C360 2048   1.846   0.179   3.327 -1.0383 -0.1386  0.7204
    5MOL   C361 2049   1.708   0.231   3.373 -0.4895 -1.2172 -0.8062
    5MOL   C362 2050   1.698   0.389   3.378  0.4302 -0.3497 -0.5665
    5MOL   C363 2051   1.552   0.412   3.435 -0.1941  0.1384 -0.0374
    5MOL   C364 2052   1.704   0.452   3.238 -0.2924 -0.1352 -0.4817
    5MOL   C365 2053   1.795   0.461   3.470 -0.1671 -0.2580 -0.7018
    5MOL   H366 2054   1.848   7.742   3.402 -1.6824  0.1982  2.2036
    5MOL   H367 2055   1.997   0.032   3.361 -2.7764 -4.1119 -2.0873
    5MOL   H368 2056   1.920   0.259   3.332 -1.3656  0.1725  0.5558
    5MOL   H369 2057   1.633   0.184   3.310 -1.5188  0.7564 -1.1046
    5MOL   H370 2058   1.684   0.192   3.472  0.8145 -0.5241 -0.2013
    5MOL   H371 2059   1.472   0.355   3.386  0.2022 -1.2413  0.9199
    5MOL   H372 2060   1.538   0.359   3.529  2.5601 -1.9757 -0.7696
    5MOL   H373 2061   1.538   0.515   3.470 -0.2211 -0.1036  0.6678
    5MOL   H374 2062   1.648   0.391   3.167  0.2999 -1.7658  0.4276
    5MOL   H375 2063   1.806   0.456   3.200 -0.3566  2.2520 -0.4870
    5MOL   H376 2064   1.659   0.551   3.234  0.0228  0.0164 -0.2746
    5MOL   H377 2065   1.891   0.471   3.420  0.0043 -0.2385 -0.3704
    5MOL   H378 2066   1.813   0.416   3.568  2.7641 -1.0183 -1.5607
    5MOL   H379 2067   1.759   0.563   3.488 -1.2645 -0.6445 -0.6510
    5MOL   C380 2068   1.832   0.138   3.171 -0.1912  0.1008  0.0904
    5MOL   C381 2069   1.958   0.104   3.086  0.1462 -0.1589 -0.2140
    5MOL   C382 2070   2.028   7.734   3.115 -0.3235 -0.0522 -0.3102
    5MOL   C383 2071   2.079   7.650   2.989  0.7733  0.5651  0.2422
    5MOL   C384 2072   2.158   7.521   3.043 -0.7744 -0.2428 -0.2183
    5MOL   C385 2073   2.176   7.722   2.906 -0.1320 -0.9394  0.1190
    5MOL   C386 2074   1.963   7.587   2.902  0.2027  0.0631 -0.1291
    5MOL   H387 2075   1.780   0.221   3.122  1.9964  0.5541 -1.5108
    5MOL   H388 2076   1.763   0.054   3.172  0.3527 -0.3841 -2.1878
    5MOL   H389 2077   1.928   0.099   2.981 -0.2675 -0.7424 -0.0738
    5MOL   H390 2078   2.110   7.737   3.186  1.2088  1.0851 -2.0887
    5MOL   H391 2079   1.962   7.662   3.164 -0.7533  1.1165  0.8315
    5MOL   H392 2080   2.093   7.462   3.108 -0.7673  0.5632  0.5466
    5MOL   H393 2081   2.185   7.463   2.955 -2.7437 -1.3076 -0.1374
    5MOL   H394 2082   2.247   7.543   3.103 -1.4446  0.1079  0.6706
    5MOL   H395 2083   2.138   0.046   2.857  0.4307 -0.7852 -0.0430
    5MOL   H396 2084   2.209   7.660   2.822  2.7152  2.0096 -1.0975
    5MOL   H397 2085   2.262   7.752   2.967 -0.5523 -0.0377  0.2699
    5MOL   H398 2086   1.896   7.513   2.947 -1.4540  1.5074 -0.1626
    5MOL   H399 2087   2.011   7.529   2.824 -1.1197 -0.2544 -0.7237
    5MOL   H400 2088   1.905   7.672   2.868  0.2737 -0.0053 -0.4210
    5MOL   C401 2089   2.062   0.216   3.080  0.0046 -0.0372 -0.0307
    5MOL   C402 2090   2.035   0.344   2.992  0.0826  0.5828  0.7275
    5MOL   C403 2091   2.123   0.465   3.042 -0.4738 -0.1050 -0.2594
    5MOL   C404 2092   2.097   0.605   2.972  0.0482  0.4051  0.1996
    5MOL   C405 2093   2.213   0.694   3.003  0.4302 -0.6009  0.4964
    5MOL   C406 2094   1.961   0.673   3.007 -0.2451 -0.0939 -0.0756
    5MOL   C407 2095   2.100   0.595   2.818 -0.3821  0.3165 -0.2470
    5MOL   H408 2096   2.077   0.252   3.182  0.2767 -2.3821  0.7766
    5MOL   H409 2097   2.152   0.167   3.044 -0.8691 -1.6596 -0.0505
    5MOL   H410 2098   2.061   0.322   2.889 -1.2983  3.9160 -0.4135
    5MOL   H411 2099   2.227   0.438   3.023  0.2338  1.5599  1.1733
    5MOL   H412 2100   2.118   0.470   3.150  2.5582 -0.6407 -0.0510
    5MOL   H413 2101   2.308   0.662   2.960  2.0183  0.6192  2.9397
    5MOL   H414 2102   2.232   0.695   3.111  1.6246 -2.4895  0.3283
    5MOL   H415 2103   2.189   0.795   2.969 -0.9555 -1.2078 -0.3632
    5MOL   H416 2104   1.967   0.686   3.115 -1.1252  1.7440 -0.2319
    5MOL   H417 2105   1.874   0.608   2.989  1.6941 -3.1541  1.1663
    5MOL   H418 2106   1.956   0.770   2.958  2.0061  0.6787  1.2034
    5MOL   H419 2107   2.119   0.686   2.762  1.2143  0.1159 -0.0667
    5MOL   H420 2108   2.172   0.517   2.791  0.3589  0.8946  0.0397
    5MOL   H421 2109   2.004   0.562   2.777 -1.3835  2.6417  0.1368
    5MOL   H422 2110   1.928   0.364   2.993 -0.0476  0.0430 -0.8824
    6MOL     C1 2111   7.260   0.938   4.751  0.6180 -0.6405 -0.4104
    6MOL     C2 2112   7.186   0.825   4.829 -0.1699  0.2413 -0.3729
    6MOL     C3 2113   7.126   0.879   4.957  0.0901  0.8848 -0.5230
    6MOL     C4 2114   6.980   0.828   4.999  0.3014  0.4645 -0.2039
    6MOL     C5 2115   6.973   0.676   5.014 -0.3669 -0.3965  0.1801
    6MOL     C6 2116   6.960   0.884   5.135 -0.3671 -0.3346  0.2121
    6MOL     C7 2117   6.869   0.885   4.909 -0.2527 -0.3538  0.2077
    6MOL     H8 2118   7.263   0.918   4.644 -0.3967 -0.4853 -0.4760
    6MOL     H9 2119   7.215   1.038   4.751  2.3468  0.1578 -1.2326
    6MOL    H10 2120   7.102   0.786   4.773 -0.6177 -0.0495  0.4854
    6MOL    H11 2121   7.113   0.986   4.940 -0.0550  0.8344 -0.7226
    6MOL    H12 2122   7.183   0.868   5.049 -0.0331 -0.0179 -0.5584
    6MOL    H13 2123   6.994   0.629   4.918 -1.1631  1.7857 -1.1096
    6MOL    H14 2124   6.879   0.634   5.048 -0.8917  1.0261  0.5305
    6MOL    H15 2125   7.053   0.638   5.078  0.3663  1.3549  0.3324
    6MOL    H16 2126   6.859   0.871   5.173 -0.3150  0.9386  0.7852
    6MOL    H17 2127   7.027   0.834   5.205 -1.7919  0.7043  2.3443
    6MOL    H18 2128   6.975   0.992   5.138 -1.5089 -0.1683  0.0805
    6MOL    H19 2129   6.775   0.837   4.937 -0.4921  0.1917  0.3335
    6MOL    H20 2130   6.882   0.850   4.806 -0.3277 -1.9655  0.7390
    6MOL    H21 2131   6.845   0.991   4.917  0.0799 -0.0623 -2.1005
    6MOL    H22 2132   7.362   0.951   4.787  0.0511 -0.1030  1.0781
    6MOL    C23 2133   7.284   0.708   4.854  0.8481  0.5937  0.0465
    6MOL    C24 2134   7.362   0.654   4.729 -1.1512 -0.1433  0.2136
    6MOL    C25 2135   7.253   0.599   4.621 -0.1635  0.2908  0.5988
    6MOL    C26 2136   7.298   0.571   4.482  0.2797  0.3806  0.1224
    6MOL    C27 2137   7.177   0.594   4.390  0.2824  0.2335 -0.5414
    6MOL    C28 2138   7.409   0.670   4.444  0.3113 -0.2868  0.4706
    6MOL    C29 2139   7.335   0.425   4.468  1.2155 -0.0445 -0.9084
    6MOL    H30 2140   7.351   0.740   4.933 -0.7986  0.8921  1.3554
    6MOL    H31 2141   7.219   0.631   4.896 -0.5359  1.8923  0.3228
    6MOL    H32 2142   7.426   0.733   4.689 -2.2381 -0.4030 -2.1147
    6MOL    H33 2143   7.186   0.683   4.606  1.5104  1.7054  0.8112
    6MOL    H34 2144   7.187   0.518   4.653 -0.2144  0.8065  1.8443
    6MOL    H35 2145   7.095   0.528   4.416  1.7528 -2.1984 -1.8199
    6MOL    H36 2146   7.142   0.696   4.400 -2.1598 -0.5828 -0.4507
    6MOL    H37 2147   7.192   0.581   4.283  1.9990 -1.1790 -0.1653
    6MOL    H38 2148   7.434   0.650   4.339  1.4022 -0.1429  0.6901
    6MOL    H39 2149   7.381   0.775   4.453  0.6587  0.0045 -1.5944
    6MOL    H40 2150   7.503   0.657   4.497  1.4196  0.2970 -1.2956
    6MOL    H41 2151   7.337   0.407   4.360  1.7660  0.7854 -1.0436
    6MOL    H42 2152   7.250   0.366   4.502  1.9141 -0.6058 -0.1190
    6MOL    H43 2153   7.419   0.383   4.523  0.2001 -0.3699  0.4183
    6MOL    C44 2154   7.461   0.536   4.771 -0.4270 -0.4380  0.2378
    6MOL    C45 2155   7.566   0.567   4.876 -0.1935  0.6848  0.2273
    6MOL    C46 2156   7.690   0.630   4.806  0.3136  0.0878  0.1761
    6MOL    C47 2157   7.760   0.750   4.880 -0.4224 -0.0024  0.5185
    6MOL    C48 2158   0.021   0.721   5.027 -0.0555  0.1761  0.0143
    6MOL    C49 2159   7.672   0.870   4.872  0.5416  0.0241 -0.1107
    6MOL    C50 2160   0.125   0.790   4.813 -0.5435  0.0671 -0.7497
    6MOL    H51 2161   7.385   0.468   4.811 -0.3049 -0.6071  0.1837
    6MOL    H52 2162   7.504   0.480   4.688  1.0028 -0.1870  0.7993
    6MOL    H53 2163   7.519   0.639   4.943  0.1272  1.1870 -0.0846
    6MOL    H54 2164   7.671   0.657   4.702 -1.0965  1.6520  0.8359
    6MOL    H55 2165   7.763   0.549   4.799 -2.6594 -2.4899 -2.2945
    6MOL    H56 2166   0.069   0.801   5.083  0.4598  0.3252 -0.6319
    6MOL    H57 2167   0.078   0.631   5.046  0.9379  0.2081 -2.6035
    6MOL    H58 2168   7.693   0.708   5.080  0.1140 -2.1902 -0.2274
    6MOL    H59 2169   7.629   0.879   4.772  0.7390  0.3114 -0.1691
    6MOL    H60 2170   7.593   0.873   4.947 -1.0043  0.5314 -1.7262
    6MOL    H61 2171   7.729   0.963   4.882  0.8261 -0.3010  1.2657
    6MOL    H62 2172   0.171   0.875   4.863 -0.3741 -0.6385  0.3257
    6MOL    H63 2173   0.195   0.706   4.810 -0.6601 -0.0574 -0.0442
    6MOL    H64 2174   0.131   0.825   4.711 -1.5254  3.8883  0.4390
    6MOL    C65 2175   7.602   0.442   4.964  0.0865 -0.2122  0.2761
    6MOL    C66 2176   7.495   0.409   5.072 -0.6688  0.0350 -0.0339
    6MOL    C67 2177   7.538   0.467   5.207 -0.1280 -0.2227 -0.4743
    6MOL    C68 2178   7.430   0.535   5.291 -0.2202 -0.7904 -0.0907
    6MOL    C69 2179   7.366   0.657   5.222 -0.4892  0.9885 -0.0643
    6MOL    C70 2180   7.315   0.438   5.336 -0.1222  0.3888  0.5404
    6MOL    C71 2181   7.493   0.573   5.424  0.5636 -0.1345  0.3770
    6MOL    H72 2182   7.620   0.365   4.889 -1.8488  1.1287 -1.6246
    6MOL    H73 2183   7.701   0.451   5.009  0.7050  1.4210 -1.3503
    6MOL    H74 2184   7.396   0.449   5.049 -0.8325  1.1533  2.4127
    6MOL    H75 2185   7.622   0.535   5.198  1.0005 -1.1850  2.0435
    6MOL    H76 2186   7.596   0.390   5.259 -0.2149  0.7388  1.1020
    6MOL    H77 2187   7.450   0.717   5.188  1.2620  0.0167  2.3501
    6MOL    H78 2188   7.298   0.626   5.142  0.1017 -0.4702 -0.0143
    6MOL    H79 2189   7.307   0.714   5.294  1.4325  0.4370  2.0053
    6MOL    H80 2190   7.260   0.401   5.249 -1.0260  0.6818  0.9890
    6MOL    H81 2191   7.244   0.490   5.400  0.8569  3.2421 -0.6049
    6MOL    H82 2192   7.353   0.355   5.395  1.3518  1.1091  0.6181
    6MOL    H83 2193   7.579   0.640   5.416  0.2698 -0.0670 -2.7719
    6MOL    H84 2194   7.544   0.488   5.470  1.2112 -0.8840 -1.6658
    6MOL    H85 2195   7.432   0.616   5.503 -0.6590 -1.2116  0.0295
    6MOL    C86 2196   7.485   0.254   5.091 -0.9155 -0.0279 -0.3438
    6MOL    C87 2197   7.430   0.175   4.974  0.5678  0.6467  0.1792
    6MOL    C88 2198   7.276   0.176   4.992  0.0771  0.1711  0.3298
    6MOL    C89 2199   7.188   0.145   4.868 -0.5406  0.6402 -0.4210
    6MOL    C90 2200   7.217   0.248   4.752  0.0300  0.6806  0.3752
    6MOL    C91 2201   7.041   0.148   4.910 -0.1100 -0.0329 -0.6851
    6MOL    C92 2202   7.217   0.008   4.804  0.0941 -0.1785 -0.1198
    6MOL    H93 2203   7.430   0.227   5.181  0.0290 -0.4122  0.1349
    6MOL    H94 2204   7.588   0.224   5.109 -0.9981  1.3141  2.6121
    6MOL    H95 2205   7.451   0.224   4.879  1.3376 -1.7580 -0.9240
    6MOL    H96 2206   7.257   0.278   5.025  0.9895  1.2612 -2.4048
    6MOL    H97 2207   7.243   0.114   5.076 -1.3135 -1.4890 -1.3830
    6MOL    H98 2208   7.310   0.225   4.699  0.6353  1.4217  1.0981
    6MOL    H99 2209   7.239   0.345   4.797  2.4510  0.2232  0.2562
    6MOL   H100 2210   7.133   0.269   4.686 -0.4746  1.4567  1.2556
    6MOL   H101 2211   7.014   0.055   4.959  0.7476  0.8276  1.4756
    6MOL   H102 2212   7.018   0.233   4.975 -0.2365 -1.0822  0.6726
    6MOL   H103 2213   6.976   0.155   4.823 -2.1339 -0.5010  0.7705
    6MOL   H104 2214   7.130   7.751   4.742 -3.8230  2.9393  3.8835
    6MOL   H105 2215   7.302   0.011   4.735  0.0262 -2.4705 -0.3398
    6MOL   H106 2216   7.219   7.691   4.875 -0.4604  0.6972  0.9372
    6MOL   C107 2217   7.494   0.031   4.970  0.2885  0.0608  0.1984
    6MOL   C108 2218   7.613   0.014   4.871 -0.1849  0.2577 -0.1547
    6MOL   C109 2219   7.685   7.652   4.917  0.2616 -0.0867  0.2526
    6MOL   C110 2220   0.053   7.663   4.998  0.7155  1.0607  0.0492
    6MOL   C111 2221   0.081   7.520   5.045 -0.8168  0.6110 -0.2077
    6MOL   C112 2222   0.041   7.748   5.128 -0.1365  0.2590 -0.3026
    6MOL   C113 2223   0.163   7.717   4.909 -0.7737 -0.0450  0.7532
    6MOL   H114 2224   7.412   7.727   4.956 -0.6702  0.9721  1.0895
    6MOL   H115 2225   7.522   0.012   5.074  0.2898 -0.8382  0.0368
    6MOL   H116 2226   7.677   0.100   4.891 -1.1983  0.4488  2.4269
    6MOL   H117 2227   7.611   7.588   4.964 -0.6820  1.9735  1.5940
    6MOL   H118 2228   7.712   7.597   4.827  1.7191 -0.2254  0.7583
    6MOL   H119 2229   0.106   7.443   4.972 -2.7977 -0.9830  0.7370
    6MOL   H120 2230   0.175   7.534   5.098 -0.1590  1.1748 -1.4759
    6MOL   H121 2231   0.007   7.487   5.118 -0.8360  0.9199 -0.0884
    6MOL   H122 2232   7.753   7.699   5.209  1.2377  0.7474  0.9261
    6MOL   H123 2233   0.012   0.085   5.107  0.2267  0.6143  0.8813
    6MOL   H124 2234   0.141   7.764   5.169  0.8900 -1.3089 -2.0438
    6MOL   H125 2235   0.181   7.658   4.818  0.1949  0.6082  0.5084
    6MOL   H126 2236   0.254   7.703   4.967 -1.2384  0.2102  1.5428
    6MOL   H127 2237   0.161   0.054   4.874  0.4227 -0.1234  0.4199
    6MOL   C128 2238   7.576   0.015   4.717  0.5557 -0.0630  0.4425
    6MOL   C129 2239   7.705   0.020   4.620 -0.4100  0.0831 -0.0591
    6MOL   C130 2240   7.660   7.765   4.473  0.6301 -0.1102 -0.8078
    6MOL   C131 2241   7.672   7.617   4.424 -0.2826  0.7676 -1.1459
    6MOL   C132 2242   7.603   7.606   4.286  0.2589  0.4385  0.4644
    6MOL   C133 2243   7.604   7.511   4.519 -0.2217  0.2178 -0.4301
    6MOL   C134 2244   0.061   7.583   4.402  0.3127 -0.1938 -0.2796
    6MOL   H135 2245   7.517   0.105   4.703 -0.4385 -0.8615 -0.5640
    6MOL   H136 2246   7.509   7.701   4.686 -1.2827  1.2136  1.0715
    6MOL   H137 2247   0.019   7.716   4.646  0.0952  0.6784  0.0164
    6MOL   H138 2248   7.557   0.033   4.468  1.8070  3.5221 -2.8328
    6MOL   H139 2249   7.702   0.068   4.400 -1.8198  0.7903 -1.4053
    6MOL   H140 2250   7.624   7.511   4.238  1.2658  0.3805  1.0161
    6MOL   H141 2251   7.650   7.678   4.219  0.6508  0.0869  0.3588
    6MOL   H142 2252   7.495   7.622   4.281  0.1768 -0.1376  0.3346
    6MOL   H143 2253   7.504   7.538   4.551 -0.9170 -2.3859 -0.2421
    6MOL   H144 2254   7.658   7.485   4.609 -0.9365 -0.8341 -0.2860
    6MOL   H145 2255   7.609   7.412   4.473 -0.1840  0.1892 -0.3662
    6MOL   H146 2256   0.109   7.646   4.328 -0.6224  0.7970 -0.0562
    6MOL   H147 2257   0.108   7.593   4.500  0.7837 -0.4749 -0.4769
    6MOL   H148 2258   0.075   7.483   4.362  1.5939  0.5001 -1.5758
    6MOL   C149 2259   0.008   0.165   4.627 -0.0326  0.8345 -0.6397
    6MOL   C150 2260   0.138   0.186   4.538  0.0085 -0.2971 -0.9961
    6MOL   C151 2261   0.170   0.335   4.543 -0.5178 -0.1640  0.2882
    6MOL   C152 2262   0.113   0.434   4.431 -0.2225 -0.8884 -0.0874
    6MOL   C153 2263   7.727   0.430   4.425 -0.3170  0.3702 -0.3172
    6MOL   C154 2264   0.165   0.381   4.293  0.3918 -0.2168 -0.6391
    6MOL   C155 2265   0.161   0.573   4.466  0.0021 -0.0345  0.5181
    6MOL   H156 2266   0.035   0.189   4.730  1.4525 -0.4760 -0.7008
    6MOL   H157 2267   7.694   0.237   4.609 -0.9213  0.6608  2.2768
    6MOL   H158 2268   0.123   0.146   4.438 -1.7710 -1.2218 -0.3905
    6MOL   H159 2269   0.278   0.353   4.542 -0.9656  2.8193 -0.7672
    6MOL   H160 2270   0.147   0.378   4.641 -1.1842  1.8595 -0.7105
    6MOL   H161 2271   7.699   0.325   4.421 -2.2633  0.9418 -2.6055
    6MOL   H162 2272   7.670   0.467   4.510 -0.2816 -2.0043  0.7698
    6MOL   H163 2273   7.696   0.472   4.329  0.0229  1.6617  0.1246
    6MOL   H164 2274   0.125   0.283   4.267  0.2052 -0.2391 -0.2834
    6MOL   H165 2275   0.272   0.364   4.303  0.4452  1.1717  1.4613
    6MOL   H166 2276   0.164   0.456   4.214 -0.0106  1.2858  0.7682
    6MOL   H167 2277   0.126   0.602   4.565  0.6405 -0.7231  0.9434
    6MOL   H168 2278   0.270   0.582   4.458  0.0776 -1.4999 -0.3223
    6MOL   H169 2279   0.117   0.646   4.397 -0.9468  0.1310  1.2941
    6MOL   C170 2280   0.255   0.107   4.605 -0.4605 -0.3672  0.0581
    6MOL   C171 2281   0.388   0.100   4.522 -0.1533  0.1782  0.7843
    6MOL   C172 2282   0.372   0.018   4.388  0.4054  0.3138 -0.0781
    6MOL   C173 2283   0.474   0.033   4.274  0.7372 -0.8532  0.1378
    6MOL   C174 2284   0.436   7.700   4.160  0.2982  0.4177 -0.8833
    6MOL   C175 2285   0.611   0.006   4.322 -0.5298  0.1907  0.9029
    6MOL   C176 2286   0.472   0.173   4.212  0.3812  0.1846  0.5330
    6MOL   H177 2287   0.224   0.004   4.621  0.9987 -1.1499 -1.8956
    6MOL   H178 2288   0.277   0.138   4.707  0.0866 -1.7836  0.3933
    6MOL   H179 2289   0.421   0.202   4.503  0.2707  0.0973  1.0733
    6MOL   H180 2290   0.353   7.679   4.410 -0.2139  0.2661 -0.8249
    6MOL   H181 2291   0.282   0.047   4.334  0.6643  1.1417 -0.0764
    6MOL   H182 2292   0.331   7.705   4.130 -0.1796 -1.0555  0.4562
    6MOL   H183 2293   0.495   7.719   4.070  0.2984 -0.0579 -0.9802
    6MOL   H184 2294   0.445   7.597   4.193 -0.8997  0.1807 -1.2858
    6MOL   H185 2295   0.685   7.755   4.245 -1.7815 -1.4034  0.0031
    6MOL   H186 2296   0.637   0.099   4.372  1.4400 -0.5909  1.3662
    6MOL   H187 2297   0.620   7.691   4.395 -3.1587 -0.3784  0.6503
    6MOL   H188 2298   0.509   0.259   4.268  1.0036 -0.8693  1.7618
    6MOL   H189 2299   0.536   0.171   4.125  0.2655  2.0545  0.3867
    6MOL   H190 2300   0.377   0.190   4.161  1.0719  2.3303 -0.0972
    6MOL   C191 2301   0.485   0.029   4.618 -0.4167 -0.3358  0.4520
    6MOL   C192 2302   0.516   0.099   4.761 -0.3930 -0.7681  0.4008
    6MOL   C193 2303   0.533   0.256   4.750 -0.6292 -0.5874 -0.0303
    6MOL   C194 2304   0.553   0.346   4.868  0.3310 -0.3298 -0.3307
    6MOL   C195 2305   0.455   0.315   4.985 -0.2153  0.0188 -0.3748
    6MOL   C196 2306   0.539   0.492   4.814  0.8258  0.1269 -0.4967
    6MOL   C197 2307   0.690   0.324   4.938 -0.3116 -0.7355  0.6570
    6MOL   H198 2308   0.438   7.699   4.643 -0.4440 -0.0056  1.7171
    6MOL   H199 2309   0.580   0.028   4.565 -0.5108 -0.1583  0.2803
    6MOL   H200 2310   0.433   0.072   4.827 -0.2350 -1.4336  0.3401
    6MOL   H201 2311   0.438   0.296   4.713 -1.1590 -1.5568  0.2607
    6MOL   H202 2312   0.610   0.275   4.675 -0.5813  0.0221  0.1753
    6MOL   H203 2313   0.472   0.370   5.077  1.1172  1.4344 -1.4441
    6MOL   H204 2314   0.350   0.322   4.955 -0.2431 -1.3729 -0.6844
    6MOL   H205 2315   0.467   0.210   5.013  0.4913 -0.5273 -2.6343
    6MOL   H206 2316   0.584   0.510   4.716  0.2105 -1.0179 -1.0093
    6MOL   H207 2317   0.432   0.510   4.807 -0.1662 -3.8116  2.2532
    6MOL   H208 2318   0.581   0.558   4.890 -0.3261 -0.6904  0.8740
    6MOL   H209 2319   0.711   0.412   5.000  0.2045 -0.3761 -0.0210
    6MOL   H210 2320   0.705   0.245   5.012  0.8829  0.0442  1.2577
    6MOL   H211 2321   0.768   0.312   4.863 -0.6409 -0.1147  0.2044
    6MOL   C212 2322   0.638   0.021   4.826 -0.4085  0.2694 -0.7972
    6MOL   C213 2323   0.620   7.633   4.842  0.1644  0.4472 -0.5894
    6MOL   C214 2324   0.694   7.582   4.968 -0.0860  0.3484  0.8289
    6MOL   C215 2325   0.614   7.554   5.099 -0.1675 -0.0781  0.1524
    6MOL   C216 2326   0.712   7.498   5.202 -0.4323 -0.0058  0.1768
    6MOL   C217 2327   0.554   7.685   5.157 -0.2034  0.2372  0.0834
    6MOL   C218 2328   0.508   7.448   5.082 -0.9003 -0.0819 -0.7407
    6MOL   H219 2329   0.738   0.041   4.788  0.2022  0.2910  0.7748
    6MOL   H220 2330   0.642   0.063   4.927 -0.0916 -1.7400  0.0594
    6MOL   H221 2331   0.514   7.608   4.849  0.4843 -0.1389  3.4905
    6MOL   H222 2332   0.779   7.649   4.984 -0.2667  0.5394  0.9767
    6MOL   H223 2333   0.751   7.493   4.941 -0.1700  0.7282 -0.6760
    6MOL   H224 2334   0.768   7.410   5.168 -2.4989 -0.8877 -1.0136
    6MOL   H225 2335   0.661   7.459   5.290  0.2011  0.4946  0.7735
    6MOL   H226 2336   0.795   7.566   5.221  0.0888 -0.1048 -1.6658
    6MOL   H227 2337   0.634   7.757   5.178  0.2107  0.5079 -2.2917
    6MOL   H228 2338   0.487   7.729   5.084  0.1526  1.1680  0.3037
    6MOL   H229 2339   0.497   7.648   5.242 -0.2021 -3.1246 -1.3134
    6MOL   H230 2340   0.468   7.414   5.177 -3.0193  1.2463 -1.1330
    6MOL   H231 2341   0.567   7.373   5.029  2.3483  1.5922  0.3777
    6MOL   H232 2342   0.425   7.482   5.020  0.1142  0.6987 -1.7013
    6MOL   C233 2343   0.679   7.545   4.722  0.1755 -0.2324  0.2888
    6MOL   C234 2344   0.633   7.402   4.705  0.2395  0.2707  0.2434
    6MOL   C235 2345   0.478   7.390   4.688  0.2100 -0.3969 -0.4023
    6MOL   C236 2346   0.402   7.256   4.677  0.4751 -0.3149 -1.1342
    6MOL   C237 2347   0.386   7.226   4.533  0.1344 -0.1541 -0.2317
    6MOL   C238 2348   0.472   7.136   4.747  0.4625 -0.0148 -0.1965
    6MOL   C239 2349   0.256   7.280   4.727  0.4347  0.5044  0.2779
    6MOL   H240 2350   0.788   7.551   4.718  0.0684  1.8139 -0.1859
    6MOL   H241 2351   0.659   7.595   4.627  1.2261 -0.7897 -0.2339
    6MOL   H242 2352   0.661   7.343   4.793  0.1610  0.1165  0.1633
    6MOL   H243 2353   0.442   7.419   4.787  1.8015  0.9360 -0.1799
    6MOL   H244 2354   0.445   7.453   4.606 -0.0409  1.5370  1.1390
    6MOL   H245 2355   0.322   7.294   4.477  0.3546 -1.4691 -2.0890
    6MOL   H246 2356   0.347   7.126   4.515  0.6602 -0.5480  0.7564
    6MOL   H247 2357   0.483   7.232   4.483  1.3386  0.6685  2.1164
    6MOL   H248 2358   0.566   7.114   4.697 -0.6157 -0.4264 -2.1189
    6MOL   H249 2359   0.501   7.168   4.846  0.2305 -0.0852 -0.1066
    6MOL   H250 2360   0.408   7.048   4.752 -0.6925  0.8381  0.2838
    6MOL   H251 2361   0.205   7.359   4.672  1.0234  0.3939 -0.4310
    6MOL   H252 2362   0.206   7.184   4.710 -0.2935  0.6157  1.7352
    6MOL   H253 2363   0.251   7.301   4.834  1.4475  0.8452  0.2682
    6MOL   C254 2364   0.704   7.347   4.575  0.3757  0.3638 -0.0496
    6MOL   C255 2365   0.856   7.338   4.562 -0.2512 -0.4163  0.4308
    6MOL   C256 2366   0.896   7.278   4.430  0.3817 -0.2910 -0.9807
    6MOL   C257 2367   0.890   7.361   4.298 -0.8297 -0.3602  0.3121
    6MOL   C258 2368   0.765   7.434   4.250 -0.0650  0.3190  0.5583
    6MOL   C259 2369   0.949   7.275   4.188 -0.4331 -0.1852 -0.2074
    6MOL   C260 2370   0.997   7.468   4.324  0.0206  0.2079 -0.2065
    6MOL   H261 2371   0.665   7.381   4.479  1.3061  1.8201  0.0712
    6MOL   H262 2372   0.668   7.245   4.566  1.1398  0.2806 -2.2697
    6MOL   H263 2373   0.901   7.436   4.579  1.0075 -1.2296  2.0065
    6MOL   H264 2374   0.996   7.240   4.447  2.2560  4.8349  0.4771
    6MOL   H265 2375   0.825   7.197   4.412 -1.3356  1.1026 -0.6031
    6MOL   H266 2376   0.729   7.506   4.322 -1.3837 -0.7020  0.9361
    6MOL   H267 2377   0.693   7.358   4.220  0.4857  0.0506 -0.1216
    6MOL   H268 2378   0.791   7.493   4.162  3.0540 -0.0507  1.1759
    6MOL   H269 2379   0.980   7.343   4.108 -3.0679 -1.2798 -2.2611
    6MOL   H270 2380   0.883   7.199   4.146 -0.1913 -0.2005 -0.5649
    6MOL   H271 2381   1.040   7.226   4.221 -0.6165 -0.3867  0.0002
    6MOL   H272 2382   1.033   7.515   4.232  1.9267 -1.1638 -0.2007
    6MOL   H273 2383   0.964   7.544   4.394 -1.4940 -0.2911 -0.3718
    6MOL   H274 2384   1.087   7.427   4.370 -0.6757 -0.0394  0.9564
    6MOL   C275 2385   0.912   7.269   4.691  0.1599  0.3536 -0.0552
    6MOL   C276 2386   1.059   7.240   4.701  0.9120 -0.1394 -0.0398
    6MOL   C277 2387   1.152   7.365   4.670  0.0015 -0.1892 -0.3346
    6MOL   C278 2388   1.300   7.328   4.639 -0.6007 -0.5425 -0.1277
    6MOL   C279 2389   1.319   7.198   4.556  0.0325 -0.0130 -0.1737
    6MOL   C280 2390   1.365   7.453   4.567 -0.1388  0.9982  0.5564
    6MOL   C281 2391   1.378   7.310   4.766 -0.6361  0.7607  0.1536
    6MOL   H282 2392   0.892   7.330   4.779  1.4366 -0.0759  0.5294
    6MOL   H283 2393   0.859   7.175   4.710 -0.8553  0.7473 -0.8669
    6MOL   H284 2394   1.072   7.169   4.619 -0.7174 -0.0132 -0.4293
    6MOL   H285 2395   1.142   7.430   4.757 -0.4176 -2.2349  1.1979
    6MOL   H286 2396   1.117   7.431   4.591 -1.8852 -0.0634  0.5818
    6MOL   H287 2397   1.283   7.103   4.597  1.1646  0.3257  1.6860
    6MOL   H288 2398   1.280   7.211   4.455 -1.0968  0.0065  0.2560
    6MOL   H289 2399   1.424   7.174   4.539  0.7108  1.0521  2.3060
    6MOL   H290 2400   1.352   7.547   4.621  0.0028  1.6961 -0.6299
    6MOL   H291 2401   1.322   7.458   4.468  0.6165 -3.8550 -0.1655
    6MOL   H292 2402   1.472   7.434   4.568 -0.6482 -2.2182  0.1168
    6MOL   H293 2403   1.338   7.369   4.848  1.3212  1.4925  0.6107
    6MOL   H294 2404   1.482   7.341   4.751  0.2088 -2.2388 -0.6246
    6MOL   H295 2405   1.398   7.205   4.791  0.5714  0.8200 -0.5084
    6MOL   C296 2406   1.085   7.174   4.843 -0.0198 -0.3388  1.1963
    6MOL   C297 2407   1.053   7.027   4.865 -0.1006  0.0143 -0.1100
    6MOL   C298 2408   0.992   6.996   5.006 -0.0137  0.2122 -0.1405
    6MOL   C299 2409   0.844   7.008   5.041  0.7228  0.9014 -0.0358
    6MOL   C300 2410   0.826   6.922   5.168  0.3727  0.2712 -0.5514
    6MOL   C301 2411   0.806   7.156   5.069  0.3684  0.2950  0.3002
    6MOL   C302 2412   0.738   6.947   4.946 -0.4175  0.6719  0.4489
    6MOL   H303 2413   1.040   7.239   4.918 -0.7614  0.7095 -0.1283
    6MOL   H304 2414   1.192   7.171   4.864  0.3730 -0.3468 -0.6792
    6MOL   H305 2415   0.990   6.993   4.784 -0.6282  0.4191  0.1277
    6MOL   H306 2416   1.040   7.055   5.084 -2.2163  1.9164 -0.0513
    6MOL   H307 2417   1.032   6.896   5.026  1.8553  0.7335 -1.2107
    6MOL   H308 2418   0.876   6.977   5.248  1.2009  0.0524 -0.9039
    6MOL   H309 2419   0.723   6.918   5.201  0.2188 -1.4701 -1.1881
    6MOL   H310 2420   0.867   6.823   5.149 -0.1508  0.0085 -0.2910
    6MOL   H311 2421   0.707   7.168   5.113  0.8913  0.9340  1.3299
    6MOL   H312 2422   0.874   7.208   5.137 -0.5462 -0.9033  2.1935
    6MOL   H313 2423   0.803   7.212   4.976  0.1987  1.1313  0.8036
    6MOL   H314 2424   0.638   6.959   4.987  0.1034 -0.3548  2.0503
    6MOL   H315 2425   0.736   6.994   4.847  1.4748 -0.5914 -0.2230
    6MOL   H316 2426   0.754   6.840   4.933 -0.0228  0.5222  2.0863
    6MOL   C317 2427   1.166   6.935   4.828 -0.0952 -0.1706  0.0868
    6MOL   C318 2428   1.143   6.782   4.788  0.0833 -0.1447 -0.1750
    6MOL   C319 2429   1.078   6.763   4.646  0.0565 -0.3503  0.5120
    6MOL   C320 2430   0.979   6.644   4.638 -0.1800  0.2016  0.4717
    6MOL   C321 2431   1.040   6.512   4.673  0.2313  0.1018  0.0451
    6MOL   C322 2432   0.949   6.628   4.481  0.7665 -0.1603  0.3067
    6MOL   C323 2433   0.853   6.665   4.717 -0.2968 -0.3992  0.1607
    6MOL   H324 2434   1.211   6.986   4.742 -0.9260  0.1800 -0.1440
    6MOL   H325 2435   1.241   6.937   4.907  0.8349 -1.0153 -0.7491
    6MOL   H326 2436   1.078   6.746   4.868 -1.4283 -0.5176 -1.5380
    6MOL   H327 2437   1.154   6.758   4.568 -0.2732  1.3739  0.0531
    6MOL   H328 2438   1.022   6.850   4.609 -0.6741 -0.8066  0.5486
    6MOL   H329 2439   1.138   6.502   4.625 -0.3511 -0.8972 -0.9364
    6MOL   H330 2440   0.978   6.425   4.652  0.9155 -1.0256  2.4632
    6MOL   H331 2441   1.061   6.505   4.780 -0.1067  0.4756  0.1351
    6MOL   H332 2442   0.906   6.720   4.440 -0.9396 -1.4767 -0.9526
    6MOL   H333 2443   1.047   6.621   4.433  0.1763  1.2989 -1.1854
    6MOL   H334 2444   0.886   6.547   4.444  1.7479 -0.7428 -0.0894
    6MOL   H335 2445   0.787   6.740   4.674  0.9262  0.8222  0.3959
    6MOL   H336 2446   0.886   6.701   4.814  0.6496  1.1273 -0.7093
    6MOL   H337 2447   0.804   6.571   4.744  2.3868 -1.0464  2.9525
    6MOL   C338 2448   1.278   6.705   4.790  0.0549 -0.3918  0.1242
    6MOL   C339 2449   1.347   6.687   4.927  0.7589  0.1884 -0.3722
    6MOL   C340 2450   1.493   6.649   4.904 -0.4335  0.3423 -0.7689
    6MOL   C341 2451   1.585   6.769   4.919  0.2291  0.5426  0.5244
    6MOL   C342 2452   1.580   6.841   5.054  0.0183 -0.0132  0.4839
    6MOL   C343 2453   1.728   6.721   4.902  0.8014 -0.2803 -0.7625
    6MOL   C344 2454   1.560   6.872   4.809  0.1655  0.3300  0.3963
    6MOL   H345 2455   1.345   6.758   4.723 -0.9002  2.3788  1.2919
    6MOL   H346 2456   1.277   6.601   4.756  0.4605 -0.2252 -0.3957
    6MOL   H347 2457   1.338   6.774   4.992  0.6459 -0.9458  1.1609
    6MOL   H348 2458   1.512   6.597   4.810 -1.8847  1.7697 -1.8919
    6MOL   H349 2459   1.526   6.573   4.975  1.0374  0.6792 -1.0815
    6MOL   H350 2460   1.655   6.919   5.058  2.7588 -2.5167 -0.3533
    6MOL   H351 2461   1.486   6.893   5.071  0.8083  1.2353  1.0718
    6MOL   H352 2462   1.602   6.781   5.142 -0.0127 -2.1434 -0.9003
    6MOL   H353 2463   1.748   6.648   4.981 -0.4795 -0.1070 -0.2693
    6MOL   H354 2464   1.756   6.687   4.802  2.6194  2.7674 -1.3407
    6MOL   H355 2465   1.795   6.802   4.930  1.8461 -1.3561 -0.1118
    6MOL   H356 2466   1.643   6.941   4.796  0.3015 -0.1865 -1.5579
    6MOL   H357 2467   1.562   6.829   4.709 -0.9979  2.4414 -0.5508
    6MOL   H358 2468   1.468   6.928   4.822  0.1764  0.8014 -1.4776
    6MOL   C359 2469   1.284   6.563   5.002  0.2510  0.2369  0.7191
    6MOL   C360 2470   1.308   6.565   5.156  0.4874  0.5408  0.3532
    6MOL   C361 2471   1.288   6.426   5.211 -0.0389 -0.2153 -0.2861
    6MOL   C362 2472   1.414   6.352   5.260 -0.6170  0.1212 -0.0098
    6MOL   C363 2473   1.498   6.291   5.146 -0.2815 -0.1233 -0.1377
    6MOL   C364 2474   1.372   6.227   5.342 -0.2667  0.3166  0.1067
    6MOL   C365 2475   1.504   6.442   5.351  0.4743 -0.0626 -0.4830
    6MOL   H366 2476   1.325   6.472   4.958  0.5015  0.0658  1.3056
    6MOL   H367 2477   1.177   6.566   4.979  0.4488  0.4708 -0.1692
    6MOL   H368 2478   1.407   6.603   5.179  1.0827 -1.2998  0.9115
    6MOL   H369 2479   1.203   6.437   5.278 -0.6349  0.1397 -1.0893
    6MOL   H370 2480   1.240   6.367   5.133 -2.8416 -0.6319  1.6698
    6MOL   H371 2481   1.588   6.248   5.189  0.9785  1.4511 -1.1670
    6MOL   H372 2482   1.445   6.211   5.094  0.5603  0.2086 -1.5024
    6MOL   H373 2483   1.521   6.373   5.078  0.0525 -0.0421  0.0723
    6MOL   H374 2484   1.461   6.180   5.383 -1.2364 -1.7298 -0.0534
    6MOL   H375 2485   1.317   6.168   5.268  0.3141  0.7835 -0.7113
    6MOL   H376 2486   1.305   6.258   5.422 -1.3167  3.1421 -1.7787
    6MOL   H377 2487   1.590   6.383   5.382  0.6317  0.7338  0.6460
    6MOL   H378 2488   1.454   6.465   5.445  1.7858  2.2767 -0.3113
    6MOL   H379 2489   1.532   6.539   5.310 -0.8014  0.0731 -1.0440
    6MOL   C380 2490   1.197   6.659   5.215 -0.3095  0.3165  0.2617
    6MOL   C381 2491   1.231   6.714   5.357  0.1041  0.0809 -0.2170
    6MOL   C382 2492   1.099   6.769   5.412 -0.2030 -0.6227 -0.1668
    6MOL   C383 2493   1.071   6.783   5.564  0.2291 -0.4188  0.4002
    6MOL   C384 2494   0.952   6.875   5.574  0.1977 -0.7169  0.2136
    6MOL   C385 2495   1.186   6.842   5.645 -0.0021  0.2695  0.9849
    6MOL   C386 2496   1.032   6.648   5.629  1.1030 -0.4305  0.3441
    6MOL   H387 2497   1.100   6.611   5.210 -0.2914  0.2252  0.7375
    6MOL   H388 2498   1.184   6.744   5.148  0.6778  0.7065  0.5468
    6MOL   H389 2499   1.260   6.628   5.418  1.4537 -0.1484 -1.1592
    6MOL   H390 2500   1.071   6.860   5.360  0.0865 -0.4466 -0.0143
    6MOL   H391 2501   1.023   6.701   5.373  2.4450 -2.5631 -2.1802
    6MOL   H392 2502   0.924   6.893   5.678  1.8439 -1.6450  0.8433
    6MOL   H393 2503   0.978   6.974   5.535  0.8138 -0.3843  1.4143
    6MOL   H394 2504   0.872   6.828   5.518 -0.9546  0.5553  0.7691
    6MOL   H395 2505   1.154   6.844   5.749 -0.5877 -0.6306  0.8262
    6MOL   H396 2506   1.226   6.937   5.609  0.1541 -0.0596  0.2797
    6MOL   H397 2507   1.267   6.769   5.645 -1.3789 -1.2927  2.1296
    6MOL   H398 2508   1.118   6.582   5.634  1.6288 -0.1890 -3.7608
    6MOL   H399 2509   0.964   6.588   5.569  1.3271 -1.4259  1.0613
    6MOL   H400 2510   0.979   6.659   5.724 -2.6786 -1.7008 -1.5262
    6MOL   C401 2511   1.356   6.808   5.364 -0.7020  0.1943  0.1030
    6MOL   C402 2512   1.327   6.953   5.312  0.1155  0.6996  0.0555
    6MOL   C403 2513   1.449   7.033   5.349  0.3530  0.8994  0.0770
    6MOL   C404 2514   1.424   7.189   5.322 -0.2156 -0.5494  0.0849
    6MOL   C405 2515   1.561   7.254   5.301  0.6726 -0.4226 -0.6047
    6MOL   C406 2516   1.358   7.254   5.444 -0.4008  0.3755 -0.2483
    6MOL   C407 2517   1.334   7.216   5.193 -0.5639  0.5393 -0.2680
    6MOL   H408 2518   1.398   6.814   5.465  0.6878 -0.8759 -0.3879
    6MOL   H409 2519   1.430   6.754   5.304  0.9425  2.7559 -0.2325
    6MOL   H410 2520   1.303   6.961   5.206 -1.2712  1.0503  0.3931
    6MOL   H411 2521   1.533   6.993   5.292 -0.2650 -0.3100 -0.0197
    6MOL   H412 2522   1.476   7.022   5.454  2.4987 -1.1405 -0.6350
    6MOL   H413 2523   1.633   7.232   5.379  0.5084 -1.6632 -0.8013
    6MOL   H414 2524   1.559   7.361   5.278 -1.8746 -0.7343 -1.9940
    6MOL   H415 2525   1.609   7.220   5.209 -0.1069 -4.5190  0.4382
    6MOL   H416 2526   1.318   7.354   5.424  1.9787  1.9746  2.5693
    6MOL   H417 2527   1.425   7.260   5.530  0.6046  0.2086 -1.0195
    6MOL   H418 2528   1.280   7.186   5.479  0.3037 -0.8134 -0.9580
    6MOL   H419 2529   1.332   7.325   5.182 -2.4020  0.4827 -0.6084
    6MOL   H420 2530   1.382   7.173   5.105  0.5925  0.6425  0.3059
    6MOL   H421 2531   1.234   7.174   5.202 -0.4520  0.0254 -1.3566
    6MOL   H422 2532   1.237   6.995   5.356 -1.2014 -0.2786 -1.6648
    7MOL     C1 2533   6.896   1.691   0.252 -0.3976 -0.6653  0.0749
    7MOL     C2 2534   6.848   1.542   0.225  0.3847 -0.5191 -0.6425
    7MOL     C3 2535   6.773   1.538   0.086 -0.8827  0.9110 -0.4923
    7MOL     C4 2536   6.827   1.448   7.731  0.0075 -0.8132 -0.7962
    7MOL     C5 2537   6.807   1.308   0.011  0.0058  0.2270 -0.0924
    7MOL     C6 2538   6.735   1.477   7.609  0.2891 -0.5706 -0.1958
    7MOL     C7 2539   6.975   1.478   7.687 -0.3843 -0.2340  0.2172
    7MOL     H8 2540   6.980   1.705   0.184  0.4227  0.3658  1.2785
    7MOL     H9 2541   6.816   1.757   0.219  0.1294 -0.1253 -0.1028
    7MOL    H10 2542   6.939   1.483   0.231  0.5726 -0.1453  0.1992
    7MOL    H11 2543   6.785   1.640   0.051  1.7562  1.1965  1.0563
    7MOL    H12 2544   6.666   1.518   0.086 -0.7257 -0.0027  0.0647
    7MOL    H13 2545   6.709   1.280   0.051 -0.5777  1.8602 -0.3526
    7MOL    H14 2546   6.878   1.284   0.090 -1.7192 -0.4572  1.2984
    7MOL    H15 2547   6.827   1.236   7.697  0.8601  1.8437 -1.3658
    7MOL    H16 2548   6.630   1.449   7.617 -0.0780  0.0728 -2.3506
    7MOL    H17 2549   6.741   1.580   7.572 -2.4388 -0.2619  0.1066
    7MOL    H18 2550   6.769   1.412   7.529 -0.5255 -1.5436  0.2473
    7MOL    H19 2551   7.039   1.468   0.009 -0.8937  0.5009  0.6790
    7MOL    H20 2552   6.989   1.574   7.639  1.9567 -0.4612  0.3887
    7MOL    H21 2553   7.006   1.400   7.617 -0.9988 -1.1535  0.9546
    7MOL    H22 2554   6.911   1.712   0.358 -0.2390  1.4624 -0.3582
    7MOL    C23 2555   6.746   1.488   0.334 -0.0324  0.7863  0.3945
    7MOL    C24 2556   6.809   1.436   0.467 -0.5523 -0.5149  0.2518
    7MOL    C25 2557   6.862   1.297   0.449  0.0754  1.1717  0.1374
    7MOL    C26 2558   6.991   1.251   0.527 -0.0787  0.5291 -0.0328
    7MOL    C27 2559   7.120   1.302   0.478  0.3038 -0.9599  0.2157
    7MOL    C28 2560   6.980   1.282   0.680 -0.2585 -0.4923  0.6959
    7MOL    C29 2561   6.990   1.098   0.516  0.1919 -0.9690 -0.0290
    7MOL    H30 2562   6.660   1.552   0.356 -0.7298 -0.4917  1.4604
    7MOL    H31 2563   6.688   1.405   0.294 -0.4402  2.0065 -1.6175
    7MOL    H32 2564   6.898   1.496   0.491  0.8603 -1.5090 -2.2816
    7MOL    H33 2565   6.885   1.280   0.344  0.3626 -0.1544  0.4029
    7MOL    H34 2566   6.787   1.230   0.490  0.2936  1.5660  1.2258
    7MOL    H35 2567   7.204   1.289   0.547  1.3029  0.3430 -0.7155
    7MOL    H36 2568   7.152   1.265   0.380  0.6093 -0.3972  0.0993
    7MOL    H37 2569   7.113   1.411   0.470 -1.1509 -1.0423  0.3176
    7MOL    H38 2570   7.061   1.241   0.739  0.2707 -1.7446 -0.8700
    7MOL    H39 2571   6.989   1.390   0.689 -2.0745 -0.3200  0.6025
    7MOL    H40 2572   6.888   1.250   0.729  0.2050 -1.0148  1.2433
    7MOL    H41 2573   6.982   1.073   0.410  0.3329  1.9060 -0.7675
    7MOL    H42 2574   6.909   1.047   0.567 -0.0094  0.5362  1.1780
    7MOL    H43 2575   7.084   1.053   0.547  1.2456 -0.1996 -1.9525
    7MOL    C44 2576   6.712   1.457   0.582  0.6693  0.3885  0.1290
    7MOL    C45 2577   6.714   1.597   0.648  0.9033  0.4303 -0.6357
    7MOL    C46 2578   6.840   1.619   0.733 -0.2045  0.2448 -0.3606
    7MOL    C47 2579   6.876   1.772   0.775 -0.2302  0.3800 -0.8332
    7MOL    C48 2580   6.901   1.865   0.648  1.0984  0.4615  0.3030
    7MOL    C49 2581   7.016   1.758   0.843  1.3486  0.9211 -0.2186
    7MOL    C50 2582   6.778   1.834   0.884  0.5057 -0.1501 -0.1195
    7MOL    H51 2583   6.611   1.429   0.551  1.6673 -3.5593  0.1310
    7MOL    H52 2584   6.736   1.383   0.658 -2.9830  1.3310  2.3109
    7MOL    H53 2585   6.707   1.666   0.565 -1.0198 -2.4081 -2.9481
    7MOL    H54 2586   6.931   1.588   0.682  0.3212  0.1881  0.6036
    7MOL    H55 2587   6.832   1.554   0.820  2.8768 -0.0362 -0.2381
    7MOL    H56 2588   6.916   1.971   0.669  0.2901  0.8728 -1.1097
    7MOL    H57 2589   6.809   1.862   0.589  2.1867 -0.5462 -1.3884
    7MOL    H58 2590   6.985   1.828   0.589 -0.1603  0.6838 -1.6669
    7MOL    H59 2591   6.995   1.714   0.941 -1.5239  0.1202 -1.1325
    7MOL    H60 2592   7.099   1.715   0.787  2.5960  1.9307  0.8391
    7MOL    H61 2593   7.039   1.860   0.872  0.3838  1.0839 -0.0010
    7MOL    H62 2594   6.812   1.934   0.914 -0.1281  0.4026 -1.2184
    7MOL    H63 2595   6.677   1.851   0.847  0.6785 -1.8121 -1.3568
    7MOL    H64 2596   6.764   1.768   0.970  0.8094  1.6361  1.3494
    7MOL    C65 2597   6.583   1.594   0.728 -0.7148  0.2747  0.2347
    7MOL    C66 2598   6.461   1.657   0.651 -0.1396  0.9661  0.1479
    7MOL    C67 2599   6.484   1.811   0.653  0.1045  0.9377 -0.2418
    7MOL    C68 2600   6.435   1.901   0.532  0.6908 -0.4296 -0.5570
    7MOL    C69 2601   6.494   2.047   0.566  0.9219 -0.2608  0.1276
    7MOL    C70 2602   6.496   1.847   0.403  0.3369  0.3001 -0.8383
    7MOL    C71 2603   6.278   1.899   0.521  0.5055 -0.4881  0.4350
    7MOL    H72 2604   6.568   1.493   0.765  3.0745 -0.7738 -0.8383
    7MOL    H73 2605   6.588   1.650   0.822 -1.8573 -0.6200  0.8357
    7MOL    H74 2606   6.463   1.617   0.550 -0.2894  1.4899 -0.0656
    7MOL    H75 2607   6.590   1.836   0.657  0.9007 -2.4224  1.5222
    7MOL    H76 2608   6.434   1.853   0.740 -0.8510 -1.8596  0.6148
    7MOL    H77 2609   6.486   2.112   0.479  4.1478 -1.4632 -1.1353
    7MOL    H78 2610   6.441   2.094   0.648 -0.3275  0.9644 -1.3439
    7MOL    H79 2611   6.602   2.039   0.577  0.7495 -2.5163  0.5518
    7MOL    H80 2612   6.590   1.792   0.409 -0.8578 -1.8228 -1.0511
    7MOL    H81 2613   6.497   1.927   0.329  0.2560  0.0632 -1.0965
    7MOL    H82 2614   6.428   1.771   0.366 -1.0399  1.7049 -1.2255
    7MOL    H83 2615   6.254   1.951   0.428  1.4922  0.3880  0.6632
    7MOL    H84 2616   6.239   1.945   0.612  0.2228 -0.2674  0.2073
    7MOL    H85 2617   6.235   1.799   0.515  0.3521 -0.4262  0.4984
    7MOL    C86 2618   6.330   1.603   0.718 -0.5939 -0.1818 -0.5298
    7MOL    C87 2619   6.285   1.469   0.651 -0.5481  0.0722  0.6190
    7MOL    C88 2620   6.188   1.499   0.531 -0.2634  0.0330 -0.1598
    7MOL    C89 2621   6.214   1.425   0.407  0.6982 -0.0215  0.2269
    7MOL    C90 2622   6.355   1.474   0.343  0.4095 -0.3624  0.6240
    7MOL    C91 2623   6.105   1.475   0.308  0.0476 -0.1696 -0.3973
    7MOL    C92 2624   6.218   1.276   0.436 -0.3691  0.8896  0.0369
    7MOL    H93 2625   6.252   1.675   0.695  0.3447  0.9743 -0.1606
    7MOL    H94 2626   6.338   1.607   0.826 -0.4630  1.3240 -0.5774
    7MOL    H95 2627   6.382   1.432   0.620  0.7544  3.3655  0.5258
    7MOL    H96 2628   6.212   1.602   0.506 -1.0258  1.2206  3.7022
    7MOL    H97 2629   6.086   1.490   0.569 -0.2124 -2.3846 -0.5457
    7MOL    H98 2630   6.364   1.416   0.251 -1.4050 -1.4799  1.1250
    7MOL    H99 2631   6.434   1.439   0.409 -0.0428 -0.2601  1.2280
    7MOL   H100 2632   6.368   1.581   0.334  1.6790 -0.6394 -1.1279
    7MOL   H101 2633   6.090   1.413   0.220 -0.5156 -0.0201 -0.4091
    7MOL   H102 2634   6.018   1.456   0.371  0.4263 -1.9570 -0.3870
    7MOL   H103 2635   6.126   1.579   0.282  1.9424 -0.8524 -1.6273
    7MOL   H104 2636   6.119   1.239   0.462 -1.1807  3.2526  0.4526
    7MOL   H105 2637   6.249   1.229   0.342  1.7414  0.5101  0.9165
    7MOL   H106 2638   6.290   1.242   0.510 -1.9305 -1.5638  0.5092
    7MOL   C107 2639   6.226   1.368   0.754  0.1447  0.4290  0.1104
    7MOL   C108 2640   6.323   1.289   0.853  0.2011  0.4685 -0.7214
    7MOL   C109 2641   6.449   1.228   0.791 -0.8264  0.2860 -0.7562
    7MOL   C110 2642   6.473   1.068   0.781  0.0053 -1.3833  0.1639
    7MOL   C111 2643   6.360   0.999   0.699 -0.4704  0.0274  0.5300
    7MOL   C112 2644   6.485   1.012   0.923 -0.0695 -1.1191  0.1438
    7MOL   C113 2645   6.609   1.044   0.702 -1.1075  0.6265 -0.7726
    7MOL   H114 2646   6.177   1.297   0.686 -0.4183  2.1513 -1.3428
    7MOL   H115 2647   6.141   1.405   0.812  1.0158 -1.0304  2.3794
    7MOL   H116 2648   6.264   1.208   0.895  1.8402 -0.9869 -1.1691
    7MOL   H117 2649   6.426   1.246   0.686  0.2062 -2.7073 -1.5577
    7MOL   H118 2650   6.547   1.274   0.807 -0.7030  1.0797 -3.4619
    7MOL   H119 2651   6.266   0.998   0.754  0.2388 -0.7023  1.7510
    7MOL   H120 2652   6.350   1.039   0.598  3.2360  0.7636  0.3877
    7MOL   H121 2653   6.367   0.892   0.679 -0.9850  0.4711 -2.3816
    7MOL   H122 2654   6.570   1.061   0.971 -2.5569  1.4267  2.0523
    7MOL   H123 2655   6.504   0.904   0.922 -4.5131 -1.9746  0.0758
    7MOL   H124 2656   6.392   1.034   0.974 -0.5870 -1.4115 -0.6634
    7MOL   H125 2657   6.601   1.087   0.602 -4.2368 -1.9678 -1.7125
    7MOL   H126 2658   6.625   0.937   0.702 -0.0784  0.7469  1.1434
    7MOL   H127 2659   6.693   1.090   0.755 -0.5544 -2.6289  1.3570
    7MOL   C128 2660   6.356   1.383   0.970 -0.3178  0.3132  0.1044
    7MOL   C129 2661   6.362   1.334   1.115  0.4524 -0.2768 -0.2726
    7MOL   C130 2662   6.437   1.438   1.206 -0.5680 -0.6865 -0.2187
    7MOL   C131 2663   6.591   1.403   1.220  0.5359 -0.9899 -0.3084
    7MOL   C132 2664   6.611   1.274   1.295 -0.8834  0.4168  0.5738
    7MOL   C133 2665   6.654   1.518   1.296 -0.0508  0.6163  0.2053
    7MOL   C134 2666   6.671   1.392   1.090  0.4141 -0.5469  0.3154
    7MOL   H135 2667   6.284   1.465   0.971 -0.3232  0.3223 -0.6317
    7MOL   H136 2668   6.451   1.431   0.945 -0.1790 -0.1760 -0.3119
    7MOL   H137 2669   6.392   1.229   1.109  1.2716 -0.1059  0.6429
    7MOL   H138 2670   6.419   1.537   1.164 -1.1729 -1.2216 -1.2736
    7MOL   H139 2671   6.396   1.446   1.306  0.6162  1.1212  0.1299
    7MOL   H140 2672   6.552   1.284   1.386 -2.5396  0.5162 -0.5008
    7MOL   H141 2673   6.714   1.248   1.321 -1.8454 -2.8322  1.4324
    7MOL   H142 2674   6.564   1.188   1.247 -1.9336  1.2157  0.1478
    7MOL   H143 2675   6.761   1.503   1.311 -0.5394 -1.9428  1.3987
    7MOL   H144 2676   6.593   1.536   1.385 -0.6639 -2.8270  0.5311
    7MOL   H145 2677   6.650   1.610   1.238  1.4941  0.1273 -0.7128
    7MOL   H146 2678   6.651   1.484   1.034  1.9517 -0.4325 -0.0712
    7MOL   H147 2679   6.774   1.376   1.123  0.4402  1.2458  1.2019
    7MOL   H148 2680   6.640   1.311   1.025  0.2512 -2.3949  2.6453
    7MOL   C149 2681   6.214   1.318   1.170 -0.2482 -0.6172 -0.0415
    7MOL   C150 2682   6.184   1.242   1.298 -0.2341 -0.5133 -0.1862
    7MOL   C151 2683   6.058   1.302   1.363 -0.0495  0.5114  0.2906
    7MOL   C152 2684   6.076   1.407   1.479  1.1174  0.3666  0.2255
    7MOL   C153 2685   6.103   1.543   1.420 -0.2758 -0.0168  0.5925
    7MOL   C154 2686   6.179   1.367   1.586  0.2140 -0.6138 -0.4220
    7MOL   C155 2687   5.934   1.421   1.545 -0.1746  0.3439  0.2574
    7MOL   H156 2688   6.152   1.275   1.090  0.5644 -0.8814 -0.5309
    7MOL   H157 2689   6.176   1.419   1.187  1.9004  0.2769 -0.4333
    7MOL   H158 2690   6.274   1.264   1.356  0.4994 -1.2323 -1.0319
    7MOL   H159 2691   6.027   1.217   1.423  0.3319 -0.9748 -1.5654
    7MOL   H160 2692   5.982   1.331   1.290  0.1005  0.3842  0.0828
    7MOL   H161 2693   6.205   1.545   1.382 -0.6346 -0.4287 -0.4020
    7MOL   H162 2694   6.029   1.568   1.344 -0.5046 -0.1404  0.7707
    7MOL   H163 2695   6.093   1.626   1.490  1.9413  1.6783 -1.0575
    7MOL   H164 2696   6.181   1.433   1.673 -0.1006 -2.4952  1.0409
    7MOL   H165 2697   6.278   1.400   1.554  0.6930  0.1022  1.6737
    7MOL   H166 2698   6.175   1.262   1.615  2.3477 -0.3427  0.9625
    7MOL   H167 2699   5.871   1.487   1.485  0.0870  0.8093  0.4922
    7MOL   H168 2700   5.887   1.331   1.583 -1.0900  0.7024 -0.0256
    7MOL   H169 2701   5.954   1.486   1.631 -0.5915 -0.3061  0.8510
    7MOL   C170 2702   6.156   1.098   1.253 -0.3938 -0.0671 -0.5263
    7MOL   C171 2703   6.206   0.980   1.349 -0.1453 -0.3433  0.8279
    7MOL   C172 2704   6.351   0.939   1.304 -0.4633 -0.8719 -0.5538
    7MOL   C173 2705   6.444   0.884   1.420  0.5780 -0.2082  0.0677
    7MOL   C174 2706   6.466   0.982   1.533 -0.0221 -0.1945 -0.1662
    7MOL   C175 2707   6.577   0.851   1.356 -0.4212 -0.4258  0.1011
    7MOL   C176 2708   6.391   0.757   1.480  0.4856 -0.4571 -0.5388
    7MOL   H177 2709   6.216   1.084   1.163  2.4617  0.7006  1.1987
    7MOL   H178 2710   6.050   1.089   1.228 -0.2130 -1.7759 -0.7404
    7MOL   H179 2711   6.213   1.022   1.449 -2.1499  1.0553  0.4096
    7MOL   H180 2712   6.347   0.878   1.214  0.4468 -1.2060 -0.3690
    7MOL   H181 2713   6.399   1.032   1.275 -2.8829  0.5954 -0.0397
    7MOL   H182 2714   6.534   0.947   1.611 -2.2681 -2.4537  0.8656
    7MOL   H183 2715   6.526   1.067   1.501  2.1939 -0.2252  3.5648
    7MOL   H184 2716   6.376   1.025   1.576 -0.6423 -2.9910  1.4498
    7MOL   H185 2717   6.641   0.938   1.340 -0.1472 -0.3317  1.7014
    7MOL   H186 2718   6.634   0.782   1.418 -1.7143 -0.2343  1.5304
    7MOL   H187 2719   6.580   0.796   1.261 -3.7755 -0.1270 -0.2428
    7MOL   H188 2720   6.458   0.706   1.549 -3.3042 -1.6636  2.3911
    7MOL   H189 2721   6.306   0.771   1.545  0.1890 -1.4821 -0.6892
    7MOL   H190 2722   6.365   0.681   1.406 -0.0092 -0.5860 -0.2287
    7MOL   C191 2723   6.103   0.858   1.344 -0.3803  0.2472 -0.2468
    7MOL   C192 2724   5.962   0.884   1.395 -1.0985  0.4063 -0.7485
    7MOL   C193 2725   5.945   0.826   1.531 -0.3322 -0.1580  0.5875
    7MOL   C194 2726   5.901   0.923   1.645  0.2639  0.6798 -0.8833
    7MOL   C195 2727   5.764   0.978   1.620  0.1421  0.1236 -0.1095
    7MOL   C196 2728   6.001   1.023   1.691 -0.6644 -0.8225 -0.3780
    7MOL   C197 2729   5.887   0.831   1.771 -0.5771  0.8369 -0.1055
    7MOL   H198 2730   6.097   0.854   1.235 -2.0103 -0.5581 -0.1387
    7MOL   H199 2731   6.152   0.771   1.389  0.1954  0.5808 -0.2225
    7MOL   H200 2732   5.943   0.991   1.405  1.4765  0.9970 -1.7457
    7MOL   H201 2733   6.042   0.802   1.574  0.6270  1.5613 -0.5429
    7MOL   H202 2734   5.884   0.736   1.535  0.9553 -1.2046 -2.2671
    7MOL   H203 2735   5.731   1.021   1.715  2.0584 -0.5220  0.8651
    7MOL   H204 2736   5.748   1.060   1.550  0.8657  2.5344  2.4521
    7MOL   H205 2737   5.690   0.900   1.603  0.5744 -0.2791 -0.1335
    7MOL   H206 2738   6.103   0.986   1.689  0.4283  2.0717 -1.9552
    7MOL   H207 2739   6.008   1.110   1.626 -0.1228 -1.1401 -0.7420
    7MOL   H208 2740   5.991   1.059   1.794 -2.8360 -1.1204 -0.4646
    7MOL   H209 2741   5.833   0.739   1.746  2.2800 -0.1311 -2.9296
    7MOL   H210 2742   5.979   0.783   1.804 -1.7917 -0.7030  1.1706
    7MOL   H211 2743   5.836   0.874   1.858  1.2599  0.4939  1.1548
    7MOL   C212 2744   5.854   0.813   1.301 -0.8371  0.2547 -0.5106
    7MOL   C213 2745   5.726   0.892   1.279 -0.4043  0.2090 -0.5013
    7MOL   C214 2746   5.623   0.794   1.214  0.7550 -0.0735  0.2253
    7MOL   C215 2747   5.541   0.694   1.298  0.5988 -0.8633  0.7147
    7MOL   C216 2748   5.451   0.774   1.398  0.6065  0.0771 -0.5331
    7MOL   C217 2749   5.448   0.610   1.201  0.9668 -0.6168  0.4057
    7MOL   C218 2750   5.632   0.595   1.373 -1.1493 -0.1762  0.4943
    7MOL   H219 2751   5.891   0.782   1.203 -3.6381 -1.0298 -1.2123
    7MOL   H220 2752   5.842   0.709   1.333  0.0480  0.6310  1.1262
    7MOL   H221 2753   5.683   0.921   1.375 -0.6640 -2.7584  0.3503
    7MOL   H222 2754   5.671   0.745   1.129  0.8035  0.7658 -0.2378
    7MOL   H223 2755   5.550   0.862   1.172 -0.7972 -0.8007  1.6660
    7MOL   H224 2756   5.387   0.705   1.453  0.7459  0.3632 -0.0130
    7MOL   H225 2757   5.383   0.838   1.343  2.0269 -0.1901 -2.6851
    7MOL   H226 2758   5.509   0.825   1.474 -1.1143 -0.6341  1.2892
    7MOL   H227 2759   5.388   0.534   1.251  1.7591 -0.3398  1.8017
    7MOL   H228 2760   5.372   0.673   1.154  0.7356 -0.7844  0.5556
    7MOL   H229 2761   5.510   0.569   1.121  1.4528  2.9783 -1.2081
    7MOL   H230 2762   5.708   0.554   1.308 -0.4644  0.1523  1.0791
    7MOL   H231 2763   5.571   0.516   1.417 -0.9062  0.5185  2.1352
    7MOL   H232 2764   5.687   0.642   1.455 -0.0685  2.6303 -1.7492
    7MOL   C233 2765   5.760   1.008   1.181 -0.4200 -0.3145 -0.1496
    7MOL   C234 2766   5.654   1.113   1.158  0.2154 -0.3816 -0.3895
    7MOL   C235 2767   5.644   1.213   1.281  0.2290  0.0552  0.0232
    7MOL   C236 2768   5.500   1.262   1.331  0.5765 -0.1678 -0.1601
    7MOL   C237 2769   5.522   1.359   1.448 -0.1665 -0.0962 -0.3511
    7MOL   C238 2770   5.420   1.323   1.217  0.1419 -0.1754 -0.1941
    7MOL   C239 2771   5.411   1.145   1.387  0.6077  0.0368  1.2461
    7MOL   H240 2772   5.783   0.955   1.088 -1.2929  2.2565 -1.8716
    7MOL   H241 2773   5.848   1.066   1.207 -2.0327  1.2117  2.1120
    7MOL   H242 2774   5.557   1.063   1.155 -1.0150  1.9451 -0.9001
    7MOL   H243 2775   5.684   1.164   1.370  0.1888  0.3961  0.2268
    7MOL   H244 2776   5.712   1.296   1.264  0.6014  0.1978  2.0443
    7MOL   H245 2777   5.525   1.325   1.551 -1.0550 -1.4518 -0.7725
    7MOL   H246 2778   5.446   1.437   1.441  1.3803  1.6912  1.8494
    7MOL   H247 2779   5.608   1.425   1.433  1.3833 -1.8192  0.7219
    7MOL   H248 2780   5.424   1.269   1.122  1.4186 -0.2202 -0.1286
    7MOL   H249 2781   5.314   1.331   1.241  0.1168 -2.4178  0.5793
    7MOL   H250 2782   5.471   1.417   1.195  2.3890 -1.7453 -1.9752
    7MOL   H251 2783   5.383   1.079   1.306 -0.1273  0.4019  1.2030
    7MOL   H252 2784   5.465   1.076   1.452  2.6378 -1.1333 -1.6159
    7MOL   H253 2785   5.321   1.178   1.440 -0.2435  2.1547 -1.4304
    7MOL   C254 2786   5.667   1.189   1.026  0.3357  0.7303 -0.3536
    7MOL   C255 2787   5.626   1.116   0.897 -0.3491  0.5336  0.0554
    7MOL   C256 2788   5.676   1.197   0.775  0.0645 -0.1298  0.1575
    7MOL   C257 2789   5.817   1.161   0.726 -0.1200  0.0401 -0.0851
    7MOL   C258 2790   5.842   1.244   0.600 -0.2635 -0.0656 -0.4337
    7MOL   C259 2791   5.836   1.010   0.683 -0.2398 -0.1445 -0.6424
    7MOL   C260 2792   5.916   1.186   0.833 -0.4209 -0.1639 -0.0815
    7MOL   H261 2793   5.760   1.245   1.014  0.4436  0.3041 -1.6034
    7MOL   H262 2794   5.603   1.277   1.030 -0.0253  0.3805  1.9657
    7MOL   H263 2795   5.673   1.018   0.886  2.2033  1.8905 -1.7587
    7MOL   H264 2796   5.610   1.173   0.692  0.9796 -3.1527  0.2316
    7MOL   H265 2797   5.663   1.304   0.790  0.9016 -0.1055  0.6993
    7MOL   H266 2798   5.791   1.198   0.516 -0.2456 -0.5246 -0.1989
    7MOL   H267 2799   5.948   1.250   0.575  0.2988  0.2822  1.9065
    7MOL   H268 2800   5.807   1.346   0.615 -0.3322 -0.3325  1.3849
    7MOL   H269 2801   5.835   0.939   0.766  1.8066  0.2524 -0.2393
    7MOL   H270 2802   5.931   0.986   0.635  0.8156  2.7251 -0.0828
    7MOL   H271 2803   5.768   0.973   0.607 -0.9616 -0.1654  0.0091
    7MOL   H272 2804   5.902   1.142   0.931 -3.0711  1.3691  0.2903
    7MOL   H273 2805   6.011   1.139   0.809  0.5453  2.5527 -1.8008
    7MOL   H274 2806   5.935   1.293   0.847  2.5791 -0.6969  0.2990
    7MOL   C275 2807   5.474   1.100   0.891  0.1820 -0.2219 -0.0162
    7MOL   C276 2808   5.428   1.000   0.790  0.2382 -0.1385  0.2243
    7MOL   C277 2809   5.428   0.852   0.852  0.6853 -0.3275  0.6080
    7MOL   C278 2810   5.429   0.721   0.762 -0.4068 -0.1999 -0.1623
    7MOL   C279 2811   5.477   0.756   0.621  0.0125  0.1982  1.0290
    7MOL   C280 2812   5.529   0.622   0.819  0.2801  0.4550 -0.0538
    7MOL   C281 2813   5.280   0.659   0.771  0.1679 -0.2581  0.1767
    7MOL   H282 2814   5.432   1.058   0.982  0.2260 -1.9412 -0.7685
    7MOL   H283 2815   5.430   1.199   0.878  2.2296  1.1667  3.0210
    7MOL   H284 2816   5.495   0.993   0.704  0.6704 -1.1890  0.6292
    7MOL   H285 2817   5.354   0.850   0.933 -0.5630 -0.1597 -0.5126
    7MOL   H286 2818   5.524   0.861   0.903  1.8627 -1.5527 -1.3422
    7MOL   H287 2819   5.582   0.783   0.610 -0.5395  2.1044  0.2259
    7MOL   H288 2820   5.461   0.674   0.551  1.0912  2.3561 -1.8167
    7MOL   H289 2821   5.420   0.832   0.568 -1.5926 -0.8977  1.1193
    7MOL   H290 2822   5.541   0.530   0.763  3.2372 -0.8095  2.4920
    7MOL   H291 2823   5.499   0.596   0.921  1.5940 -1.1141 -0.0459
    7MOL   H292 2824   5.629   0.664   0.829  0.6913 -0.5495  0.0661
    7MOL   H293 2825   5.245   0.648   0.873 -1.3018 -1.5798 -0.4504
    7MOL   H294 2826   5.271   0.560   0.726  1.2814 -0.7912  1.0985
    7MOL   H295 2827   5.206   0.717   0.716  2.0400  1.0196 -1.0703
    7MOL   C296 2828   5.277   1.026   0.739  0.6849  0.3550 -0.2248
    7MOL   C297 2829   5.266   1.153   0.646 -0.3792 -0.2940  0.1077
    7MOL   C298 2830   5.133   1.239   0.661 -0.1598  0.2268 -0.3373
    7MOL   C299 2831   5.126   1.346   0.774 -0.7953  0.9227  0.9994
    7MOL   C300 2832   5.092   1.286   0.909  0.7788  0.6100 -0.1603
    7MOL   C301 2833   5.238   1.443   0.791 -0.7540  0.2744 -0.1077
    7MOL   C302 2834   5.005   1.441   0.740 -0.3224  0.2926  0.1105
    7MOL   H303 2835   5.213   1.032   0.827  0.5839 -1.3943 -0.1678
    7MOL   H304 2836   5.227   0.940   0.694  0.4345  1.1431 -1.5098
    7MOL   H305 2837   5.351   1.217   0.672 -2.3886  1.9765  1.3615
    7MOL   H306 2838   5.056   1.163   0.671  0.4211 -0.4246 -0.7128
    7MOL   H307 2839   5.126   1.286   0.563 -0.5919  1.6911  0.3829
    7MOL   H308 2840   5.055   1.365   0.976  3.4167  2.0433 -0.3264
    7MOL   H309 2841   5.018   1.207   0.899 -0.1417  1.1732  1.7300
    7MOL   H310 2842   5.176   1.242   0.963  0.4502 -0.0362 -0.1737
    7MOL   H311 2843   5.336   1.396   0.792 -1.3786 -1.0487  0.9422
    7MOL   H312 2844   5.244   1.518   0.712 -1.3404  0.6861  0.2368
    7MOL   H313 2845   5.217   1.502   0.880 -2.0299  1.5021 -1.2061
    7MOL   H314 2846   5.029   1.516   0.663 -1.7213  1.8407  1.1498
    7MOL   H315 2847   4.914   1.385   0.720 -1.2536  1.7496  0.2269
    7MOL   H316 2848   4.980   1.506   0.824  1.0234  0.7769  0.1559
    7MOL   C317 2849   5.292   1.111   0.497 -0.0609  0.2438 -0.7410
    7MOL   C318 2850   5.377   1.205   0.400 -0.3060 -0.4004 -0.8621
    7MOL   C319 2851   5.412   1.126   0.269 -0.1826  0.5189  0.2067
    7MOL   C320 2852   5.557   1.062   0.257 -0.1596  0.3804  0.1985
    7MOL   C321 2853   5.655   1.182   0.259 -0.0521  0.4365  0.1101
    7MOL   C322 2854   5.572   0.971   0.129  0.4034 -0.1177  0.3070
    7MOL   C323 2855   5.594   0.972   0.379  0.6751  0.9280  0.9353
    7MOL   H324 2856   5.340   1.014   0.506 -0.4972  0.2133  1.6130
    7MOL   H325 2857   5.196   1.093   0.450 -0.8710  1.0718  0.5483
    7MOL   H326 2858   5.477   1.223   0.438 -0.4001  3.4608 -2.2867
    7MOL   H327 2859   5.396   1.198   0.189 -1.4701 -1.2431 -1.1505
    7MOL   H328 2860   5.334   1.052   0.254  0.3180  0.3894 -1.9461
    7MOL   H329 2861   5.633   1.237   0.167 -1.2839  3.4697  2.1340
    7MOL   H330 2862   5.761   1.157   0.261 -0.4908 -1.7071 -1.3778
    7MOL   H331 2863   5.636   1.257   0.336 -1.3768 -2.0699  2.3037
    7MOL   H332 2864   5.667   0.923   0.108 -0.3208 -2.1218  1.5553
    7MOL   H333 2865   5.498   0.892   0.144 -2.7439  2.3573 -1.3626
    7MOL   H334 2866   5.552   1.024   0.036 -1.9252 -2.0711 -0.3625
    7MOL   H335 2867   5.699   0.941   0.370 -0.3238 -2.1911 -0.6431
    7MOL   H336 2868   5.532   0.883   0.380  1.4059  0.4153  1.1169
    7MOL   H337 2869   5.589   1.019   0.477 -0.1656 -1.6229  2.1482
    7MOL   C338 2870   5.316   1.344   0.380 -0.0063 -0.3238  0.1536
    7MOL   C339 2871   5.397   1.451   0.299 -0.4831  0.3310  0.2933
    7MOL   C340 2872   5.435   1.573   0.389  0.0736  0.2770  0.6448
    7MOL   C341 2873   5.570   1.573   0.473  0.3118  0.5340 -0.3492
    7MOL   C342 2874   5.695   1.557   0.390 -0.0471 -0.6559  0.2815
    7MOL   C343 2875   5.581   1.711   0.549  0.6767  0.6023  0.0436
    7MOL   C344 2876   5.562   1.462   0.586  0.1069  0.3365 -0.0055
    7MOL   H345 2877   5.286   1.377   0.480 -2.1425 -0.6367 -0.3576
    7MOL   H346 2878   5.219   1.337   0.330  0.7924 -1.3636 -1.2669
    7MOL   H347 2879   5.489   1.402   0.267 -0.1874  0.6040  0.7182
    7MOL   H348 2880   5.350   1.613   0.445 -0.1896 -1.4576  1.5069
    7MOL   H349 2881   5.440   1.659   0.323 -2.3633  1.9135  2.4807
    7MOL   H350 2882   5.783   1.572   0.452 -0.8790 -1.9347  1.8025
    7MOL   H351 2883   5.703   1.468   0.328 -2.2516 -0.3186 -0.5357
    7MOL   H352 2884   5.706   1.634   0.314 -1.0046 -0.3569  0.4350
    7MOL   H353 2885   5.486   1.755   0.577  1.0912  2.0428 -0.7479
    7MOL   H354 2886   5.648   1.716   0.635  1.0686  0.0718 -0.2291
    7MOL   H355 2887   5.624   1.791   0.489  1.8821 -0.5121 -0.6050
    7MOL   H356 2888   5.461   1.455   0.625 -0.6516 -2.7615 -2.3497
    7MOL   H357 2889   5.600   1.366   0.551  0.9467  0.9247 -0.7348
    7MOL   H358 2890   5.633   1.480   0.667 -0.0681 -1.3133  0.5298
    7MOL   C359 2891   5.320   1.486   0.166 -0.3499 -0.9759 -0.4881
    7MOL   C360 2892   5.399   1.554   0.045  0.3948 -0.6701  0.5688
    7MOL   C361 2893   5.305   1.614   7.698  0.1739 -0.0154  0.7511
    7MOL   C362 2894   5.203   1.721   7.729 -0.0367 -0.3089  0.0043
    7MOL   C363 2895   5.257   1.831   0.055  0.5048 -0.5429  0.3092
    7MOL   C364 2896   5.072   1.661   0.024  0.7049  0.0716 -0.6413
    7MOL   C365 2897   5.172   1.793   7.597 -0.0979  1.2026  0.9123
    7MOL   H366 2898   5.231   1.548   0.179  0.8447  0.5709  0.5481
    7MOL   H367 2899   5.274   1.396   0.125 -1.6352 -0.3132 -0.5475
    7MOL   H368 2900   5.457   1.642   0.073  0.5315 -0.3132 -0.8365
    7MOL   H369 2901   5.371   1.651   7.619  0.6437 -0.2054  1.0562
    7MOL   H370 2902   5.248   1.531   7.656  0.9669  0.0500 -0.5157
    7MOL   H371 2903   5.261   1.807   0.161  0.4900 -0.6528  0.2849
    7MOL   H372 2904   5.358   1.865   0.030  0.1480  0.0866 -0.2906
    7MOL   H373 2905   5.189   1.916   0.049  0.9616 -0.1480  0.6297
    7MOL   H374 2906   5.048   1.561   7.754  1.5991 -0.2610 -0.2988
    7MOL   H375 2907   4.981   1.716   7.763  0.2618  0.2440  1.1342
    7MOL   H376 2908   5.077   1.652   0.132 -1.2728 -0.7873 -0.5969
    7MOL   H377 2909   5.254   1.858   7.568 -0.2306  0.5645 -0.9357
    7MOL   H378 2910   5.079   1.850   7.600 -0.9312 -0.1321  1.0955
    7MOL   H379 2911   5.158   1.725   7.513  0.1653  2.5341 -0.2187
    7MOL   C380 2912   5.499   1.455   7.744  1.1466  0.2883  0.7005
    7MOL   C381 2913   5.618   1.524   7.668 -0.4024 -0.0787  0.3704
    7MOL   C382 2914   5.705   1.407   7.592  0.0994 -0.3285 -0.5192
    7MOL   C383 2915   5.799   1.439   7.475 -0.2310 -0.4917 -0.1618
    7MOL   C384 2916   5.725   1.522   7.371 -0.1697  0.0660  0.4873
    7MOL   C385 2917   5.867   1.317   7.407 -0.2065 -0.5477 -0.3749
    7MOL   C386 2918   5.918   1.529   7.531 -0.0791 -0.2111 -0.0143
    7MOL   H387 2919   5.444   1.394   7.672  0.3364  1.5872  0.1954
    7MOL   H388 2920   5.542   1.385   0.050 -0.8674  0.4442  2.0816
    7MOL   H389 2921   5.569   1.586   7.593  0.4031  0.5702  0.3699
    7MOL   H390 2922   5.762   1.353   7.667 -1.8558 -0.8100  0.6596
    7MOL   H391 2923   5.637   1.330   7.557 -0.5706 -0.0581  0.1556
    7MOL   H392 2924   5.636   1.464   7.346  0.8823 -1.7355  0.8502
    7MOL   H393 2925   5.701   1.624   7.403  0.4545 -0.3717  2.3835
    7MOL   H394 2926   5.779   1.529   7.276 -1.3173  1.0405 -0.1136
    7MOL   H395 2927   5.926   1.355   7.323 -0.7657  0.9663 -0.0858
    7MOL   H396 2928   5.783   1.260   7.368  0.2818  0.1968 -2.5950
    7MOL   H397 2929   5.928   1.249   7.467 -0.6370 -1.1822 -0.6507
    7MOL   H398 2930   5.984   1.466   7.590  0.8039 -0.0065 -0.7797
    7MOL   H399 2931   5.878   1.623   7.570 -0.2826 -1.3524  2.6128
    7MOL   H400 2932   5.988   1.554   7.451  0.8103 -0.0485  0.8048
    7MOL   C401 2933   5.704   1.602   0.004 -0.9718 -0.7202  0.1083
    7MOL   C402 2934   5.700   1.755   7.740  0.6090  0.2127 -0.0322
    7MOL   C403 2935   5.813   1.837   0.026  0.3815  0.6271  0.4761
    7MOL   C404 2936   5.789   1.992   0.021  0.3157  0.5743  0.5272
    7MOL   C405 2937   5.909   2.067   0.081  0.4893 -0.3903 -0.5323
    7MOL   C406 2938   5.662   2.037   0.094 -0.1038 -0.1705 -0.3632
    7MOL   C407 2939   5.771   2.038   7.643 -0.2700  0.0841 -0.4017
    7MOL   H408 2940   5.674   1.607   0.108  0.1068  3.8262  0.3110
    7MOL   H409 2941   5.806   1.566   0.013 -0.4141  1.0290  1.0324
    7MOL   H410 2942   5.694   1.766   7.632  3.3135 -1.1377 -0.3566
    7MOL   H411 2943   5.900   1.821   7.727 -0.5613  1.7244 -1.1162
    7MOL   H412 2944   5.843   1.808   0.126 -1.0715  3.6645  1.8387
    7MOL   H413 2945   5.919   2.038   0.185  0.5843  0.2974 -0.3488
    7MOL   H414 2946   5.895   2.175   0.084 -2.6849 -0.7683  0.8356
    7MOL   H415 2947   5.999   2.047   0.023  0.6933 -0.6023 -0.1401
    7MOL   H416 2948   5.578   1.993   0.041  2.1125 -3.4200 -1.3363
    7MOL   H417 2949   5.650   2.145   0.100  1.7871  0.0286  0.3475
    7MOL   H418 2950   5.683   2.016   0.200 -1.1071  0.4915 -0.0332
    7MOL   H419 2951   5.764   2.147   7.640 -0.3755  0.0640 -0.8504
    7MOL   H420 2952   5.849   2.014   7.571  2.3326  0.1157  2.2971
    7MOL   H421 2953   5.676   2.009   7.600 -1.4119  0.8005  1.5910
    7MOL   H422 2954   5.603   1.790   0.009 -0.4155 -0.3881 -2.1785
    8MOL     C1 2955   0.742   2.741   2.654  0.2293 -0.0490  0.1535
    8MOL     C2 2956   0.649   2.872   2.662  0.6519  0.0939  0.7467
    8MOL     C3 2957   0.712   2.965   2.771  0.5212 -0.7581 -0.1341
    8MOL     C4 2958   0.730   3.115   2.737 -0.5798 -0.2338 -1.0084
    8MOL     C5 2959   0.834   3.139   2.626  0.0219  0.0728  0.5206
    8MOL     C6 2960   0.598   3.179   2.690  0.0978  0.3996  0.4043
    8MOL     C7 2961   0.784   3.177   2.865 -0.5266 -0.3085  0.0141
    8MOL     H8 2962   0.716   2.677   2.570  1.3456 -2.1797  1.3817
    8MOL     H9 2963   0.850   2.753   2.653  0.4010 -1.6427 -0.6899
    8MOL    H10 2964   0.644   2.921   2.565 -0.1970  0.8579  1.1627
    8MOL    H11 2965   0.809   2.927   2.802  0.4590 -2.3418 -1.8188
    8MOL    H12 2966   0.646   2.957   2.858 -0.6423 -1.9527 -1.0970
    8MOL    H13 2967   0.796   3.127   2.524  0.2934  2.1398  0.1579
    8MOL    H14 2968   0.925   3.079   2.628  1.8343  2.7639  2.6669
    8MOL    H15 2969   0.867   3.242   2.639 -1.5915  0.1410  4.7934
    8MOL    H16 2970   0.605   3.288   2.689 -0.8340  0.4616  0.3062
    8MOL    H17 2971   0.557   3.138   2.598  0.0628  0.5292  0.3622
    8MOL    H18 2972   0.531   3.165   2.775  1.0046 -0.1939  1.0220
    8MOL    H19 2973   0.799   3.285   2.854  2.3352 -0.6653 -0.0153
    8MOL    H20 2974   0.876   3.132   2.902 -0.4706  0.0475  0.3127
    8MOL    H21 2975   0.715   3.162   2.947 -0.9160 -0.5173 -0.3482
    8MOL    H22 2976   0.720   2.666   2.730  1.2079 -0.0533  0.4344
    8MOL    C23 2977   0.503   2.837   2.706  0.4110  0.0387 -0.3864
    8MOL    C24 2978   0.415   2.734   2.628 -0.0046 -0.1237 -0.4334
    8MOL    C25 2979   0.365   2.794   2.493 -0.3806 -0.4181 -0.2726
    8MOL    C26 2980   0.380   2.700   2.371 -0.1991  0.1524 -0.1514
    8MOL    C27 2981   0.339   2.560   2.403 -0.7356  0.3941  0.1176
    8MOL    C28 2982   0.291   2.751   2.261  0.1307  0.0360 -0.5871
    8MOL    C29 2983   0.522   2.708   2.320  0.1004  0.1489  0.2284
    8MOL    H30 2984   0.510   2.810   2.811 -2.0495  0.5001 -0.0807
    8MOL    H31 2985   0.446   2.930   2.709 -0.2007 -0.3909  1.7252
    8MOL    H32 2986   0.486   2.654   2.606  0.4498 -0.7156  2.9641
    8MOL    H33 2987   0.416   2.885   2.462 -0.2062 -0.7041 -0.8338
    8MOL    H34 2988   0.259   2.813   2.507  0.2551  3.2928 -0.0470
    8MOL    H35 2989   0.402   2.510   2.476 -2.4883  1.0803  2.1368
    8MOL    H36 2990   0.238   2.551   2.442 -0.6813 -0.7852  0.0156
    8MOL    H37 2991   0.331   2.504   2.310  0.4705  0.5286 -0.0798
    8MOL    H38 2992   0.312   2.689   2.174  1.1676 -0.4790  0.0153
    8MOL    H39 2993   0.185   2.740   2.281  0.2027  0.8326  0.2660
    8MOL    H40 2994   0.313   2.855   2.235  1.1086  0.0678  0.3423
    8MOL    H41 2995   0.582   2.694   2.410  0.0690  1.5644  0.4792
    8MOL    H42 2996   0.547   2.802   2.272  1.0321 -0.8114 -1.2211
    8MOL    H43 2997   0.524   2.626   2.249 -0.3359  0.2564  0.0923
    8MOL    C44 2998   0.292   2.680   2.713  0.5831  0.7218 -0.4099
    8MOL    C45 2999   0.324   2.628   2.857  0.2677  0.6680 -0.2824
    8MOL    C46 3000   0.396   2.490   2.861  0.6171 -0.2350  0.7192
    8MOL    C47 3001   0.480   2.455   2.990 -0.9247 -0.5498  0.4997
    8MOL    C48 3002   0.603   2.544   2.992  0.5923 -0.2058 -0.8708
    8MOL    C49 3003   0.529   2.309   2.988 -0.6805  0.3912  0.0715
    8MOL    C50 3004   0.404   2.476   3.127 -0.1792  0.2986  0.2354
    8MOL    H51 3005   0.231   2.771   2.710 -1.3580 -0.5469 -0.5340
    8MOL    H52 3006   0.240   2.602   2.657  1.6782  0.2239 -0.7388
    8MOL    H53 3007   0.379   2.701   2.917  0.5696  0.6914 -0.5892
    8MOL    H54 3008   0.462   2.486   2.774  0.1284  1.2203  0.2801
    8MOL    H55 3009   0.325   2.409   2.845  0.5511  0.3099 -2.0592
    8MOL    H56 3010   0.579   2.650   2.995  0.0424 -0.3680  0.8386
    8MOL    H57 3011   0.650   2.525   2.895  2.7566 -1.7466  0.4300
    8MOL    H58 3012   0.660   2.520   3.082 -1.7875 -1.4451  0.3404
    8MOL    H59 3013   0.614   2.289   3.053 -0.0783 -1.1093 -1.1593
    8MOL    H60 3014   0.446   2.240   3.000 -0.5928  0.3880  0.6509
    8MOL    H61 3015   0.565   2.293   2.886 -2.8981  0.9164 -0.8266
    8MOL    H62 3016   0.321   2.405   3.132 -0.6173  0.8528  0.8133
    8MOL    H63 3017   0.464   2.459   3.216  1.9565 -1.2350 -1.4349
    8MOL    H64 3018   0.366   2.576   3.146 -1.6293 -0.0839 -0.5357
    8MOL    C65 3019   0.183   2.614   2.922 -0.2925  0.1292 -0.2138
    8MOL    C66 3020   0.117   2.747   2.958 -0.4901 -0.2330  0.3532
    8MOL    C67 3021   0.179   2.820   3.077 -0.0048  0.4928 -0.1094
    8MOL    C68 3022   0.174   2.984   3.082 -0.5872  0.0543  0.1791
    8MOL    C69 3023   0.252   3.030   3.211  0.3754  0.0307 -0.6579
    8MOL    C70 3024   0.225   3.049   2.948 -0.2090 -0.9409 -0.1001
    8MOL    C71 3025   0.032   3.028   3.105  0.4040  0.6540  0.0975
    8MOL    H72 3026   0.128   2.546   2.857  0.3716  0.1935 -0.8523
    8MOL    H73 3027   0.202   2.561   3.015  2.6906  0.9451 -0.2949
    8MOL    H74 3028   0.126   2.810   2.869 -0.3159 -2.2756 -1.0992
    8MOL    H75 3029   0.285   2.793   3.080 -0.2062 -0.3157  0.0957
    8MOL    H76 3030   0.147   2.776   3.172  0.7766  2.5493  1.1386
    8MOL    H77 3031   0.204   2.988   3.299 -1.6659  2.3135 -0.6469
    8MOL    H78 3032   0.357   3.000   3.206  0.3370 -0.9531  3.1395
    8MOL    H79 3033   0.254   3.138   3.221  0.0247  0.1844 -2.1601
    8MOL    H80 3034   0.320   3.014   2.908 -0.7326 -1.4616 -0.9037
    8MOL    H81 3035   0.239   3.157   2.957 -2.2026 -0.5790 -1.0476
    8MOL    H82 3036   0.150   3.043   2.869  0.2393  1.3441 -0.7183
    8MOL    H83 3037   7.743   3.031   3.010  0.2258  1.1475  0.2170
    8MOL    H84 3038   0.033   3.133   3.131 -0.6114  0.1527  2.3145
    8MOL    H85 3039   7.744   2.967   3.178 -1.3103 -2.4394 -3.5373
    8MOL    C86 3040   7.732   2.725   2.971  0.2028  0.1620  0.0786
    8MOL    C87 3041   7.653   2.703   2.838  1.3399 -1.0237 -0.2812
    8MOL    C88 3042   7.607   2.842   2.775  0.0188  0.5994 -0.1080
    8MOL    C89 3043   7.593   2.867   2.619 -0.0979 -0.5458  0.0428
    8MOL    C90 3044   7.521   2.997   2.586  0.5232 -0.1705 -0.0276
    8MOL    C91 3045   7.506   2.753   2.551 -0.4361  0.2273 -0.7101
    8MOL    C92 3046   7.731   2.863   2.553 -0.1707  0.4876 -0.0356
    8MOL    H93 3047   7.683   2.808   3.023 -2.2401 -0.4911 -1.1352
    8MOL    H94 3048   7.716   2.638   3.034  0.2853  1.2116  1.5963
    8MOL    H95 3049   7.713   2.659   2.758  1.0662 -3.6113  0.8714
    8MOL    H96 3050   7.677   2.919   2.808  0.5131  0.5459 -0.9904
    8MOL    H97 3051   7.514   2.867   2.826  0.0854 -0.3233  0.4744
    8MOL    H98 3052   7.554   3.082   2.645 -0.8304  2.1578 -2.5448
    8MOL    H99 3053   7.414   2.987   2.609  0.1525  2.2798 -0.6280
    8MOL   H100 3054   7.533   3.041   2.488 -1.7817  0.7365  0.0523
    8MOL   H101 3055   7.559   2.659   2.564  0.4417  1.1146  2.2653
    8MOL   H102 3056   7.403   2.738   2.585  1.2349 -3.9708  2.9697
    8MOL   H103 3057   7.503   2.779   2.445  1.4648  1.8710 -0.3673
    8MOL   H104 3058   7.722   2.858   2.445 -0.1137 -1.0634  0.0261
    8MOL   H105 3059   0.017   2.959   2.566  1.4179  0.0428 -2.7490
    8MOL   H106 3060   0.027   2.783   2.594  0.2784  0.4554 -0.7590
    8MOL   C107 3061   7.529   2.607   2.855  0.7892 -0.6442  0.5816
    8MOL   C108 3062   7.569   2.456   2.849 -0.1618  0.7974 -1.1780
    8MOL   C109 3063   7.461   2.378   2.935  0.3783  0.6918  0.5052
    8MOL   C110 3064   7.498   2.321   3.078  0.1795 -0.1615  0.0089
    8MOL   C111 3065   7.590   2.202   3.066 -0.3195 -0.3501 -0.0779
    8MOL   C112 3066   7.374   2.278   3.158 -1.3660 -0.1421 -0.2450
    8MOL   C113 3067   7.578   2.422   3.162 -0.1725 -0.2664 -0.1339
    8MOL   H114 3068   7.453   2.628   2.780  0.8543 -1.1437  0.3779
    8MOL   H115 3069   7.491   2.636   2.953  0.2737 -0.8234  0.4369
    8MOL   H116 3070   7.669   2.435   2.887 -0.7951 -1.4864 -0.7163
    8MOL   H117 3071   7.374   2.439   2.960  1.6437  1.7372  2.4753
    8MOL   H118 3072   7.415   2.292   2.886  1.3083  0.0168  0.8005
    8MOL   H119 3073   7.681   2.229   3.012 -0.2586  1.9346  1.1365
    8MOL   H120 3074   7.605   2.161   3.166  1.3483  3.1849  1.2030
    8MOL   H121 3075   7.560   2.110   3.015 -1.1232 -0.2930  0.2948
    8MOL   H122 3076   7.326   2.191   3.114  0.6665 -1.9382  1.0154
    8MOL   H123 3077   7.301   2.358   3.175  0.3124  1.7875 -2.0065
    8MOL   H124 3078   7.403   2.242   3.257 -0.6589 -0.7250 -0.6614
    8MOL   H125 3079   7.591   2.366   3.255  3.3565  0.3714 -0.1739
    8MOL   H126 3080   7.526   2.517   3.174  0.0609  0.0781 -1.8373
    8MOL   H127 3081   7.678   2.430   3.120  0.7217 -1.4763  1.6741
    8MOL   C128 3082   7.562   2.405   2.704  0.4187  0.3082 -0.0610
    8MOL   C129 3083   7.603   2.256   2.674  0.1796 -0.2005 -0.5601
    8MOL   C130 3084   7.542   2.206   2.534  0.3119 -0.5897 -0.3256
    8MOL   C131 3085   7.389   2.173   2.519 -0.7198  0.2159 -0.2290
    8MOL   C132 3086   7.275   2.282   2.551  0.0594 -0.1401  0.4328
    8MOL   C133 3087   7.359   2.048   2.611  0.4513 -0.6666 -0.0490
    8MOL   C134 3088   7.361   2.129   2.375 -0.1257 -0.9615  0.2522
    8MOL   H135 3089   7.619   2.471   2.638 -0.3514 -1.0053 -2.1034
    8MOL   H136 3090   7.463   2.423   2.660  1.0370  1.4713 -1.0125
    8MOL   H137 3091   7.555   2.186   2.743 -0.7324  0.2577 -0.7233
    8MOL   H138 3092   7.583   2.277   2.461  2.2197 -0.7246  0.6034
    8MOL   H139 3093   7.583   2.108   2.510 -1.5385 -1.6744  0.7645
    8MOL   H140 3094   7.179   2.235   2.529  0.3591 -0.4029 -0.3385
    8MOL   H141 3095   7.279   2.362   2.478 -1.5147 -0.6019 -0.1713
    8MOL   H142 3096   7.276   2.320   2.653 -1.9034  3.0969 -0.6793
    8MOL   H143 3097   7.256   2.016   2.600  0.0435  1.0267 -1.4569
    8MOL   H144 3098   7.367   2.082   2.715  0.5572 -2.0418  0.4025
    8MOL   H145 3099   7.414   1.955   2.598  0.3606 -0.6264 -0.6911
    8MOL   H146 3100   7.269   2.073   2.359 -0.5625 -0.3065  0.4422
    8MOL   H147 3101   7.369   2.205   2.298 -1.7055  0.8975  1.8499
    8MOL   H148 3102   7.431   2.054   2.341 -0.8208 -2.0528  1.1825
    8MOL   C149 3103   7.753   2.236   2.691  0.3546 -0.0824 -0.3410
    8MOL   C150 3104   0.051   2.092   2.699 -0.0482  0.2947  0.4280
    8MOL   C151 3105   0.204   2.102   2.680 -0.2339  0.7160  0.5596
    8MOL   C152 3106   0.251   2.101   2.527 -0.0103  0.5103  0.0260
    8MOL   C153 3107   0.232   1.970   2.454  0.5942 -0.6466 -0.0563
    8MOL   C154 3108   0.401   2.133   2.547 -0.0533 -0.2833 -0.1210
    8MOL   C155 3109   0.184   2.221   2.440 -0.4904  0.1330  0.1482
    8MOL   H156 3110   0.001   2.279   2.790  0.9093 -3.2007  0.9877
    8MOL   H157 3111   0.040   2.310   2.631 -0.2043  1.0532  0.5422
    8MOL   H158 3112   0.021   2.044   2.606  0.3731 -0.6308  0.7658
    8MOL   H159 3113   0.249   2.017   2.732  1.4074  1.2461  0.0565
    8MOL   H160 3114   0.250   2.185   2.734 -0.5145  1.8257 -0.8557
    8MOL   H161 3115   0.282   1.969   2.357  1.4524 -2.3540  0.3863
    8MOL   H162 3116   0.268   1.892   2.522  0.5017  1.1754  2.1047
    8MOL   H163 3117   0.127   1.963   2.425  0.8488  3.0728 -2.1392
    8MOL   H164 3118   0.422   2.230   2.592  0.8027 -1.1709  1.4337
    8MOL   H165 3119   0.442   2.129   2.446 -0.1896 -1.5258 -0.1376
    8MOL   H166 3120   0.448   2.063   2.615 -1.6381 -1.3292 -0.0958
    8MOL   H167 3121   0.199   2.321   2.480 -1.3792 -0.0694  1.0045
    8MOL   H168 3122   0.225   2.230   2.340  0.2966  0.3528  0.4830
    8MOL   H169 3123   0.078   2.200   2.432 -0.4909 -0.4831  1.5431
    8MOL   C170 3124   0.013   2.009   2.819 -0.1450 -1.0100 -0.8049
    8MOL   C171 3125   0.012   1.857   2.798 -1.2362 -0.3922  0.0505
    8MOL   C172 3126   7.643   1.803   2.748 -0.2745  0.0167 -0.2751
    8MOL   C173 3127   7.643   1.685   2.638 -0.0604  0.0989 -0.6621
    8MOL   C174 3128   7.727   1.561   2.679  0.0771  0.0906 -0.6991
    8MOL   C175 3129   7.687   1.741   2.498  0.2769 -0.3612  0.4139
    8MOL   C176 3130   7.504   1.630   2.629 -0.3465  0.0194  0.8412
    8MOL   H177 3131   7.679   2.047   2.842 -0.1461 -0.3099 -1.8969
    8MOL   H178 3132   0.076   2.047   2.899 -0.9972 -0.6690 -0.2876
    8MOL   H179 3133   0.083   1.829   2.720  1.2165  1.9451  1.3890
    8MOL   H180 3134   7.575   1.786   2.832  1.9819 -2.2430  1.1614
    8MOL   H181 3135   7.583   1.881   2.700 -1.9976  0.2570  2.1317
    8MOL   H182 3136   7.729   1.492   2.595  1.0452 -1.2169  0.3838
    8MOL   H183 3137   0.067   1.577   2.699 -0.0401 -4.3052  4.5044
    8MOL   H184 3138   7.686   1.510   2.766 -1.0109  0.5706 -0.9214
    8MOL   H185 3139   0.024   1.776   2.509 -0.4990  2.1281  0.0200
    8MOL   H186 3140   7.692   1.667   2.418 -0.9978 -0.2265  0.2017
    8MOL   H187 3141   7.638   1.831   2.461  4.1245  2.2888  1.4903
    8MOL   H188 3142   7.457   1.619   2.726  0.3278 -0.8204  1.0831
    8MOL   H189 3143   7.445   1.695   2.564  0.5381 -1.2833 -1.3651
    8MOL   H190 3144   7.511   1.532   2.580  2.2384  1.6891 -2.3970
    8MOL   C191 3145   0.048   1.780   2.922  0.0902 -0.0329  0.4304
    8MOL   C192 3146   0.194   1.797   2.980 -0.2206 -0.0313 -0.5238
    8MOL   C193 3147   0.300   1.732   2.885  0.0812  0.0004  0.2960
    8MOL   C194 3148   0.454   1.759   2.909  0.0922 -0.3649 -0.6020
    8MOL   C195 3149   0.489   1.916   2.916  0.1801 -0.4955 -0.1967
    8MOL   C196 3150   0.535   1.704   2.786  0.2864  0.0732 -0.2294
    8MOL   C197 3151   0.513   1.684   3.029 -0.0543 -0.5255 -0.0031
    8MOL   H198 3152   7.740   1.809   2.996  1.8525  1.0743  1.7842
    8MOL   H199 3153   0.042   1.672   2.904 -1.5089  0.0715  0.2603
    8MOL   H200 3154   0.219   1.902   2.996  1.1858 -0.7170  2.1761
    8MOL   H201 3155   0.279   1.773   2.787 -1.6074 -2.1739 -0.2814
    8MOL   H202 3156   0.275   1.626   2.877 -0.9000  0.4717 -3.6965
    8MOL   H203 3157   0.432   1.972   2.842  1.3049 -0.9096 -1.3935
    8MOL   H204 3158   0.474   1.953   3.017 -2.1109  0.4422 -0.8422
    8MOL   H205 3159   0.596   1.926   2.895  0.5203 -0.5312  1.4422
    8MOL   H206 3160   0.534   1.595   2.785 -1.9960  0.0708 -2.2981
    8MOL   H207 3161   0.507   1.743   2.689  2.1717  3.1249  0.3652
    8MOL   H208 3162   0.638   1.739   2.793  0.1612  0.3972  0.0453
    8MOL   H209 3163   0.489   1.578   3.020 -0.1662 -0.5522  0.5849
    8MOL   H210 3164   0.621   1.694   3.041 -0.1502 -0.5299  0.8872
    8MOL   H211 3165   0.496   1.717   3.131  1.5381  0.6931 -0.1063
    8MOL   C212 3166   0.190   1.730   3.122  0.1645 -0.3149 -0.3772
    8MOL   C213 3167   0.141   1.824   3.222  0.9025  0.3231 -0.2181
    8MOL   C214 3168   0.268   1.902   3.281  0.1972  0.1993  1.0723
    8MOL   C215 3169   0.254   2.051   3.339 -0.3271 -0.0461 -0.6601
    8MOL   C216 3170   0.398   2.104   3.368  0.5512 -0.2265 -0.3746
    8MOL   C217 3171   0.184   2.138   3.234 -0.0799  0.0788  0.3995
    8MOL   C218 3172   0.169   2.051   3.467  0.5439  0.1621  1.2022
    8MOL   H219 3173   0.132   1.638   3.118  0.5586 -0.6132  0.5291
    8MOL   H220 3174   0.289   1.692   3.147  0.0589  0.7135  1.7620
    8MOL   H221 3175   0.070   1.894   3.179 -0.0970 -0.2771  0.4286
    8MOL   H222 3176   0.340   1.906   3.200  0.5225  0.1866  1.3588
    8MOL   H223 3177   0.317   1.838   3.355  3.0398 -0.2146 -1.1125
    8MOL   H224 3178   0.403   2.207   3.402 -0.7593 -0.4924  0.6799
    8MOL   H225 3179   0.466   2.103   3.283  0.6070 -1.2479 -0.3228
    8MOL   H226 3180   0.430   2.050   3.457 -1.7157 -1.9977 -0.5732
    8MOL   H227 3181   0.083   2.105   3.212 -1.0481  2.6307  0.8197
    8MOL   H228 3182   0.171   2.236   3.280  0.5050  0.8889 -1.1271
    8MOL   H229 3183   0.235   2.150   3.139 -2.3210 -1.8664 -1.1114
    8MOL   H230 3184   0.075   1.998   3.448  1.5455 -0.7887 -1.2279
    8MOL   H231 3185   0.135   2.151   3.493  1.6915  0.4191  1.7428
    8MOL   H232 3186   0.211   1.986   3.544 -0.4387 -0.5202  1.1783
    8MOL   C233 3187   0.078   1.734   3.340  0.4927  0.0697 -0.7278
    8MOL   C234 3188   7.694   1.699   3.332  0.1139  0.0607  0.1035
    8MOL   C235 3189   7.660   1.582   3.424  0.4333 -0.1943  0.4857
    8MOL   C236 3190   7.676   1.443   3.365 -0.5909  0.3162  0.0484
    8MOL   C237 3191   7.569   1.420   3.257  0.1039  0.1625  0.1246
    8MOL   C238 3192   0.045   1.394   3.319 -0.0243  0.0417  0.4319
    8MOL   C239 3193   7.644   1.348   3.482  0.7914 -0.6556 -0.1950
    8MOL   H240 3194   0.090   1.786   3.435 -2.2050 -0.7043  0.0908
    8MOL   H241 3195   0.132   1.642   3.365  0.0438 -0.1959 -0.7225
    8MOL   H242 3196   7.667   1.669   3.231  0.0406 -1.3840  0.5511
    8MOL   H243 3197   7.713   1.596   3.518  0.8317 -2.6855  0.6689
    8MOL   H244 3198   7.559   1.582   3.465 -0.4621 -0.5092 -1.6397
    8MOL   H245 3199   7.567   1.314   3.231  1.8626  0.1517 -0.0151
    8MOL   H246 3200   7.582   1.474   3.163 -0.1041 -1.4891 -0.8674
    8MOL   H247 3201   7.469   1.460   3.278 -0.3156 -1.2785  0.9885
    8MOL   H248 3202   0.117   1.413   3.399 -1.2052 -0.9294  1.7410
    8MOL   H249 3203   0.041   1.288   3.297 -1.2269 -0.0604  1.0917
    8MOL   H250 3204   0.085   1.453   3.236 -0.4556  0.4048  0.4779
    8MOL   H251 3205   7.722   1.356   3.558  0.0315  2.4518  0.3387
    8MOL   H252 3206   7.550   1.368   3.533  0.8300 -0.0311 -0.3579
    8MOL   H253 3207   7.640   1.244   3.450 -0.2416 -0.2132 -1.5326
    8MOL   C254 3208   7.614   1.822   3.365  0.1328  0.1299  0.2998
    8MOL   C255 3209   7.459   1.824   3.347 -0.2903 -0.3056 -0.1402
    8MOL   C256 3210   7.419   1.819   3.201 -0.3503  0.0947  1.3373
    8MOL   C257 3211   7.275   1.773   3.153 -0.2973 -0.0438  0.1283
    8MOL   C258 3212   7.167   1.871   3.196  1.0007 -0.0417  0.2605
    8MOL   C259 3213   7.236   1.631   3.200 -0.1609 -0.2391  0.3021
    8MOL   C260 3214   7.282   1.778   2.994  0.1033  0.2702  0.3751
    8MOL   H261 3215   7.652   1.905   3.304  0.0190 -0.4579 -0.5782
    8MOL   H262 3216   7.643   1.850   3.466 -0.3708  1.3969  0.1058
    8MOL   H263 3217   7.424   1.732   3.394 -0.2008 -0.0751  0.3728
    8MOL   H264 3218   7.444   1.918   3.163  2.4943 -1.3785 -0.8637
    8MOL   H265 3219   7.490   1.752   3.152 -1.8113 -1.5127  1.3786
    8MOL   H266 3220   7.144   1.866   3.303 -1.3936 -0.8886 -0.2626
    8MOL   H267 3221   7.068   1.840   3.162  0.4006 -0.4536  2.3011
    8MOL   H268 3222   7.191   1.974   3.170  3.5228 -0.4679  0.8225
    8MOL   H269 3223   7.133   1.605   3.177 -0.3004 -1.4588  2.1668
    8MOL   H270 3224   7.248   1.606   3.306  1.3711  1.5498  0.5901
    8MOL   H271 3225   7.297   1.557   3.149 -1.9501 -0.3146 -1.7878
    8MOL   H272 3226   7.281   1.878   2.950 -2.1851 -0.7303 -2.0327
    8MOL   H273 3227   7.372   1.731   2.957 -1.5212 -1.6776 -1.2312
    8MOL   H274 3228   7.190   1.741   2.948  1.3096  0.7483 -2.5564
    8MOL   C275 3229   7.404   1.950   3.413 -0.1699  0.1336 -0.4121
    8MOL   C276 3230   7.406   1.968   3.567  0.7064  0.2996  0.8643
    8MOL   C277 3231   7.391   2.116   3.591  0.3050  0.4200 -0.2149
    8MOL   C278 3232   7.516   2.201   3.623 -0.2042 -0.3893  0.4966
    8MOL   C279 3233   7.550   2.186   3.771 -0.5116 -0.7324  0.1590
    8MOL   C280 3234   7.639   2.180   3.533 -0.7440  0.2412 -0.0293
    8MOL   C281 3235   7.469   2.353   3.597 -0.3683 -0.6403  0.0832
    8MOL   H282 3236   7.460   2.029   3.362  1.2727 -1.8005 -1.9290
    8MOL   H283 3237   7.301   1.973   3.386  0.5851  2.6256 -1.3434
    8MOL   H284 3238   7.499   1.926   3.606  0.9244  1.8038  2.0021
    8MOL   H285 3239   7.326   2.134   3.677  2.3339  3.8377  0.7116
    8MOL   H286 3240   7.340   2.165   3.508 -1.2506 -0.5047  0.1684
    8MOL   H287 3241   7.574   2.081   3.791 -2.7633 -1.6314 -1.6592
    8MOL   H288 3242   7.645   2.237   3.786 -0.2779 -1.5833  1.6384
    8MOL   H289 3243   7.484   2.222   3.849 -0.4192  1.7475 -0.8681
    8MOL   H290 3244   7.677   2.078   3.542  0.9781  0.9530  1.1509
    8MOL   H291 3245   7.725   2.242   3.560 -1.8710  0.5132  3.1600
    8MOL   H292 3246   7.619   2.193   3.427 -0.5514 -1.4968 -0.2895
    8MOL   H293 3247   7.553   2.423   3.604  0.3706 -0.9214 -4.3818
    8MOL   H294 3248   7.393   2.383   3.669  1.0494 -0.3679  1.4868
    8MOL   H295 3249   7.440   2.363   3.493  1.9064  0.2828 -0.4933
    8MOL   C296 3250   7.294   1.881   3.630  0.2502  0.2669 -0.7709
    8MOL   C297 3251   7.274   1.883   3.782 -0.0108 -0.2105 -0.1003
    8MOL   C298 3252   7.380   1.790   3.849 -0.4562 -0.2015 -0.3702
    8MOL   C299 3253   7.415   1.809   4.001  0.5233 -0.1413  0.6152
    8MOL   C300 3254   7.286   1.801   4.090  0.1951 -0.3309  0.5032
    8MOL   C301 3255   7.506   1.695   4.040  0.0026  0.7121 -0.1468
    8MOL   C302 3256   7.489   1.949   4.018 -0.1700 -0.3771  0.2066
    8MOL   H303 3257   7.320   1.776   3.612  1.7046  0.3787  0.6445
    8MOL   H304 3258   7.203   1.887   3.570 -0.1366  1.1528 -0.0979
    8MOL   H305 3259   7.289   1.986   3.815 -0.2673  0.0640 -0.8250
    8MOL   H306 3260   7.471   1.798   3.790  0.0677  3.6890  0.8171
    8MOL   H307 3261   7.344   1.690   3.826 -2.3065  0.6343 -1.2722
    8MOL   H308 3262   7.234   1.896   4.098  0.8341 -0.0252  1.1031
    8MOL   H309 3263   7.219   1.723   4.054 -0.3728 -0.1271  1.1060
    8MOL   H310 3264   7.309   1.763   4.189  0.7040 -1.7533 -0.1504
    8MOL   H311 3265   7.466   1.602   4.000 -0.9263 -0.0099  2.3519
    8MOL   H312 3266   7.610   1.711   4.010 -0.0766 -0.1444 -0.8899
    8MOL   H313 3267   7.499   1.675   4.147 -0.5700  2.1059  0.0810
    8MOL   H314 3268   7.576   1.941   3.953 -0.3241  0.0467 -0.0512
    8MOL   H315 3269   7.434   2.035   3.982 -0.0678 -0.6250 -0.5355
    8MOL   H316 3270   7.533   1.954   4.118 -0.9889 -0.4748  0.5724
    8MOL   C317 3271   7.122   1.850   3.816 -0.3938  0.8141 -0.4899
    8MOL   C318 3272   7.007   1.929   3.746  0.4335 -0.1787 -0.0900
    8MOL   C319 3273   6.872   1.851   3.758 -0.0895  0.2654  0.1152
    8MOL   C320 3274   6.835   1.763   3.636 -0.3012 -0.6994  0.2779
    8MOL   C321 3275   6.815   1.843   3.498  0.5122  0.0338  0.5603
    8MOL   C322 3276   6.707   1.671   3.663 -0.1585 -0.2484 -0.0204
    8MOL   C323 3277   6.947   1.658   3.601  0.6181 -0.1942  0.7643
    8MOL   H324 3278   7.112   1.743   3.798 -0.1818  0.2420  2.5665
    8MOL   H325 3279   7.096   1.854   3.922  2.0031  1.2548  0.1012
    8MOL   H326 3280   7.027   1.946   3.640 -0.8457  0.4822 -0.2371
    8MOL   H327 3281   6.795   1.921   3.789  0.6163  0.9885  0.2652
    8MOL   H328 3282   6.880   1.794   3.851  1.3965 -0.1296 -0.2337
    8MOL   H329 3283   6.769   1.941   3.509  0.6082  0.6235 -3.6490
    8MOL   H330 3284   6.756   1.788   3.425 -0.1636  0.1160  1.0446
    8MOL   H331 3285   6.910   1.879   3.458  0.6876 -0.5271  0.4738
    8MOL   H332 3286   6.714   1.589   3.734 -0.3465  0.8481  1.2874
    8MOL   H333 3287   6.623   1.731   3.698 -0.2379 -0.9184  0.9654
    8MOL   H334 3288   6.675   1.627   3.569  2.2671 -0.2643 -0.8606
    8MOL   H335 3289   6.930   1.606   3.507  0.2276  0.0286  0.7114
    8MOL   H336 3290   6.964   1.589   3.684 -1.3445 -0.8757  0.6200
    8MOL   H337 3291   7.041   1.711   3.584  0.4679  0.1117  0.8904
    8MOL   C338 3292   6.983   2.066   3.818 -0.9344  0.6143  0.6011
    8MOL   C339 3293   6.902   2.172   3.734  0.3891  0.6026 -0.6520
    8MOL   C340 3294   7.010   2.261   3.669  0.2447 -0.0048  0.2790
    8MOL   C341 3295   6.985   2.300   3.523  0.8320  1.0122  0.3242
    8MOL   C342 3296   6.997   2.184   3.429 -0.4740 -0.0186  0.0361
    8MOL   C343 3297   6.853   2.367   3.504 -0.8446  0.6200 -0.3545
    8MOL   C344 3298   7.095   2.400   3.480  0.2283 -0.4355  0.5503
    8MOL   H345 3299   7.079   2.107   3.847 -0.2958  0.4006 -1.1355
    8MOL   H346 3300   6.925   2.042   3.907 -1.3487 -0.8589 -0.0530
    8MOL   H347 3301   6.828   2.128   3.667  1.5835 -0.7167 -1.1180
    8MOL   H348 3302   7.102   2.204   3.662  0.9339  0.6918  2.9520
    8MOL   H349 3303   7.038   2.353   3.721 -0.0430  0.4329 -0.3276
    8MOL   H350 3304   6.914   2.114   3.433  0.1857 -0.8025 -0.1167
    8MOL   H351 3305   7.007   2.214   3.325  0.8966  1.3656  0.5337
    8MOL   H352 3306   7.092   2.132   3.442 -0.5315  0.0193  0.6258
    8MOL   H353 3307   6.776   2.298   3.539  1.7915 -2.0413  0.4363
    8MOL   H354 3308   6.851   2.464   3.553 -2.2127  0.8579 -0.8611
    8MOL   H355 3309   6.825   2.380   3.400 -1.8088 -0.4724 -0.2442
    8MOL   H356 3310   7.086   2.431   3.376  2.4330 -3.8685 -0.7637
    8MOL   H357 3311   7.078   2.494   3.531  0.9278  1.1066 -1.9659
    8MOL   H358 3312   7.194   2.364   3.506  0.4128  0.6545  1.3742
    8MOL   C359 3313   6.825   2.262   3.832  0.7929  0.2766  0.1019
    8MOL   C360 3314   6.685   2.209   3.870  0.8086  0.5258 -0.6060
    8MOL   C361 3315   6.572   2.252   3.769  0.3940 -0.6407  0.1271
    8MOL   C362 3316   6.450   2.161   3.741  0.5378  0.4824 -0.0459
    8MOL   C363 3317   6.381   2.121   3.872  0.2986  0.0582 -0.9331
    8MOL   C364 3318   6.498   2.031   3.663 -0.2546 -0.2771 -0.2728
    8MOL   C365 3319   6.346   2.230   3.653  0.1318 -0.4215 -0.2237
    8MOL   H366 3320   6.805   2.366   3.805  0.5686  0.2698  0.2390
    8MOL   H367 3321   6.891   2.274   3.918 -0.9906 -2.1542  1.8610
    8MOL   H368 3322   6.703   2.103   3.883  1.4732  0.7936  0.7843
    8MOL   H369 3323   6.526   2.334   3.822 -0.4623 -1.6684  1.0029
    8MOL   H370 3324   6.618   2.302   3.684  0.2938  0.5142  0.7565
    8MOL   H371 3325   6.447   2.055   3.927 -0.4846 -1.4272 -1.7292
    8MOL   H372 3326   6.360   2.204   3.939 -0.9676  0.2368 -1.5341
    8MOL   H373 3327   6.286   2.073   3.851  0.8336 -1.0729 -0.7757
    8MOL   H374 3328   6.560   1.960   3.718 -0.2233  0.1760  0.2779
    8MOL   H375 3329   6.539   2.071   3.570 -0.4585  2.5699  0.8099
    8MOL   H376 3330   6.409   1.969   3.650  0.4408 -1.3739  0.1184
    8MOL   H377 3331   6.262   2.166   3.625 -0.7377  0.7897 -0.3824
    8MOL   H378 3332   6.386   2.256   3.555  2.0640  0.4369  0.7631
    8MOL   H379 3333   6.287   2.309   3.700  0.6282 -0.5924  0.6955
    8MOL   C380 3334   6.652   2.269   4.013  0.3177  0.6205  0.1921
    8MOL   C381 3335   6.718   2.192   4.136 -0.2629 -0.2254 -0.2015
    8MOL   C382 3336   6.623   2.089   4.192  1.3356 -0.2998  0.4141
    8MOL   C383 3337   6.678   1.961   4.260 -0.0575 -0.2857  0.4988
    8MOL   C384 3338   6.746   1.984   4.394 -0.4307  0.7178 -0.0658
    8MOL   C385 3339   6.787   1.899   4.162  0.2106 -0.1770 -0.4785
    8MOL   C386 3340   6.566   1.862   4.274  0.0278  0.4281 -0.5733
    8MOL   H387 3341   6.544   2.268   4.025  0.3434 -1.5465  0.4282
    8MOL   H388 3342   6.687   2.372   3.999  1.7489  0.3105  1.2833
    8MOL   H389 3343   6.809   2.142   4.103 -0.3071 -2.2600  2.5877
    8MOL   H390 3344   6.542   2.130   4.252  0.4838  0.2532 -1.0685
    8MOL   H391 3345   6.572   2.049   4.104  1.6576  1.0993 -0.4271
    8MOL   H392 3346   6.765   1.888   4.442  1.6967  0.7548 -0.7839
    8MOL   H393 3347   6.840   2.037   4.378 -1.2800  1.7319 -1.9008
    8MOL   H394 3348   6.671   2.042   4.447 -1.5321 -0.3950 -0.3667
    8MOL   H395 3349   6.763   1.905   4.055 -1.6571 -2.2825 -0.2170
    8MOL   H396 3350   6.793   1.791   4.177 -1.8634 -0.1853  0.4227
    8MOL   H397 3351   6.889   1.930   4.182 -0.4457  0.9657  1.1921
    8MOL   H398 3352   6.487   1.906   4.335 -0.3465 -1.7975  0.6156
    8MOL   H399 3353   6.576   1.766   4.326  1.4719 -0.2640 -2.0942
    8MOL   H400 3354   6.520   1.841   4.178 -0.8384  2.5486 -0.6550
    8MOL   C401 3355   6.765   2.293   4.242 -0.8982  0.3640 -0.0501
    8MOL   C402 3356   6.896   2.370   4.203  0.6219 -0.2169 -0.0091
    8MOL   C403 3357   7.021   2.280   4.230 -0.5566  0.4811  0.4634
    8MOL   C404 3358   7.156   2.338   4.201 -0.7245 -0.6875  0.0259
    8MOL   C405 3359   7.168   2.473   4.275 -0.5277  0.3392  1.2662
    8MOL   C406 3360   7.177   2.360   4.051 -0.6313  0.1757 -0.1260
    8MOL   C407 3361   7.273   2.256   4.258 -0.0139 -0.5065 -0.2039
    8MOL   H408 3362   6.686   2.365   4.258 -1.5241 -0.3875  0.2557
    8MOL   H409 3363   6.773   2.235   4.333  2.1738 -1.4156 -1.3653
    8MOL   H410 3364   6.884   2.409   4.102  1.1689  2.0274  0.7481
    8MOL   H411 3365   7.021   2.188   4.171  0.2653  0.5134  0.4070
    8MOL   H412 3366   7.019   2.253   4.335  0.9080 -0.9138  0.1507
    8MOL   H413 3367   7.265   2.519   4.259  0.3087 -1.3642  1.2637
    8MOL   H414 3368   7.158   2.457   4.383 -1.2108  2.4933  1.5317
    8MOL   H415 3369   7.094   2.547   4.245 -0.1881  1.3645  2.8894
    8MOL   H416 3370   7.272   2.407   4.027  0.3474 -1.1733  1.0124
    8MOL   H417 3371   7.099   2.423   4.009 -2.2802 -2.0128 -0.4854
    8MOL   H418 3372   7.156   2.272   3.989  1.8218  0.2384 -1.1062
    8MOL   H419 3373   7.370   2.292   4.225  0.2919  1.1841  2.3952
    8MOL   H420 3374   7.280   2.274   4.365  1.5521  0.5995 -0.4679
    8MOL   H421 3375   7.268   2.147   4.254 -0.4991 -0.5340  0.9666
    8MOL   H422 3376   6.902   2.456   4.270  2.7148  0.0652 -0.5184
    9MOL     C1 3377   5.759   4.573   1.408 -0.2232 -0.0431  0.4574
    9MOL     C2 3378   5.674   4.460   1.346  0.2778  0.2694 -0.4395
    9MOL     C3 3379   5.717   4.326   1.401 -0.1863 -0.4839  0.2818
    9MOL     C4 3380   5.636   4.273   1.526 -0.3610 -0.6814  0.4544
    9MOL     C5 3381   5.481   4.271   1.496 -0.3933 -0.3011 -0.1649
    9MOL     C6 3382   5.680   4.121   1.559 -0.2664 -0.4201  0.4275
    9MOL     C7 3383   5.657   4.357   1.658  0.1220  0.3137  0.1866
    9MOL     H8 3384   5.714   4.666   1.371 -0.3170 -0.4884 -0.5631
    9MOL     H9 3385   5.765   4.567   1.516 -0.9693 -2.9862  0.3578
    9MOL    H10 3386   5.573   4.482   1.381  0.7005  0.0382  0.9583
    9MOL    H11 3387   5.823   4.319   1.422 -0.0828  0.1243 -0.0366
    9MOL    H12 3388   5.700   4.251   1.323 -1.7060  0.7702 -0.6217
    9MOL    H13 3389   5.428   4.206   1.566  1.3936 -1.9626 -0.3063
    9MOL    H14 3390   5.465   4.223   1.399 -1.0645 -0.6026  0.0870
    9MOL    H15 3391   5.426   4.364   1.507 -1.0824 -0.7009 -0.1617
    9MOL    H16 3392   5.736   4.124   1.653  3.2243  0.3645 -1.5594
    9MOL    H17 3393   5.594   4.055   1.565 -0.1614 -0.3824  2.8043
    9MOL    H18 3394   5.748   4.082   1.483 -0.4947  1.0414 -0.5521
    9MOL    H19 3395   5.764   4.374   1.673 -0.0423  0.1358  1.6788
    9MOL    H20 3396   5.624   4.305   1.748 -1.7855  0.8313 -0.1901
    9MOL    H21 3397   5.617   4.459   1.651 -0.0803  0.2282  0.1248
    9MOL    H22 3398   5.858   4.565   1.364  0.2482  0.7772  1.3668
    9MOL    C23 3399   5.690   4.457   1.189  0.1330 -0.2668 -0.3135
    9MOL    C24 3400   5.609   4.564   1.111 -0.1505  0.0935 -0.6997
    9MOL    C25 3401   5.460   4.521   1.117  0.1324  0.6526 -0.5655
    9MOL    C26 3402   5.351   4.634   1.135  0.3403 -0.1722  0.0014
    9MOL    C27 3403   5.216   4.567   1.133  0.3810 -0.1978  0.2215
    9MOL    C28 3404   5.360   4.696   1.272 -0.3123 -0.8786  0.0305
    9MOL    C29 3405   5.350   4.741   1.014  0.2508 -0.3270  0.9581
    9MOL    H30 3406   5.795   4.459   1.161 -0.1866  0.8116 -1.4944
    9MOL    H31 3407   5.663   4.359   1.151 -0.9690 -0.5081  1.0391
    9MOL    H32 3408   5.628   4.660   1.159 -1.2126  0.9051 -1.8623
    9MOL    H33 3409   5.431   4.441   1.185 -1.6138  1.0789 -0.7641
    9MOL    H34 3410   5.437   4.466   1.025 -1.4815 -1.1244  0.8573
    9MOL    H35 3411   5.134   4.635   1.158  0.2972 -0.6202  1.1190
    9MOL    H36 3412   5.196   4.530   1.033  2.7425 -0.4279 -0.1915
    9MOL    H37 3413   5.203   4.487   1.206  1.3685  0.0361  0.6635
    9MOL    H38 3414   5.273   4.760   1.281 -0.4456 -1.1554  0.7669
    9MOL    H39 3415   5.359   4.638   1.364  1.8505 -0.9042  0.0616
    9MOL    H40 3416   5.449   4.760   1.278 -0.7023 -0.0370 -2.6118
    9MOL    H41 3417   5.426   4.818   1.026  1.4885 -1.5780  1.3115
    9MOL    H42 3418   5.250   4.784   1.008  0.6178  0.3834 -0.0486
    9MOL    H43 3419   5.352   4.692   0.917  0.6703 -0.5840  1.0960
    9MOL    C44 3420   5.661   4.581   0.965  0.7545 -0.2253  0.0847
    9MOL    C45 3421   5.804   4.643   0.940  0.0380 -0.0423  0.4508
    9MOL    C46 3422   5.805   4.795   0.945 -0.5148 -0.3067  0.0395
    9MOL    C47 3423   5.913   4.863   1.036 -0.3434  0.5666  0.4487
    9MOL    C48 3424   6.056   4.862   0.969 -0.0101  0.3358 -0.2626
    9MOL    C49 3425   5.915   4.805   1.180 -0.7529  0.0340  0.4555
    9MOL    C50 3426   5.876   5.016   1.043 -0.0174 -0.3319  0.0285
    9MOL    H51 3427   5.673   4.478   0.933  0.4530 -1.2198  2.9784
    9MOL    H52 3428   5.592   4.633   0.899  2.0359 -1.2198 -2.0937
    9MOL    H53 3429   5.867   4.606   1.021 -2.4556 -2.3020  1.4271
    9MOL    H54 3430   5.714   4.828   0.995  0.4414  3.9281 -0.8486
    9MOL    H55 3431   5.789   4.839   0.846  0.7508  0.3192  0.1090
    9MOL    H56 3432   6.053   4.929   0.883  1.6833 -0.0178 -0.6208
    9MOL    H57 3433   6.100   4.772   0.926  2.2748  1.2134  0.1962
    9MOL    H58 3434   6.122   4.910   1.041  0.8258 -1.2381  0.0530
    9MOL    H59 3435   5.821   4.816   1.234  0.3004  0.3606  2.2709
    9MOL    H60 3436   5.962   4.707   1.193  2.1921  1.2907 -0.3167
    9MOL    H61 3437   5.981   4.877   1.228 -0.2204  1.1820 -1.9269
    9MOL    H62 3438   5.944   5.083   1.095  0.1126 -0.1098 -0.4249
    9MOL    H63 3439   5.860   5.055   0.942  2.5404  1.9425  0.4757
    9MOL    H64 3440   5.776   5.021   1.086  0.2459 -1.2848  0.7850
    9MOL    C65 3441   5.865   4.588   0.808  0.9644 -0.5548 -0.0794
    9MOL    C66 3442   5.917   4.445   0.807 -0.9675  0.2959 -0.4038
    9MOL    C67 3443   6.064   4.444   0.859 -0.3679 -0.5711 -0.3388
    9MOL    C68 3444   6.120   4.327   0.951  0.0972  0.4658  0.7696
    9MOL    C69 3445   6.084   4.352   1.100 -0.4234 -0.5605  0.2776
    9MOL    C70 3446   6.061   4.191   0.906 -0.4866  0.2250 -0.2566
    9MOL    C71 3447   6.279   4.311   0.942  0.1973 -0.6417 -1.0147
    9MOL    H72 3448   5.789   4.600   0.731 -0.4043 -1.2384  1.1248
    9MOL    H73 3449   5.946   4.659   0.791  1.1539  0.0550  3.0725
    9MOL    H74 3450   5.859   4.388   0.879  0.3451 -0.8471 -0.2320
    9MOL    H75 3451   6.090   4.544   0.893 -0.1510 -0.1010 -1.8203
    9MOL    H76 3452   6.123   4.439   0.767  0.0033 -3.9350  0.0070
    9MOL    H77 3453   6.133   4.293   1.178 -0.4916 -1.0775 -0.0647
    9MOL    H78 3454   6.106   4.453   1.134 -2.3447 -0.0241 -0.0305
    9MOL    H79 3455   5.976   4.346   1.119 -0.6093  1.1311 -0.2205
    9MOL    H80 3456   6.100   4.167   0.807  1.1031 -1.7363  0.7967
    9MOL    H81 3457   5.953   4.186   0.897 -0.5592  0.7416  0.2742
    9MOL    H82 3458   6.090   4.118   0.981  1.8699  1.3553 -0.0213
    9MOL    H83 3459   6.312   4.313   0.838 -2.2970 -0.2620 -1.8404
    9MOL    H84 3460   6.327   4.228   0.993 -0.0232  0.5272  1.1704
    9MOL    H85 3461   6.308   4.407   0.984 -3.0076 -0.2011  0.3652
    9MOL    C86 3462   5.901   4.385   0.668  0.1247  0.0555 -0.1481
    9MOL    C87 3463   5.764   4.358   0.601  0.1978  0.0149 -0.2462
    9MOL    C88 3464   5.719   4.215   0.652  0.0901  0.1501 -0.2282
    9MOL    C89 3465   5.565   4.199   0.660  0.7009 -0.2347 -0.0995
    9MOL    C90 3466   5.490   4.236   0.534  0.3391  0.5108  0.1612
    9MOL    C91 3467   5.513   4.274   0.786  0.5297 -0.1645 -0.6629
    9MOL    C92 3468   5.538   4.049   0.698 -0.7270  0.4763 -0.2608
    9MOL    H93 3469   5.953   4.290   0.677  1.2988  0.8228  1.5121
    9MOL    H94 3470   5.969   4.440   0.603 -1.5579  0.3237 -1.6973
    9MOL    H95 3471   5.686   4.428   0.630  0.0382  0.1629 -1.0308
    9MOL    H96 3472   5.767   4.201   0.749 -0.9428  0.6435  0.3711
    9MOL    H97 3473   5.777   4.151   0.586 -2.8319 -1.5046 -1.3089
    9MOL    H98 3474   5.493   4.343   0.512 -0.0183  0.7638  1.3329
    9MOL    H99 3475   5.385   4.210   0.542  0.0695  0.4812 -2.8734
    9MOL   H100 3476   5.505   4.172   0.447 -0.2641  1.3123 -0.5366
    9MOL   H101 3477   5.413   4.247   0.820  0.3327  0.6235 -0.6060
    9MOL   H102 3478   5.571   4.252   0.876  1.4943  0.3104 -1.1573
    9MOL   H103 3479   5.519   4.382   0.775  0.8220 -0.0158  0.9388
    9MOL   H104 3480   5.432   4.030   0.682 -0.2933 -0.5632 -2.1142
    9MOL   H105 3481   5.579   3.986   0.619  0.7971  0.4752  0.5223
    9MOL   H106 3482   5.567   4.021   0.799  0.0700 -1.2029 -0.9279
    9MOL   C107 3483   5.773   4.366   0.444 -0.1675 -0.0732 -0.4411
    9MOL   C108 3484   5.804   4.507   0.377 -0.4049 -0.0507 -0.4865
    9MOL   C109 3485   5.876   4.503   0.244  0.2814 -0.3573 -0.2133
    9MOL   C110 3486   6.035   4.504   0.241 -0.0717  0.5576 -0.8178
    9MOL   C111 3487   6.080   4.644   0.273  0.2302  0.0613  0.6480
    9MOL   C112 3488   6.079   4.469   0.097  1.4799  0.1169 -0.6029
    9MOL   C113 3489   6.102   4.416   0.352 -0.8525  0.7017  0.3855
    9MOL   H114 3490   5.684   4.326   0.396  0.3306  0.1687 -1.5790
    9MOL   H115 3491   5.858   4.302   0.421  1.1939  0.8477  1.8240
    9MOL   H116 3492   5.858   4.568   0.450 -1.3624  0.5465 -0.2731
    9MOL   H117 3493   5.843   4.413   0.190  1.9076 -0.7001 -0.6566
    9MOL   H118 3494   5.849   4.580   0.172 -2.3704  0.6210  1.7567
    9MOL   H119 3495   6.047   4.677   0.372 -2.3355  0.9644 -0.4596
    9MOL   H120 3496   6.188   4.659   0.275  0.2914 -0.4032  2.7411
    9MOL   H121 3497   6.037   4.718   0.205 -0.7216  0.1592  1.3354
    9MOL   H122 3498   6.074   4.361   0.085  0.8273 -0.1409  1.6968
    9MOL   H123 3499   6.179   4.507   0.076  1.1920  0.5698 -1.1737
    9MOL   H124 3500   6.017   4.498   0.012  2.1674  1.1222 -0.7730
    9MOL   H125 3501   6.066   4.313   0.346  2.7821 -0.6756  0.9549
    9MOL   H126 3502   6.095   4.448   0.456 -0.1091 -1.2848  1.0769
    9MOL   H127 3503   6.210   4.415   0.336 -0.6821  1.1921  1.4846
    9MOL   C128 3504   5.668   4.576   0.356  0.7679  0.2128  0.8347
    9MOL   C129 3505   5.666   4.730   0.336  0.1889  0.5711 -0.1257
    9MOL   C130 3506   5.518   4.780   0.301  0.1931  0.0185  0.2928
    9MOL   C131 3507   5.468   4.761   0.158 -0.2976  0.6443  0.5796
    9MOL   C132 3508   5.318   4.782   0.169 -0.2641 -0.7917  0.0104
    9MOL   C133 3509   5.483   4.622   0.095  0.0165  0.7806  0.0434
    9MOL   C134 3510   5.539   4.873   0.064  0.2155  0.4382  0.2429
    9MOL   H135 3511   5.611   4.551   0.446 -1.9485 -0.6296 -1.0654
    9MOL   H136 3512   5.611   4.512   0.288  0.1476 -0.3814  1.8802
    9MOL   H137 3513   5.733   4.744   0.251  0.9520 -4.3488 -0.4974
    9MOL   H138 3514   5.447   4.734   0.370  0.7018 -0.4253  0.5214
    9MOL   H139 3515   5.504   4.882   0.336 -0.0776  0.0677  0.0447
    9MOL   H140 3516   5.261   4.717   0.102  1.1777 -0.2714 -1.7504
    9MOL   H141 3517   5.291   4.887   0.153  0.2955 -0.8282 -1.2377
    9MOL   H142 3518   5.273   4.740   0.258  1.0064 -0.9044  0.6052
    9MOL   H143 3519   5.430   4.543   0.148 -0.1641  1.8315  1.4620
    9MOL   H144 3520   5.586   4.591   0.079 -1.0011 -2.0273 -1.4304
    9MOL   H145 3521   5.439   4.622   7.761  0.6288 -0.6808 -0.2428
    9MOL   H146 3522   5.463   4.889   7.754 -0.8249  0.2930  1.2348
    9MOL   H147 3523   5.558   4.960   0.127 -0.4177  1.3820 -0.8350
    9MOL   H148 3524   5.633   4.845   0.017  0.8006  0.6122  1.2874
    9MOL   C149 3525   5.704   4.795   0.469  0.2581 -0.2992  0.2771
    9MOL   C150 3526   5.746   4.941   0.445  0.2390 -0.1170  0.0061
    9MOL   C151 3527   5.716   5.027   0.573  0.5297  0.0444  0.5703
    9MOL   C152 3528   5.578   5.097   0.586  0.1222  0.6544  0.1879
    9MOL   C153 3529   5.592   5.187   0.703  0.0257  0.0127 -0.1843
    9MOL   C154 3530   5.458   5.002   0.609  1.0213 -0.0266 -0.1046
    9MOL   C155 3531   5.543   5.188   0.466  1.2278  0.0867  0.0116
    9MOL   H156 3532   5.775   4.743   0.533  0.3607 -0.6581 -0.1287
    9MOL   H157 3533   5.619   4.799   0.537 -0.1014 -0.5127 -0.1606
    9MOL   H158 3534   5.691   4.989   0.365 -1.3797  0.1257  1.2505
    9MOL   H159 3535   5.795   5.101   0.585 -0.9215  1.9482 -1.1830
    9MOL   H160 3536   5.724   4.965   0.662 -0.5910 -0.8750  0.0437
    9MOL   H161 3537   5.649   5.278   0.686 -1.2834  0.3893 -2.8188
    9MOL   H162 3538   5.496   5.222   0.743  0.3319 -1.3781  1.8098
    9MOL   H163 3539   5.632   5.131   0.787  2.8020  2.5973  0.3061
    9MOL   H164 3540   5.365   5.058   0.603  1.0683  0.1204  0.5076
    9MOL   H165 3541   5.463   4.955   0.707 -0.7347 -2.5688 -1.1789
    9MOL   H166 3542   5.452   4.919   0.539  0.1160  0.7980 -1.0132
    9MOL   H167 3543   5.518   5.147   0.368  0.2690 -2.6541  1.3546
    9MOL   H168 3544   5.459   5.256   0.478  1.4340  0.5119 -0.8413
    9MOL   H169 3545   5.622   5.261   0.448  0.0466  1.2661 -0.4791
    9MOL   C170 3546   5.901   4.944   0.415  0.4438 -0.5092  1.4896
    9MOL   C171 3547   5.964   5.069   0.344  0.4301  0.0932  0.1688
    9MOL   C172 3548   5.923   5.080   0.198  0.4267 -0.7012 -0.1292
    9MOL   C173 3549   5.925   5.221   0.134 -0.2437 -0.6608 -0.1589
    9MOL   C174 3550   5.823   5.316   0.202 -0.5726  0.3089 -0.2004
    9MOL   C175 3551   5.889   5.198   7.755  0.0797 -0.1850 -0.2196
    9MOL   C176 3552   6.058   5.295   0.135 -0.1072  0.0552 -0.3237
    9MOL   H177 3553   5.915   4.857   0.352 -2.2074  1.3995 -1.9407
    9MOL   H178 3554   5.951   4.932   0.511  1.4693 -3.0914  0.6686
    9MOL   H179 3555   5.926   5.161   0.387  0.5450 -0.3954  1.3483
    9MOL   H180 3556   5.971   5.004   0.137  1.1881 -0.9031  0.7169
    9MOL   H181 3557   5.816   5.060   0.191 -0.4608  3.7789 -0.5000
    9MOL   H182 3558   5.850   5.344   0.304 -0.3445  0.0442 -0.1882
    9MOL   H183 3559   5.815   5.411   0.148  1.3584  1.2159  1.0498
    9MOL   H184 3560   5.724   5.273   0.217 -0.5607  0.6240  0.8310
    9MOL   H185 3561   5.850   5.290   7.712  0.6623  0.4740  0.6395
    9MOL   H186 3562   5.980   5.160   7.708  2.6090  1.9735  2.7663
    9MOL   H187 3563   5.805   5.129   7.743  0.3704 -0.3172 -1.5823
    9MOL   H188 3564   6.138   5.231   0.100 -0.0325  0.0098 -0.0680
    9MOL   H189 3565   6.052   5.386   0.076 -2.7527  0.5816  0.6964
    9MOL   H190 3566   6.075   5.318   0.240 -2.9795 -2.7291  0.8430
    9MOL   C191 3567   6.121   5.066   0.359  0.5562  0.2295  0.1748
    9MOL   C192 3568   6.186   5.102   0.507 -0.3543  0.2780  0.1158
    9MOL   C193 3569   6.138   5.249   0.551 -0.6032 -0.0805 -0.3058
    9MOL   C194 3570   6.155   5.287   0.705 -0.0163 -0.0885  0.1957
    9MOL   C195 3571   6.152   5.443   0.706  0.4792  1.2689 -0.0030
    9MOL   C196 3572   6.289   5.252   0.762  0.1406 -0.7513 -0.6625
    9MOL   C197 3573   6.039   5.218   0.782  0.0533  0.3980  0.5529
    9MOL   H198 3574   6.143   4.962   0.334  0.8480  0.4249 -0.3909
    9MOL   H199 3575   6.174   5.142   0.301  1.6440 -0.1601  0.6431
    9MOL   H200 3576   6.163   5.025   0.581  0.5249 -0.7550 -0.6738
    9MOL   H201 3577   6.030   5.256   0.536 -0.7112 -0.1035  0.4010
    9MOL   H202 3578   6.190   5.314   0.482 -0.6798 -0.4445 -0.7126
    9MOL   H203 3579   6.047   5.464   0.685  0.3829 -0.0943 -0.9380
    9MOL   H204 3580   6.161   5.470   0.812 -1.2027  1.4130  0.1187
    9MOL   H205 3581   6.217   5.485   0.630  1.3443  1.7530  0.9949
    9MOL   H206 3582   6.368   5.300   0.704 -1.5511 -0.6482 -2.9630
    9MOL   H207 3583   6.292   5.302   0.859 -2.3085  1.2480 -1.5593
    9MOL   H208 3584   6.319   5.148   0.771  2.0685 -0.1203  0.7665
    9MOL   H209 3585   6.040   5.109   0.770  2.2269  0.4118  0.3332
    9MOL   H210 3586   6.036   5.231   0.891 -1.3734  0.7847  0.4785
    9MOL   H211 3587   5.944   5.242   0.735  0.2301  0.0777  0.0250
    9MOL   C212 3588   6.339   5.093   0.489  0.5203  0.1706  0.7627
    9MOL   C213 3589   6.400   4.958   0.509  0.0578 -0.1723  0.1803
    9MOL   C214 3590   6.409   4.924   0.657  0.0388  0.0475 -0.0487
    9MOL   C215 3591   6.403   4.778   0.710 -0.4131 -0.9685  0.9353
    9MOL   C216 3592   6.269   4.718   0.670  1.0435  0.7537  0.0072
    9MOL   C217 3593   6.518   4.687   0.658 -0.1564  0.4084 -0.0502
    9MOL   C218 3594   6.414   4.792   0.860  0.2848  0.6690  0.3127
    9MOL   H219 3595   6.356   5.145   0.395 -0.1000  1.7613  1.5027
    9MOL   H220 3596   6.391   5.167   0.550 -0.7388  2.6159 -1.0429
    9MOL   H221 3597   6.332   4.896   0.451  0.9591 -1.7362  0.7763
    9MOL   H222 3598   6.323   4.977   0.700 -0.1570  0.9252 -1.5006
    9MOL   H223 3599   6.500   4.965   0.701 -0.2113  0.3098  0.2259
    9MOL   H224 3600   6.184   4.768   0.717  0.6799  0.9094 -0.7999
    9MOL   H225 3601   6.260   4.618   0.713  1.2297  0.3669 -0.8445
    9MOL   H226 3602   6.246   4.708   0.564  1.0111 -0.5938  0.1280
    9MOL   H227 3603   6.504   4.666   0.552  0.8169 -1.7165  0.2021
    9MOL   H228 3604   6.611   4.741   0.674 -0.6641  1.9157 -1.9808
    9MOL   H229 3605   6.513   4.593   0.713 -0.3059 -0.3679 -1.3463
    9MOL   H230 3606   6.336   4.857   0.900 -1.2433  0.1447 -1.6807
    9MOL   H231 3607   6.512   4.826   0.894 -0.4803  0.0686  3.2605
    9MOL   H232 3608   6.410   4.691   0.901  3.0817  0.1970 -0.4435
    9MOL   C233 3609   6.542   4.962   0.454 -0.2893 -0.0307  0.1457
    9MOL   C234 3610   6.569   4.969   0.296  0.5935 -0.3480  1.1619
    9MOL   C235 3611   6.717   5.019   0.270  0.0368 -0.1881 -0.1013
    9MOL   C236 3612   6.735   5.168   0.226  0.0002  0.1132  0.1153
    9MOL   C237 3613   6.693   5.209   0.081  0.2039 -0.1633  0.0133
    9MOL   C238 3614   6.656   5.263   0.323 -0.5909 -0.3042 -0.0113
    9MOL   C239 3615   6.883   5.202   0.229 -0.2904  0.5264  0.6529
    9MOL   H240 3616   6.611   4.887   0.492 -2.0988 -0.8848  1.8179
    9MOL   H241 3617   6.590   5.049   0.498  1.1722 -0.4530 -0.5720
    9MOL   H242 3618   6.503   5.033   0.238  2.5985  1.8149  1.1725
    9MOL   H243 3619   6.781   5.007   0.357  2.7693  0.5499 -1.9625
    9MOL   H244 3620   6.765   4.960   0.193  2.5081  0.2636  1.0573
    9MOL   H245 3621   6.587   5.185   0.072  0.2374 -0.0169 -0.9117
    9MOL   H246 3622   6.735   5.148   0.001 -1.0752 -0.0455 -0.7557
    9MOL   H247 3623   6.702   5.316   0.062  1.9122 -0.1380  0.9184
    9MOL   H248 3624   6.680   5.365   0.295 -0.0348 -0.5746 -0.5220
    9MOL   H249 3625   6.549   5.246   0.309 -0.5858  1.4091 -2.4505
    9MOL   H250 3626   6.688   5.251   0.426  1.0423  1.6053 -0.2677
    9MOL   H251 3627   6.893   5.310   0.237 -2.0490  0.7499  0.0639
    9MOL   H252 3628   6.929   5.170   0.322  1.1173 -1.1827 -0.5846
    9MOL   H253 3629   6.939   5.162   0.144 -2.1434 -0.5935 -0.0749
    9MOL   C254 3630   6.543   4.830   0.252  0.0714 -0.1663 -0.1310
    9MOL   C255 3631   6.559   4.805   0.096 -0.4843 -1.0651 -0.3886
    9MOL   C256 3632   6.422   4.837   0.021 -0.8631 -1.2648  0.4758
    9MOL   C257 3633   6.418   4.877   7.636 -0.4139 -0.4774 -0.7257
    9MOL   C258 3634   6.536   4.830   7.553 -0.6314 -0.5597  0.1101
    9MOL   C259 3635   6.413   5.029   7.626 -0.4208 -0.2472  0.2469
    9MOL   C260 3636   6.288   4.826   7.566  0.4880  0.3977 -0.1340
    9MOL   H261 3637   6.440   4.802   0.271  0.5131 -0.9700  1.1343
    9MOL   H262 3638   6.596   4.759   0.315 -1.4853 -0.2232  1.1285
    9MOL   H263 3639   6.628   4.876   0.049  0.2760 -1.8436 -0.4580
    9MOL   H264 3640   6.355   4.753   0.038 -0.0375 -1.9957  0.1937
    9MOL   H265 3641   6.378   4.916   0.081  1.8691 -0.4264  1.4337
    9MOL   H266 3642   6.620   4.895   7.579 -1.8597  0.4451  1.7060
    9MOL   H267 3643   6.518   4.830   7.445  1.3202 -0.9450 -0.2278
    9MOL   H268 3644   6.554   4.724   7.566  0.6289 -0.2460  1.0344
    9MOL   H269 3645   6.498   5.073   7.677  0.9216 -0.1784 -1.9805
    9MOL   H270 3646   6.317   5.063   7.664 -0.5803  0.1093 -0.4646
    9MOL   H271 3647   6.421   5.064   7.523  0.0839 -0.7737  0.1078
    9MOL   H272 3648   6.202   4.875   7.612  1.7438  2.2848  0.2560
    9MOL   H273 3649   6.284   4.853   7.461  0.0104 -0.2856 -0.2966
    9MOL   H274 3650   6.281   4.717   7.566 -0.0760  0.3929  2.0644
    9MOL   C275 3651   6.594   4.657   0.069 -0.8373  0.2900 -0.3852
    9MOL   C276 3652   6.729   4.605   0.136  0.0735  0.0648  0.1325
    9MOL   C277 3653   6.719   4.451   0.166  0.1985  0.4772  0.2637
    9MOL   C278 3654   6.662   4.386   0.298  0.4025 -0.8329  0.4247
    9MOL   C279 3655   6.669   4.236   0.286  0.2830 -0.2758 -0.0547
    9MOL   C280 3656   6.739   4.430   0.426 -0.5050 -0.0968  0.3686
    9MOL   C281 3657   6.513   4.431   0.321 -0.3476 -0.1469 -0.3164
    9MOL   H282 3658   6.510   4.603   0.112 -1.6021 -0.6322 -2.9328
    9MOL   H283 3659   6.594   4.633   7.729 -1.3754  0.9698 -0.5443
    9MOL   H284 3660   6.756   4.653   0.229 -1.6287  0.2538  0.5502
    9MOL   H285 3661   6.823   4.419   0.164  0.4557  1.1423  1.9637
    9MOL   H286 3662   6.668   4.399   0.085 -1.8149  0.6658  1.3600
    9MOL   H287 3663   6.661   4.193   0.386  2.1872 -2.6990 -0.9110
    9MOL   H288 3664   6.584   4.206   0.224 -1.0923  1.6570  0.8055
    9MOL   H289 3665   6.752   4.205   0.223 -0.1818  1.0246 -1.3287
    9MOL   H290 3666   6.695   4.394   0.519 -1.8306 -0.9695 -0.5789
    9MOL   H291 3667   6.735   4.539   0.419 -0.7911 -0.1368 -0.0997
    9MOL   H292 3668   6.844   4.403   0.419 -0.7487 -0.9062 -0.1498
    9MOL   H293 3669   6.468   4.382   0.407  0.1723  0.0901  0.0909
    9MOL   H294 3670   6.447   4.421   0.234 -0.9697 -3.8482  0.4851
    9MOL   H295 3671   6.524   4.532   0.360 -0.5082 -0.8089  1.5023
    9MOL   C296 3672   6.849   4.627   0.049  0.3204  0.3988 -0.0860
    9MOL   C297 3673   6.989   4.636   0.105  0.6839 -0.0013 -0.8185
    9MOL   C298 3674   7.014   4.768   0.183 -0.1178  0.5923 -0.1453
    9MOL   C299 3675   7.104   4.757   0.307  0.2622 -0.8623  0.0840
    9MOL   C300 3676   7.059   4.649   0.409  0.8038  0.0448 -0.0415
    9MOL   C301 3677   7.248   4.745   0.263 -0.3941  0.6738 -0.2880
    9MOL   C302 3678   7.084   4.894   0.374  0.1751 -0.1139  0.4868
    9MOL   H303 3679   6.825   4.719   7.760 -1.4013 -1.5734 -2.8075
    9MOL   H304 3680   6.850   4.552   7.736 -1.2574 -1.6773  1.8180
    9MOL   H305 3681   7.000   4.546   0.166 -2.2954 -0.5287 -0.9865
    9MOL   H306 3682   6.915   4.801   0.217  0.0037  0.2408  0.5523
    9MOL   H307 3683   7.038   4.856   0.122 -0.3425  1.2893  0.7532
    9MOL   H308 3684   7.073   4.551   0.363 -0.5997 -0.1085 -0.1527
    9MOL   H309 3685   7.107   4.647   0.507 -1.8462 -0.3968  1.2853
    9MOL   H310 3686   6.951   4.664   0.408  1.0574  1.9338  0.0139
    9MOL   H311 3687   7.263   4.818   0.183  0.5334 -0.3171 -1.0206
    9MOL   H312 3688   7.317   4.772   0.342  0.3141 -0.7335 -0.4122
    9MOL   H313 3689   7.269   4.645   0.225 -1.0912  0.7599 -0.9231
    9MOL   H314 3690   6.981   4.907   0.405 -0.6408 -1.6145 -1.4476
    9MOL   H315 3691   7.147   4.893   0.463  2.6750 -0.5402 -1.2218
    9MOL   H316 3692   7.113   4.973   0.305 -1.4276  0.4500  0.4470
    9MOL   C317 3693   7.087   4.618   7.754  0.8717  0.3085 -0.2529
    9MOL   C318 3694   7.067   4.694   7.616  0.2957  0.5278  0.5905
    9MOL   C319 3695   7.159   4.814   7.626  0.2653 -0.1863  0.0199
    9MOL   C320 3696   7.110   4.952   7.574 -0.5967  0.3220 -0.3969
    9MOL   C321 3697   7.226   5.044   7.583 -0.2352  0.4146  0.5794
    9MOL   C322 3698   6.990   5.006   7.653  0.0839  0.1499 -0.6788
    9MOL   C323 3699   7.074   4.958   7.429  0.0973  0.6652 -0.6751
    9MOL   H324 3700   7.194   4.622   0.004  0.7769 -0.4253  0.5846
    9MOL   H325 3701   7.086   4.510   7.739 -2.0198  0.5135 -1.9850
    9MOL   H326 3702   6.965   4.724   7.591 -0.1175 -2.4962 -1.5913
    9MOL   H327 3703   7.263   4.798   7.597 -0.1942 -1.9305 -0.7035
    9MOL   H328 3704   7.186   4.836   7.729 -1.9124 -0.1588  0.6092
    9MOL   H329 3705   7.267   5.059   7.683  2.0516  0.4625 -0.3348
    9MOL   H330 3706   7.208   5.144   7.545  1.4475  0.5274  0.0255
    9MOL   H331 3707   7.301   5.006   7.514 -2.3416 -3.8347  0.4694
    9MOL   H332 3708   6.900   4.945   7.644  0.5889 -0.6767 -0.2068
    9MOL   H333 3709   7.015   5.024   7.758 -1.2571  2.2168 -0.6785
    9MOL   H334 3710   6.967   5.105   7.613 -0.7760  1.0407  1.9052
    9MOL   H335 3711   6.975   4.921   7.402 -0.1653  1.3322 -0.6377
    9MOL   H336 3712   7.149   4.913   7.364  1.8948  1.6050  0.7073
    9MOL   H337 3713   7.074   5.061   7.391 -2.9136  0.4877 -1.3215
    9MOL   C338 3714   7.104   4.598   7.500 -0.4070 -0.4885 -0.2383
    9MOL   C339 3715   7.028   4.468   7.470 -0.7465 -0.1212 -0.3216
    9MOL   C340 3716   7.106   4.376   7.374 -0.1945 -0.3900 -0.1387
    9MOL   C341 3717   7.176   4.255   7.435 -0.1358 -0.7196 -0.5583
    9MOL   C342 3718   7.067   4.160   7.500  0.2705  0.0405 -0.3236
    9MOL   C343 3719   7.235   4.177   7.308  0.4695  0.1815 -0.5259
    9MOL   C344 3720   7.283   4.278   7.540  0.1694  0.0372 -0.1602
    9MOL   H345 3721   7.206   4.573   7.532 -0.5581  0.4059  0.9976
    9MOL   H346 3722   7.107   4.662   7.412 -3.0494 -0.7453 -0.5381
    9MOL   H347 3723   7.020   4.410   7.562 -1.1179 -0.7161 -0.7231
    9MOL   H348 3724   7.186   4.429   7.322 -1.3320  0.1584 -1.3486
    9MOL   H349 3725   7.038   4.354   7.291  1.2629  2.1166 -2.0601
    9MOL   H350 3726   7.115   4.080   7.556  0.0384  0.4945  0.5315
    9MOL   H351 3727   7.007   4.214   7.573  0.1322  0.0267 -0.4265
    9MOL   H352 3728   7.001   4.104   7.434  1.4377 -2.9257  0.9566
    9MOL   H353 3729   7.147   4.155   7.247  1.4240 -3.8199 -0.5659
    9MOL   H354 3730   7.307   4.238   7.253  0.2180  2.1065  1.2206
    9MOL   H355 3731   7.274   4.078   7.330  2.2144  0.5598 -1.8387
    9MOL   H356 3732   7.350   4.356   7.505  0.9635 -0.0359  1.1627
    9MOL   H357 3733   7.232   4.300   7.633 -2.5719 -1.6943 -1.1809
    9MOL   H358 3734   7.337   4.185   7.560  1.2124  0.1833 -2.1121
    9MOL   C359 3735   6.887   4.512   7.413  0.3536 -0.0473  0.7851
    9MOL   C360 3736   6.785   4.403   7.373 -0.3846 -0.5740  0.7958
    9MOL   C361 3737   6.676   4.460   7.275  0.2331  0.1001 -0.4866
    9MOL   C362 3738   6.686   4.433   7.129 -0.2091 -0.2497  0.2063
    9MOL   C363 3739   6.639   4.293   7.091  1.3314  0.0779 -0.2327
    9MOL   C364 3740   6.831   4.440   7.075 -0.4747  0.3994 -0.1029
    9MOL   C365 3741   6.610   4.547   7.055 -0.1047  0.4928 -0.3798
    9MOL   H366 3742   6.917   4.573   7.329  3.4079  0.4611  2.1901
    9MOL   H367 3743   6.840   4.590   7.473  1.6853  0.1079  1.6299
    9MOL   H368 3744   6.834   4.323   7.318  3.3639  1.9075  0.3210
    9MOL   H369 3745   6.575   4.425   7.297  0.5844  1.1830  3.1373
    9MOL   H370 3746   6.670   4.567   7.292  1.4088 -0.1841  1.8763
    9MOL   H371 3747   6.696   4.213   7.136 -0.0863 -0.4827  0.5913
    9MOL   H372 3748   6.538   4.261   7.117  0.9373  2.9978  2.1125
    9MOL   H373 3749   6.643   4.279   6.983  1.4797  2.9943 -0.6431
    9MOL   H374 3750   6.885   4.529   7.106 -1.2896  1.1844 -0.8869
    9MOL   H375 3751   6.822   4.429   6.967 -0.8687 -1.9861  0.1403
    9MOL   H376 3752   6.898   4.357   7.099 -3.0999 -1.5368  0.8010
    9MOL   H377 3753   6.503   4.551   7.074 -0.3243 -3.5602 -0.2809
    9MOL   H378 3754   6.617   4.534   6.947  3.1548  0.0240 -0.1543
    9MOL   H379 3755   6.639   4.649   7.081  2.1762 -0.5722  1.4139
    9MOL   C380 3756   6.709   4.355   7.497 -0.3772  0.2697 -0.3458
    9MOL   C381 3757   6.610   4.234   7.481 -0.1040 -0.4181  0.3596
    9MOL   C382 3758   6.530   4.199   7.605  0.3671 -0.0043  0.2617
    9MOL   C383 3759   6.379   4.247   7.608 -0.0097  0.4472 -0.3028
    9MOL   C384 3760   6.369   4.405   7.599 -0.4022 -0.2413 -0.8033
    9MOL   C385 3761   6.319   4.210   7.738  0.3748 -0.0172 -0.6632
    9MOL   C386 3762   6.301   4.177   7.492 -0.2590  0.0263 -0.1180
    9MOL   H387 3763   6.664   4.444   7.541  2.1984  1.2347  0.4126
    9MOL   H388 3764   6.778   4.335   7.579 -0.0268 -0.7289 -0.8793
    9MOL   H389 3765   6.543   4.258   7.400  2.7332  3.2392 -1.0290
    9MOL   H390 3766   6.525   4.091   7.617  0.7016 -0.3068 -2.1106
    9MOL   H391 3767   6.573   4.233   7.699 -1.1843  1.0179  0.6218
    9MOL   H392 3768   6.402   4.437   7.501 -0.3962 -0.2629 -0.8089
    9MOL   H393 3769   6.274   4.454   7.622 -0.0019  1.0208 -1.8046
    9MOL   H394 3770   6.437   4.447   7.672  0.7152 -1.2210 -1.2600
    9MOL   H395 3771   6.213   4.232   7.745  0.2189 -0.9165 -0.2422
    9MOL   H396 3772   6.354   4.260   0.063 -1.1489  2.5318 -1.4394
    9MOL   H397 3773   6.326   4.104   7.760  0.3932 -0.0507 -0.8289
    9MOL   H398 3774   6.193   4.193   7.500  0.0737  2.1880  0.3491
    9MOL   H399 3775   6.305   4.069   7.503 -1.6481 -0.1716 -1.3400
    9MOL   H400 3776   6.325   4.207   7.390 -1.6168  2.9136  0.3443
    9MOL   C401 3777   6.688   4.109   7.445 -0.2476  0.1611 -0.6236
    9MOL   C402 3778   6.607   4.004   7.367 -0.6934 -0.0882 -0.4038
    9MOL   C403 3779   6.691   3.886   7.314 -0.1258  0.5703  0.7304
    9MOL   C404 3780   6.610   3.796   7.223 -0.7565 -0.0111  0.0589
    9MOL   C405 3781   6.693   3.660   7.211 -0.0433 -0.2340 -1.1401
    9MOL   C406 3782   6.596   3.858   7.080 -0.1315 -0.3553 -0.0221
    9MOL   C407 3783   6.470   3.764   7.278 -0.3008 -0.3722  0.1851
    9MOL   H408 3784   6.767   4.134   7.374 -0.9415  1.6468 -0.8974
    9MOL   H409 3785   6.727   4.068   7.539 -1.9402  0.6494  0.3178
    9MOL   H410 3786   6.517   3.974   7.420 -1.5287 -2.0448 -2.8135
    9MOL   H411 3787   6.721   3.831   7.403  3.5066  0.7225 -0.3258
    9MOL   H412 3788   6.780   3.918   7.260 -0.0911  0.7385  0.8852
    9MOL   H413 3789   6.788   3.679   7.161  0.9206  1.8884  1.3507
    9MOL   H414 3790   6.638   3.596   7.142  3.2075 -0.2090 -3.8902
    9MOL   H415 3791   6.712   3.610   7.306 -2.4592  4.0252  1.7669
    9MOL   H416 3792   6.539   3.950   7.089  1.7269  0.7264  0.9372
    9MOL   H417 3793   6.550   3.795   7.003  1.1101  0.8672 -1.8105
    9MOL   H418 3794   6.689   3.879   7.026 -1.1797  2.8298 -0.6439
    9MOL   H419 3795   6.408   3.703   7.212 -2.5513 -0.3288  2.1879
    9MOL   H420 3796   6.472   3.710   7.373 -3.1298 -0.4957  0.2142
    9MOL   H421 3797   6.403   3.848   7.296  0.8335  0.4784  0.4537
    9MOL   H422 3798   6.554   4.047   7.282 -0.8651 -2.4889 -1.5464
   10MOL     C1 3799   1.778   5.752   6.901  0.2028  0.0593  0.1304
   10MOL     C2 3800   1.794   5.725   7.050  0.1248  0.3375 -0.7274
   10MOL     C3 3801   1.871   5.597   7.087 -0.2040  0.1473  0.1624
   10MOL     C4 3802   2.016   5.614   7.126 -0.2227  0.4078 -0.2997
   10MOL     C5 3803   2.077   5.471   7.153 -0.0056 -0.0733  0.2034
   10MOL     C6 3804   2.093   5.675   7.011  0.9159  0.2597 -0.3397
   10MOL     C7 3805   2.032   5.699   7.245  0.2903  0.3427 -0.3954
   10MOL     H8 3806   1.875   5.756   6.853  0.3138  0.9376  0.4067
   10MOL     H9 3807   1.710   5.678   6.860 -0.7237  0.8485  0.2100
   10MOL    H10 3808   1.845   5.810   7.094  1.6341 -0.5619 -0.7019
   10MOL    H11 3809   1.862   5.531   7.001  0.1420  0.5415 -0.1790
   10MOL    H12 3810   1.834   5.545   7.175 -0.3865  2.6904  1.6444
   10MOL    H13 3811   2.072   5.405   7.066  0.3528  0.9646 -0.6240
   10MOL    H14 3812   2.035   5.421   7.240  0.2099  1.5777  1.2733
   10MOL    H15 3813   2.185   5.465   7.166  0.2581  2.3560 -0.5217
   10MOL    H16 3814   2.064   5.779   7.006 -0.7542 -0.1263  0.9035
   10MOL    H17 3815   2.199   5.660   7.035  0.8711 -0.1067 -0.3549
   10MOL    H18 3816   2.070   5.633   6.913 -0.2246 -0.0990  0.0770
   10MOL    H19 3817   1.978   5.660   7.331 -0.4314  1.6723 -0.2229
   10MOL    H20 3818   2.023   5.807   7.230 -0.1793  0.4591  0.7007
   10MOL    H21 3819   2.139   5.699   7.262 -0.1476 -0.4731  2.4981
   10MOL    H22 3820   1.728   5.848   6.888  0.5650  0.3724  0.9945
   10MOL    C23 3821   1.654   5.697   7.110  0.2057 -0.4681 -0.0270
   10MOL    C24 3822   1.573   5.824   7.142 -0.3858  0.6880 -0.1022
   10MOL    C25 3823   1.631   5.899   7.266  0.0932  0.2120  0.5038
   10MOL    C26 3824   1.641   6.056   7.268  0.2975 -0.7091  0.3379
   10MOL    C27 3825   1.732   6.107   7.166  0.0411 -0.5424 -0.2913
   10MOL    C28 3826   1.501   6.133   7.252 -1.2105 -0.1157 -0.5247
   10MOL    C29 3827   1.704   6.098   7.404  0.3021 -0.2731  0.5413
   10MOL    H30 3828   1.604   5.624   7.047 -0.5917  0.0576 -0.0046
   10MOL    H31 3829   1.662   5.660   7.212 -0.4579  1.1758  0.6396
   10MOL    H32 3830   1.581   5.895   7.060  0.2541 -0.3194 -0.9144
   10MOL    H33 3831   1.730   5.856   7.275 -1.3329 -3.5439 -0.5750
   10MOL    H34 3832   1.575   5.872   7.355 -1.9363 -2.0255 -1.3500
   10MOL    H35 3833   1.754   6.210   7.194 -2.4411  0.1168 -0.6592
   10MOL    H36 3834   1.829   6.056   7.165  1.0662  1.3691 -1.3841
   10MOL    H37 3835   1.701   6.105   7.062 -0.9392  0.5148 -0.0311
   10MOL    H38 3836   1.517   6.241   7.258 -0.3783 -0.2725  0.1264
   10MOL    H39 3837   1.445   6.094   7.166  1.5253 -1.9125 -1.5376
   10MOL    H40 3838   1.433   6.107   7.333 -1.1282  0.5232 -0.2520
   10MOL    H41 3839   1.685   6.031   7.488  0.5114  0.0726  0.8673
   10MOL    H42 3840   1.677   6.198   7.435 -0.5392 -0.8559  1.7422
   10MOL    H43 3841   1.812   6.082   7.410  0.2717 -0.1234  1.5877
   10MOL    C44 3842   1.424   5.791   7.159  0.1013 -0.5485 -0.6171
   10MOL    C45 3843   1.334   5.745   7.042 -0.3291 -0.2271  0.5774
   10MOL    C46 3844   1.331   5.857   6.928  0.1240  0.0955 -1.0617
   10MOL    C47 3845   1.315   5.810   6.781  0.1960 -0.7259 -0.0908
   10MOL    C48 3846   1.204   5.711   6.773  0.1212 -0.6466 -0.7337
   10MOL    C49 3847   1.445   5.740   6.722 -0.8998  0.7189 -0.5290
   10MOL    C50 3848   1.293   5.939   6.698 -0.3636 -0.5963  0.1043
   10MOL    H51 3849   1.424   5.714   7.235  2.2668 -0.8712 -0.9147
   10MOL    H52 3850   1.371   5.871   7.211  0.0561 -1.4813  0.7831
   10MOL    H53 3851   1.388   5.658   7.004  1.3990  1.4986 -1.0460
   10MOL    H54 3852   1.425   5.911   6.946  0.7867 -1.1487 -0.7441
   10MOL    H55 3853   1.246   5.921   6.951  0.9433 -0.0323  2.6343
   10MOL    H56 3854   1.115   5.751   6.822  0.2541 -1.3184  0.0649
   10MOL    H57 3855   1.238   5.621   6.824 -0.4782 -0.7880 -0.5844
   10MOL    H58 3856   1.186   5.683   6.669  0.1208  0.3108 -0.9946
   10MOL    H59 3857   1.430   5.722   6.616 -1.6228 -1.9254 -0.0162
   10MOL    H60 3858   1.524   5.810   6.750 -1.6792  1.5344 -0.3470
   10MOL    H61 3859   1.459   5.646   6.775  0.8043  1.0015 -0.4364
   10MOL    H62 3860   1.264   5.915   6.595 -2.0499  1.2592  0.1169
   10MOL    H63 3861   1.204   5.993   6.729 -0.5383 -0.5846 -0.4100
   10MOL    H64 3862   1.367   6.016   6.716 -0.6796 -0.4001  0.5713
   10MOL    C65 3863   1.186   5.714   7.096 -0.3163  0.4592 -0.8050
   10MOL    C66 3864   1.166   5.632   7.224 -1.0127  0.1381  0.3628
   10MOL    C67 3865   1.193   5.707   7.362  0.8263 -0.0543  0.1760
   10MOL    C68 3866   1.075   5.758   7.440 -0.2485  0.0419  0.2954
   10MOL    C69 3867   1.004   5.641   7.510 -0.5129 -0.2598  0.9929
   10MOL    C70 3868   1.115   5.861   7.546 -0.0804 -0.0964 -0.4350
   10MOL    C71 3869   0.974   5.839   7.353 -0.0257 -0.1679  0.0878
   10MOL    H72 3870   1.137   5.810   7.115 -0.2491  0.7453 -2.0213
   10MOL    H73 3871   1.118   5.664   7.026  0.0682 -1.3010  0.0551
   10MOL    H74 3872   1.064   5.596   7.209 -1.5553  0.8087  2.3184
   10MOL    H75 3873   1.259   5.793   7.348  2.1287 -0.9456  0.7863
   10MOL    H76 3874   1.245   5.640   7.431 -1.7837 -2.5495 -0.1848
   10MOL    H77 3875   0.931   5.682   7.580 -0.2824 -0.1548  1.1734
   10MOL    H78 3876   0.947   5.579   7.441 -0.7533  1.2651 -0.2065
   10MOL    H79 3877   1.075   5.578   7.565  1.6536  0.5736 -0.7806
   10MOL    H80 3878   1.044   5.926   7.597  2.5698  2.2984  0.3472
   10MOL    H81 3879   1.189   5.925   7.498 -1.5483  0.4821 -1.9366
   10MOL    H82 3880   1.168   5.804   7.623  0.2372  1.1181  0.2516
   10MOL    H83 3881   1.018   5.928   7.309 -0.7619 -0.6965 -1.7422
   10MOL    H84 3882   0.894   5.875   7.418 -0.5479  1.0348 -1.2232
   10MOL    H85 3883   0.945   5.774   7.271  1.4515 -1.6857  0.7330
   10MOL    C86 3884   1.239   5.498   7.224 -0.4349  0.0416  0.8149
   10MOL    C87 3885   1.186   5.375   7.300  0.1592  0.2200  0.4276
   10MOL    C88 3886   1.279   5.251   7.265  0.4218  0.2715 -0.0221
   10MOL    C89 3887   1.421   5.234   7.331  0.1097 -0.2494 -0.5277
   10MOL    C90 3888   1.526   5.330   7.269 -0.5150  0.0836  0.3548
   10MOL    C91 3889   1.472   5.088   7.304  0.2951 -0.0259 -0.2200
   10MOL    C92 3890   1.419   5.255   7.480  0.5620 -0.4246 -0.0535
   10MOL    H93 3891   1.337   5.522   7.265 -0.4885 -2.2318  2.3268
   10MOL    H94 3892   1.259   5.465   7.122  0.3962  0.2686  0.9056
   10MOL    H95 3893   1.166   5.397   7.405  2.0841 -0.9053  1.0519
   10MOL    H96 3894   1.294   5.225   7.160 -1.1780 -3.5027  0.6197
   10MOL    H97 3895   1.219   5.166   7.297  1.4047 -0.0078  1.1071
   10MOL    H98 3896   1.625   5.289   7.285  0.2843  1.5617 -0.7758
   10MOL    H99 3897   1.510   5.434   7.300  0.3161 -0.3035  2.1425
   10MOL   H100 3898   1.519   5.326   7.160 -1.4074 -2.2605  0.4648
   10MOL   H101 3899   1.439   5.055   7.205 -2.3925 -1.0427  0.9714
   10MOL   H102 3900   1.580   5.076   7.318  0.5432  0.9549 -1.2783
   10MOL   H103 3901   1.413   5.022   7.367 -1.5004  1.7632 -0.0189
   10MOL   H104 3902   1.378   5.351   7.512  0.0793 -0.1552 -1.4437
   10MOL   H105 3903   1.360   5.182   7.534 -0.9741  0.3216 -0.6921
   10MOL   H106 3904   1.519   5.263   7.524  0.3403 -2.9447  0.9769
   10MOL   C107 3905   1.045   5.342   7.246  0.3128  0.0355  0.3639
   10MOL   C108 3906   0.956   5.226   7.300  0.7393 -1.0337 -0.4257
   10MOL   C109 3907   0.909   5.270   7.439  0.0694  0.0519  0.0027
   10MOL   C110 3908   0.910   5.161   7.550  0.4692 -0.0684 -0.1681
   10MOL   C111 3909   1.053   5.131   7.586  0.0515  0.0595 -0.0995
   10MOL   C112 3910   0.835   5.036   7.515  0.0130 -0.4676 -0.3390
   10MOL   C113 3911   0.863   5.226   7.686 -0.2720 -0.2931 -0.4151
   10MOL   H114 3912   1.055   5.333   7.138  0.4237  0.1494  0.3652
   10MOL   H115 3913   0.978   5.427   7.257  1.1000  0.7150 -0.1013
   10MOL   H116 3914   1.015   5.134   7.308 -0.7915 -1.8409  2.2203
   10MOL   H117 3915   0.968   5.347   7.489  0.5902 -0.0792 -0.4122
   10MOL   H118 3916   0.811   5.317   7.428 -0.4539 -0.9797  0.2042
   10MOL   H119 3917   1.110   5.223   7.583 -1.2190  0.8932  0.9150
   10MOL   H120 3918   1.075   5.067   7.672  2.3685 -0.9684 -1.4174
   10MOL   H121 3919   1.093   5.077   7.500  2.9191  0.2915  1.0369
   10MOL   H122 3920   0.841   4.962   7.594  1.1739 -0.1250 -0.1085
   10MOL   H123 3921   0.867   4.979   7.428 -0.4709 -0.8713 -0.2548
   10MOL   H124 3922   0.730   5.064   7.505  0.0524 -0.2562 -0.1676
   10MOL   H125 3923   0.889   5.167   0.008 -0.7660  0.9910  0.6061
   10MOL   H126 3924   0.754   5.221   7.689 -0.2045 -0.9261  1.7257
   10MOL   H127 3925   0.904   5.325   7.706 -2.3516  0.7984 -1.4761
   10MOL   C128 3926   0.832   5.202   7.206 -0.6284 -0.5506 -1.0507
   10MOL   C129 3927   0.871   5.120   7.073 -0.2861  0.3820 -0.3377
   10MOL   C130 3928   0.912   4.968   7.105  0.3107  0.5745  0.1593
   10MOL   C131 3929   1.027   4.908   7.017  0.2556 -0.3443  0.2491
   10MOL   C132 3930   1.043   4.760   7.065  0.2466  0.2528 -0.9218
   10MOL   C133 3931   1.155   4.986   7.051  0.1809  0.1563  0.5078
   10MOL   C134 3932   1.008   4.906   6.862 -0.2052  0.1569 -0.4749
   10MOL   H135 3933   0.779   5.296   7.191 -1.9133 -1.1550 -0.3996
   10MOL   H136 3934   0.763   5.134   7.257 -1.5753 -0.7520 -2.5903
   10MOL   H137 3935   0.952   5.173   7.023 -0.2577 -1.1457 -1.9596
   10MOL   H138 3936   0.942   4.962   7.209 -2.1467 -1.9883  0.8055
   10MOL   H139 3937   0.823   4.905   7.109  1.6159 -1.3432 -0.5060
   10MOL   H140 3938   1.052   4.758   7.174  0.3683 -0.7493 -0.9446
   10MOL   H141 3939   1.137   4.726   7.023  0.8413 -0.7750  1.1994
   10MOL   H142 3940   0.954   4.705   7.033 -0.4568  0.5305  0.4934
   10MOL   H143 3941   1.150   5.095   7.049  0.8685  0.1832  0.1013
   10MOL   H144 3942   1.236   4.950   6.988 -1.5578 -0.0432 -1.6641
   10MOL   H145 3943   1.182   4.973   7.156  0.9308 -0.9659  0.1867
   10MOL   H146 3944   1.070   4.831   6.813  0.5237 -0.0195  0.6953
   10MOL   H147 3945   0.907   4.879   6.833 -0.8485 -1.6867  3.1970
   10MOL   H148 3946   1.014   5.003   6.812 -0.5216  0.6474  0.4164
   10MOL   C149 3947   0.756   5.118   6.967  0.2461  0.2980 -0.5087
   10MOL   C150 3948   0.713   5.255   6.913  0.2119 -0.5650 -0.2324
   10MOL   C151 3949   0.832   5.289   6.805 -0.0134 -0.1782 -0.6420
   10MOL   C152 3950   0.853   5.445   6.769  0.1675 -0.7210  0.3623
   10MOL   C153 3951   0.728   5.509   6.703  0.3366 -0.3919 -0.8556
   10MOL   C154 3952   0.980   5.456   6.677 -0.4049  0.7119 -0.2883
   10MOL   C155 3953   0.886   5.515   6.898  0.3676 -0.3596  0.5060
   10MOL   H156 3954   0.679   5.062   7.021 -0.5765  0.4906 -1.4622
   10MOL   H157 3955   0.786   5.059   6.881  1.1305 -0.3177  0.2255
   10MOL   H158 3956   0.709   5.329   6.993  1.8549 -0.2177 -0.4337
   10MOL   H159 3957   0.814   5.234   6.713 -2.2980 -0.2807 -0.1635
   10MOL   H160 3958   0.925   5.250   6.848 -1.2013  0.9742  3.2269
   10MOL   H161 3959   0.648   5.508   6.777  1.6446  0.5442  0.6252
   10MOL   H162 3960   0.731   5.614   6.675  0.7525 -0.0220  0.4951
   10MOL   H163 3961   0.698   5.457   6.612 -0.6477  0.1713 -0.8540
   10MOL   H164 3962   0.995   5.373   6.608  3.3909  0.4780  0.7330
   10MOL   H165 3963   1.075   5.454   6.730  0.5748  1.0975 -1.9982
   10MOL   H166 3964   0.989   5.547   6.618  0.6527  0.3968 -0.6260
   10MOL   H167 3965   0.894   5.623   6.889 -1.8831 -0.2138  0.0149
   10MOL   H168 3966   0.811   5.509   6.977  0.3369  0.4242  0.5445
   10MOL   H169 3967   0.969   5.460   6.944 -0.9080  0.0043  3.3575
   10MOL   C170 3968   0.574   5.240   6.840 -0.0452 -0.6245 -0.0561
   10MOL   C171 3969   0.451   5.223   6.932 -0.1089 -0.1404  0.5785
   10MOL   C172 3970   0.323   5.166   6.848 -0.2266 -0.0717 -0.1676
   10MOL   C173 3971   0.337   5.030   6.776  0.1864  0.1479 -0.1837
   10MOL   C174 3972   0.393   5.043   6.627  0.1035  0.4000  0.4146
   10MOL   C175 3973   0.211   4.958   6.762  0.1733 -0.5184 -0.2022
   10MOL   C176 3974   0.422   4.933   6.861 -0.1826  0.0529 -0.2533
   10MOL   H177 3975   0.589   5.147   6.785  0.0345 -0.3032 -0.5705
   10MOL   H178 3976   0.533   5.314   6.772 -1.6814 -2.2614 -0.8775
   10MOL   H179 3977   0.471   5.145   7.006  0.5333  0.8225  1.4210
   10MOL   H180 3978   0.233   5.164   6.910 -0.8928 -0.2045 -1.1259
   10MOL   H181 3979   0.299   5.239   6.770 -0.1683 -0.5634 -0.6494
   10MOL   H182 3980   0.497   5.075   6.626  0.0846  0.4293 -0.8070
   10MOL   H183 3981   0.379   4.953   6.568  1.7568 -1.1040  2.2303
   10MOL   H184 3982   0.344   5.110   6.557 -0.2385 -1.0122 -0.7065
   10MOL   H185 3983   0.163   4.952   6.860  1.6359 -3.0622  0.3908
   10MOL   H186 3984   0.135   5.006   6.700  0.6679  1.8472  0.9516
   10MOL   H187 3985   0.225   4.854   6.733  1.2228 -0.0615 -1.3460
   10MOL   H188 3986   0.403   4.941   6.968 -0.1887 -0.8474 -0.1835
   10MOL   H189 3987   0.415   4.826   6.840  1.9227 -0.0682 -0.5107
   10MOL   H190 3988   0.530   4.946   6.852 -0.2716 -0.9107 -3.0833
   10MOL   C191 3989   0.411   5.357   6.997  0.4728 -0.2077  0.6454
   10MOL   C192 3990   0.323   5.350   7.118 -0.2980  0.3252 -0.1826
   10MOL   C193 3991   0.271   5.490   7.150  0.7378  0.4367 -0.2151
   10MOL   C194 3992   0.136   5.536   7.082 -0.6791  0.3155  0.0638
   10MOL   C195 3993   0.014   5.454   7.126  0.0520 -0.2641 -0.0149
   10MOL   C196 3994   0.144   5.541   6.926 -0.2522  0.6081 -0.5458
   10MOL   C197 3995   0.115   5.675   7.141  0.1482 -0.1552 -0.1275
   10MOL   H198 3996   0.502   5.413   7.018 -0.0587  0.6600  0.6658
   10MOL   H199 3997   0.352   5.410   6.921  1.6656  1.7523  1.0411
   10MOL   H200 3998   0.240   5.284   7.093 -1.1218  1.4527 -0.4563
   10MOL   H201 3999   0.350   5.564   7.137 -1.2192  2.6217  0.1730
   10MOL   H202 4000   0.265   5.499   7.258  2.3869  0.5934 -0.1179
   10MOL   H203 4001   7.691   5.511   7.100 -1.3151 -1.4159  2.0060
   10MOL   H204 4002   0.017   5.364   7.064 -0.3564 -1.4684  1.6820
   10MOL   H205 4003   0.019   5.426   7.231 -0.8243 -1.0965 -0.1866
   10MOL   H206 4004   0.223   5.606   6.891  1.5293 -1.1998  0.0081
   10MOL   H207 4005   0.152   5.446   6.872 -0.4884 -0.1630  0.7410
   10MOL   H208 4006   0.058   5.592   6.882 -1.2312 -2.3327 -2.2609
   10MOL   H209 4007   0.187   5.749   7.104 -0.8562  1.2515  0.7006
   10MOL   H210 4008   0.013   5.713   7.130  0.9348  2.4534  1.0880
   10MOL   H211 4009   0.127   5.677   7.249 -2.5792 -1.4349  0.2360
   10MOL   C212 4010   0.406   5.290   7.232 -0.5385 -0.6985  0.0650
   10MOL   C213 4011   0.319   5.202   7.332  0.0244 -0.2988  0.6074
   10MOL   C214 4012   0.398   5.195   7.465  0.2189 -0.0080  0.1184
   10MOL   C215 4013   0.337   5.275   7.581 -0.3352 -0.1245 -0.2114
   10MOL   C216 4014   0.296   5.422   7.548 -0.0404 -0.3814  0.1118
   10MOL   C217 4015   0.206   5.210   7.641 -0.5536 -0.5827  0.0524
   10MOL   C218 4016   0.446   5.275   7.692  0.5927 -0.0874 -0.0676
   10MOL   H219 4017   0.493   5.228   7.211  0.7139  0.3759  1.8889
   10MOL   H220 4018   0.453   5.378   7.277 -1.6862  0.2744 -0.5800
   10MOL   H221 4019   0.218   5.241   7.336 -0.9821 -2.6965 -0.3357
   10MOL   H222 4020   0.503   5.219   7.449  0.2441 -0.3373 -0.2015
   10MOL   H223 4021   0.397   5.091   7.497 -3.6030  0.7770  2.8409
   10MOL   H224 4022   0.264   5.480   7.634  1.1331  1.2328 -0.5026
   10MOL   H225 4023   0.226   5.433   7.465 -0.7746  2.5055  1.0588
   10MOL   H226 4024   0.387   5.471   7.513 -1.4110  1.0504 -1.5573
   10MOL   H227 4025   0.143   5.215   7.553 -1.1310 -0.0578  0.4894
   10MOL   H228 4026   0.211   5.106   7.672  0.5900 -0.3561  0.6635
   10MOL   H229 4027   0.174   5.256   7.734  3.0010  2.4931 -0.1195
   10MOL   H230 4028   0.409   5.333   0.010 -1.0137  0.9354 -1.4403
   10MOL   H231 4029   0.536   5.322   7.653 -0.1686  1.8954  0.5236
   10MOL   H232 4030   0.458   5.171   7.722  2.1424 -0.0239 -0.4597
   10MOL   C233 4031   0.311   5.065   7.259  0.2426  0.8704  0.6908
   10MOL   C234 4032   0.188   4.979   7.302 -0.1033  0.1529  0.2665
   10MOL   C235 4033   0.065   5.012   7.217  0.1651 -0.4725  0.1028
   10MOL   C236 4034   7.687   5.016   7.283  0.4565  0.3814 -0.6077
   10MOL   C237 4035   7.646   4.878   7.349  0.0690 -0.0937 -0.3005
   10MOL   C238 4036   7.670   5.124   7.396 -0.5513  0.5362 -0.2022
   10MOL   C239 4037   7.598   5.056   7.167 -0.2865  0.0749  0.1280
   10MOL   H240 4038   0.406   5.013   7.271  0.3637  1.2908  1.5681
   10MOL   H241 4039   0.294   5.084   7.153  0.3414 -0.0122  0.5156
   10MOL   H242 4040   0.170   5.002   7.407  2.6932 -0.8910  1.0151
   10MOL   H243 4041   0.087   5.103   7.162 -1.4141 -0.8712 -1.2553
   10MOL   H244 4042   0.061   4.941   7.134 -1.5473 -1.1551  0.7448
   10MOL   H245 4043   7.677   4.799   7.281  0.7955 -1.6161  1.7399
   10MOL   H246 4044   7.546   4.864   7.389  1.0607  0.3794  2.4755
   10MOL   H247 4045   7.710   4.861   7.436 -0.3227 -0.5781 -0.1072
   10MOL   H248 4046   7.724   5.114   7.490  1.4570  0.0732 -1.3928
   10MOL   H249 4047   7.684   5.224   7.357 -0.5244  1.6015  2.4009
   10MOL   H250 4048   7.565   5.122   7.427 -0.4952  0.1416 -0.0295
   10MOL   H251 4049   7.612   4.988   7.083 -0.1805 -0.5619  0.6576
   10MOL   H252 4050   7.495   5.051   7.202  0.2159 -1.7132  1.4687
   10MOL   H253 4051   7.631   5.153   7.130  3.1958 -1.0902 -0.0300
   10MOL   C254 4052   0.222   4.829   7.285 -0.6048  0.3092  0.5716
   10MOL   C255 4053   0.318   4.774   7.397 -0.1982 -0.6301  0.3707
   10MOL   C256 4054   0.399   4.655   7.353 -0.1621  0.2454 -1.0238
   10MOL   C257 4055   0.541   4.669   7.286 -0.1384  0.3619  1.0531
   10MOL   C258 4056   0.649   4.751   7.358  0.3639 -0.2213  0.2834
   10MOL   C259 4057   0.522   4.735   7.145 -0.2742 -0.7563  0.0021
   10MOL   C260 4058   0.600   4.525   7.267  0.7889  0.1394 -0.3509
   10MOL   H261 4059   0.274   4.804   7.192  0.0014 -0.0839  1.0087
   10MOL   H262 4060   0.127   4.775   7.285 -0.8982  0.8177 -0.6976
   10MOL   H263 4061   0.390   4.853   7.418  0.0890  0.2455 -3.5384
   10MOL   H264 4062   0.410   4.580   7.431  1.4582 -0.0529 -1.5297
   10MOL   H265 4063   0.338   4.613   7.272 -0.1060  0.6066 -1.2582
   10MOL   H266 4064   0.604   4.843   7.394  3.9934  1.7051  0.1554
   10MOL   H267 4065   0.730   4.776   7.289 -1.8210  0.4954 -2.1121
   10MOL   H268 4066   0.699   4.692   7.435  0.9254 -0.7426 -0.4727
   10MOL   H269 4067   0.476   4.833   7.155  0.0419 -0.7678  1.7268
   10MOL   H270 4068   0.463   4.664   7.087  0.3291 -0.4072 -1.0592
   10MOL   H271 4069   0.620   4.747   7.099 -0.9692  0.7541 -1.1118
   10MOL   H272 4070   0.536   4.468   7.200  2.2706 -1.4488 -0.4336
   10MOL   H273 4071   0.698   4.520   7.221  1.5704  0.3476  1.2494
   10MOL   H274 4072   0.603   4.455   7.351  1.5965  0.9333  0.2938
   10MOL   C275 4073   0.234   4.735   7.522 -0.7931  0.3333 -0.5774
   10MOL   C276 4074   0.308   4.725   7.663  0.0742  0.5265  0.2685
   10MOL   C277 4075   0.392   4.850   7.713 -0.3627 -0.2097  0.5002
   10MOL   C278 4076   0.509   4.811   0.036 -0.0194  0.5379  0.3554
   10MOL   C279 4077   0.591   4.931   0.060 -0.0407  0.1257 -0.2529
   10MOL   C280 4078   0.483   4.761   0.185 -0.6449 -0.0915  1.1059
   10MOL   C281 4079   0.599   4.701   7.732  0.0094  0.5701  0.0651
   10MOL   H282 4080   0.166   4.819   7.531 -0.0056  0.9020  0.1684
   10MOL   H283 4081   0.187   4.637   7.512  0.0614 -0.0554 -0.8536
   10MOL   H284 4082   0.375   4.640   7.655  0.4066  0.9443 -1.6503
   10MOL   H285 4083   0.318   4.919   7.753 -1.9702 -0.1424 -2.4415
   10MOL   H286 4084   0.439   4.893   7.625  0.2248 -0.5621  0.6370
   10MOL   H287 4085   0.524   5.007   0.100  0.3945  0.7677 -0.7471
   10MOL   H288 4086   0.682   4.919   0.119 -0.4142 -0.7692  0.1503
   10MOL   H289 4087   0.636   4.968   7.734  1.3419 -1.4324 -0.2321
   10MOL   H290 4088   0.580   4.736   0.229 -0.6949 -1.8458  0.2690
   10MOL   H291 4089   0.417   4.678   0.207 -0.8355 -0.4288 -0.6728
   10MOL   H292 4090   0.457   4.847   0.247 -1.3644  0.5266 -0.0331
   10MOL   H293 4091   0.600   4.705   7.623 -0.3375 -0.9633 -0.0069
   10MOL   H294 4092   0.567   4.605   0.004  1.1246 -0.2585 -1.0477
   10MOL   H295 4093   0.702   4.710   0.000  0.9461  0.2767 -2.5383
   10MOL   C296 4094   0.196   4.687   0.008 -0.1537 -0.8060  0.1739
   10MOL   C297 4095   0.126   4.548   0.001 -0.0850 -0.2801 -0.4426
   10MOL   C298 4096   7.756   4.540   0.069 -0.5254 -0.2817 -0.6716
   10MOL   C299 4097   7.630   4.583   7.760 -0.2959  0.2005 -0.0101
   10MOL   C300 4098   7.626   4.517   7.623  0.0447  0.3055 -0.0509
   10MOL   C301 4099   7.505   4.547   0.080  0.2571 -0.1273  0.1123
   10MOL   C302 4100   7.626   4.738   7.738 -0.8579 -0.4027 -0.0597
   10MOL   H303 4101   0.116   4.760   7.765  0.5934 -0.0901 -0.7478
   10MOL   H304 4102   0.236   4.692   0.110 -0.2641 -2.2868  0.3113
   10MOL   H305 4103   0.106   4.524   7.662 -0.4195  0.4705 -0.5541
   10MOL   H306 4104   7.765   4.600   0.160  1.4670  0.0655 -1.0672
   10MOL   H307 4105   7.732   4.438   0.098 -0.2159  0.3847  2.1313
   10MOL   H308 4106   7.528   4.530   7.578 -0.6023 -2.4757  0.4488
   10MOL   H309 4107   7.690   4.564   7.549 -0.8855  1.8689  0.1335
   10MOL   H310 4108   7.654   4.412   7.614 -2.1151 -0.0835 -2.9305
   10MOL   H311 4109   7.416   4.585   0.031 -0.8695 -3.5591 -0.6346
   10MOL   H312 4110   7.475   4.442   0.088 -0.2092  0.0970  1.5145
   10MOL   H313 4111   7.499   4.600   0.176 -0.9129  1.0169 -0.5870
   10MOL   H314 4112   7.529   4.784   7.719 -1.9121 -0.7712  4.0283
   10MOL   H315 4113   7.664   4.789   0.061 -1.9914  0.3036  0.0195
   10MOL   H316 4114   7.684   4.767   7.650 -1.8970 -1.6525 -1.1743
   10MOL   C317 4115   0.216   4.441   0.059  0.1303  0.1487  0.0473
   10MOL   C318 4116   0.200   4.303   7.752  0.1446 -0.9534  0.1069
   10MOL   C319 4117   0.287   4.307   7.615  0.6519  0.0360  0.2236
   10MOL   C320 4118   0.240   4.215   7.502 -0.2872 -0.3797 -0.2075
   10MOL   C321 4119   0.085   4.221   7.470  0.0466 -0.1580 -0.9829
   10MOL   C322 4120   0.277   4.065   7.537 -0.3034 -0.6045 -0.2409
   10MOL   C323 4121   0.320   4.249   7.379  0.1525 -0.4752 -0.2771
   10MOL   H324 4122   0.322   4.468   0.061  0.1705 -0.0366  0.5389
   10MOL   H325 4123   0.188   4.423   0.163 -1.7916  0.9176 -0.3274
   10MOL   H326 4124   0.093   4.289   7.738 -0.4052  1.2652  1.6676
   10MOL   H327 4125   0.393   4.298   7.636  0.8316 -1.3797 -1.2477
   10MOL   H328 4126   0.281   4.406   7.569  0.5001  0.5487  1.3201
   10MOL   H329 4127   0.014   4.176   7.540 -0.4607  1.4386 -0.4413
   10MOL   H330 4128   0.061   4.174   7.374  0.2656  0.1150 -1.1729
   10MOL   H331 4129   0.055   4.325   7.454  0.3226 -0.0271 -0.6691
   10MOL   H332 4130   0.202   4.002   7.585 -2.6028  2.8288  0.9153
   10MOL   H333 4131   0.292   4.005   7.448 -2.3760 -2.0046  0.3252
   10MOL   H334 4132   0.367   4.064   7.599 -1.9291 -0.3161  2.2242
   10MOL   H335 4133   0.296   4.197   7.286 -0.4902 -1.4577  0.4355
   10MOL   H336 4134   0.428   4.237   7.387 -0.0013 -1.8152 -0.1828
   10MOL   H337 4135   0.290   4.351   7.353  1.3658  0.0512  0.3480
   10MOL   C338 4136   0.252   4.182   0.078 -0.2138  0.9232 -0.2154
   10MOL   C339 4137   0.192   4.150   0.216  0.3568 -0.5278 -0.4017
   10MOL   C340 4138   0.269   4.034   0.280  0.5100 -0.1909  0.2816
   10MOL   C341 4139   0.387   4.064   0.380  0.3740  0.3804  0.5148
   10MOL   C342 4140   0.500   4.153   0.313 -0.3119 -0.4821  0.2909
   10MOL   C343 4141   0.336   4.132   0.502 -0.6320  0.2446 -0.7347
   10MOL   C344 4142   0.443   3.919   0.417  0.2647 -0.3289  0.4776
   10MOL   H345 4143   0.359   4.174   0.093 -0.4726 -3.2589 -0.0598
   10MOL   H346 4144   0.236   4.087   0.027 -0.5472  0.1510  1.3084
   10MOL   H347 4145   0.206   4.237   0.280 -0.4503  1.0360 -2.2830
   10MOL   H348 4146   0.308   3.978   0.195  1.4193 -2.2537  2.0125
   10MOL   H349 4147   0.192   3.969   0.323 -0.2013 -0.2178 -1.0184
   10MOL   H350 4148   0.537   4.102   0.224 -1.2729 -1.3187  0.3601
   10MOL   H351 4149   0.454   4.248   0.288  3.6666  0.5269 -3.7003
   10MOL   H352 4150   0.581   4.164   0.386  0.3581  0.8574 -0.6377
   10MOL   H353 4151   0.414   4.147   0.576 -0.8635  3.9761 -1.1309
   10MOL   H354 4152   0.312   4.237   0.489  1.3564  0.6879 -0.9842
   10MOL   H355 4153   0.253   4.071   0.538 -1.0920 -0.2408 -2.5550
   10MOL   H356 4154   0.536   3.940   0.470  0.6563 -2.9439  0.8754
   10MOL   H357 4155   0.382   3.864   0.488 -0.2204 -1.0783 -0.5138
   10MOL   H358 4156   0.463   3.864   0.325 -0.9026 -0.3841  0.2532
   10MOL   C359 4157   0.037   4.131   0.209  0.4468 -0.7185  0.2213
   10MOL   C360 4158   7.710   4.102   0.336 -1.0617 -0.3737 -0.2741
   10MOL   C361 4159   7.566   4.070   0.291 -0.3166 -0.7577 -1.0680
   10MOL   C362 4160   7.518   3.926   0.250 -0.9820 -0.3753  0.7517
   10MOL   C363 4161   7.484   3.836   0.365 -0.6021  0.2250  0.0669
   10MOL   C364 4162   7.607   3.853   0.150 -0.3880 -0.4552  0.2145
   10MOL   C365 4163   7.382   3.949   0.173 -0.3069  0.4288 -0.0683
   10MOL   H366 4164   0.010   4.061   0.129 -1.0257  0.1625 -0.0795
   10MOL   H367 4165   7.765   4.224   0.166  2.1818  0.4209  1.1214
   10MOL   H368 4166   7.745   4.009   0.379  0.8393  0.3622 -0.1637
   10MOL   H369 4167   7.506   4.091   0.380 -1.0196 -4.7159 -0.4999
   10MOL   H370 4168   7.533   4.145   0.219  0.3724 -0.1608 -0.7631
   10MOL   H371 4169   7.416   3.880   0.438 -1.3281 -0.4156 -0.2177
   10MOL   H372 4170   7.447   3.739   0.332  1.0682 -0.3403 -0.1732
   10MOL   H373 4171   7.572   3.820   0.427 -0.2291 -0.2528 -0.5878
   10MOL   H374 4172   7.572   3.757   0.112  1.2571 -0.4263 -1.4543
   10MOL   H375 4173   7.702   3.821   0.194 -1.1715 -0.2241  2.1460
   10MOL   H376 4174   7.616   3.910   0.058 -0.1953 -1.3565 -0.3363
   10MOL   H377 4175   7.381   4.018   0.089  0.0674  0.8558  0.2804
   10MOL   H378 4176   7.299   3.977   0.237  0.3602  2.6691 -0.1394
   10MOL   H379 4177   7.365   3.852   0.125  1.2747 -0.4818  1.1105
   10MOL   C380 4178   7.740   4.197   0.456 -0.3210  0.0012  0.1414
   10MOL   C381 4179   7.718   4.350   0.447  0.1857 -0.0345 -0.4624
   10MOL   C382 4180   0.012   4.417   0.576  0.0117  0.1093 -0.1101
   10MOL   C383 4181   0.084   4.555   0.555  0.1704  0.2468 -0.8070
   10MOL   C384 4182   0.205   4.533   0.467  0.3484 -0.0177  0.1545
   10MOL   C385 4183   0.120   4.619   0.688 -0.8100  0.2762  0.6488
   10MOL   C386 4184   7.761   4.660   0.486  0.1895  0.3696 -0.1032
   10MOL   H387 4185   0.072   4.173   0.498 -0.1000 -1.7999 -1.3316
   10MOL   H388 4186   7.680   4.156   0.538 -0.3509  0.8613  0.5582
   10MOL   H389 4187   0.003   4.389   0.359  0.9226 -2.0536 -0.9759
   10MOL   H390 4188   7.706   4.428   0.657 -0.1746 -0.3582 -0.2130
   10MOL   H391 4189   0.088   4.355   0.622  0.2552  1.2315  1.0110
   10MOL   H392 4190   0.271   4.459   0.512 -0.7475 -0.2790  1.3730
   10MOL   H393 4191   0.177   4.505   0.365 -1.8372  1.2611  0.3646
   10MOL   H394 4192   0.265   4.623   0.452  1.2964 -0.2323  2.4743
   10MOL   H395 4193   0.031   4.652   0.741 -0.1331  2.3785  0.5070
   10MOL   H396 4194   0.178   4.710   0.675  2.0528 -1.9303 -3.2447
   10MOL   H397 4195   0.167   4.551   0.759 -0.4605  0.0510  0.2104
   10MOL   H398 4196   7.671   4.660   0.548  0.7265 -1.7646  0.7133
   10MOL   H399 4197   7.728   4.632   0.386 -0.1329  0.7056 -0.0941
   10MOL   H400 4198   0.035   4.761   0.472  2.5903 -0.3929  1.1573
   10MOL   C401 4199   7.573   4.403   0.425  0.3617 -0.1314  0.2163
   10MOL   C402 4200   7.477   4.346   0.532 -0.1001  0.2363  0.0409
   10MOL   C403 4201   7.325   4.354   0.490  0.5888  0.4423 -0.2117
   10MOL   C404 4202   7.214   4.269   0.563 -0.0937 -0.1588 -0.5297
   10MOL   C405 4203   7.214   4.303   0.721  0.0107 -0.0092  0.0208
   10MOL   C406 4204   7.254   4.120   0.536 -0.0697  0.6350  0.5889
   10MOL   C407 4205   7.071   4.282   0.515  0.4127  0.0622  0.0676
   10MOL   H408 4206   7.568   4.509   0.403 -1.6707 -0.3284 -0.4017
   10MOL   H409 4207   7.541   4.362   0.329  1.1025 -1.0323  0.3440
   10MOL   H410 4208   7.491   4.243   0.565 -0.6204 -0.0307 -0.5606
   10MOL   H411 4209   7.319   4.346   0.382 -0.9386  3.3598 -0.3739
   10MOL   H412 4210   7.300   4.459   0.504 -2.9866 -0.0809 -2.2107
   10MOL   H413 4211   7.313   4.328   0.759 -0.5935  0.1603  1.5186
   10MOL   H414 4212   7.159   4.224   0.773  1.7154  0.7628  3.1360
   10MOL   H415 4213   7.155   4.393   0.739  0.8559  0.5286  0.1427
   10MOL   H416 4214   7.261   4.100   0.429 -0.1944 -2.4651  1.1053
   10MOL   H417 4215   7.182   4.055   0.586  0.3231 -0.4095 -0.1983
   10MOL   H418 4216   7.350   4.098   0.582  0.4979  1.1852 -0.3348
   10MOL   H419 4217   7.052   4.259   0.410  1.4374  1.6752 -0.4906
   10MOL   H420 4218   7.007   4.216   0.573 -0.7118  1.4383  0.4056
   10MOL   H421 4219   7.039   4.384   0.539 -1.5949 -0.6580  0.5306
   10MOL   H422 4220   7.487   4.407   0.622 -1.4156 -0.1948  0.4889
   11MOL     C1 4221   2.805   3.308   2.612 -0.4129  1.0284  0.1985
   11MOL     C2 4222   2.735   3.260   2.739 -0.1178  0.1445  0.5042
   11MOL     C3 4223   2.816   3.148   2.815 -0.3635  0.3595 -0.7800
   11MOL     C4 4224   2.907   3.198   2.931 -0.0351  0.1094 -0.1013
   11MOL     C5 4225   3.029   3.276   2.866  0.3722  0.5569 -0.3072
   11MOL     C6 4226   2.853   3.288   3.051 -0.3848  0.0305 -0.1498
   11MOL     C7 4227   2.955   3.073   3.006 -0.0472 -0.4194  0.1030
   11MOL     H8 4228   2.758   3.397   2.569  1.3015  1.0317 -1.7981
   11MOL     H9 4229   2.912   3.320   2.627 -0.6384 -1.1173  4.1811
   11MOL    H10 4230   2.729   3.352   2.796 -0.7206 -1.0481  2.4065
   11MOL    H11 4231   2.868   3.073   2.755  0.4546 -1.5264  2.1721
   11MOL    H12 4232   2.744   3.080   2.861  1.1187 -0.6949  0.0304
   11MOL    H13 4233   3.063   3.220   2.779 -1.6469 -1.6747  0.3058
   11MOL    H14 4234   3.107   3.301   2.938  0.8632  0.6652 -0.8726
   11MOL    H15 4235   3.004   3.373   2.822 -1.5574  0.2354  0.0150
   11MOL    H16 4236   2.923   3.294   3.135 -0.5550  1.3407 -0.0944
   11MOL    H17 4237   2.839   3.386   3.006  1.6483  0.3454 -0.1681
   11MOL    H18 4238   2.756   3.256   3.089 -0.0538 -1.4025 -0.4775
   11MOL    H19 4239   3.027   3.013   2.950  1.1247  0.4401  0.6691
   11MOL    H20 4240   2.866   3.027   3.049  1.3964 -0.3704  3.3116
   11MOL    H21 4241   3.010   3.107   3.094 -0.0374 -2.7472  1.0423
   11MOL    H22 4242   2.805   3.229   2.536 -0.6720  1.7094 -0.5184
   11MOL    C23 4243   2.594   3.215   2.695 -0.5518  0.2259 -0.5900
   11MOL    C24 4244   2.503   3.164   2.812 -0.2880  0.0536  0.4719
   11MOL    C25 4245   2.365   3.114   2.754 -0.6788  0.3319  0.5193
   11MOL    C26 4246   2.349   2.983   2.670  0.1865 -0.2146 -0.1344
   11MOL    C27 4247   2.449   2.870   2.718 -0.0543  0.6092 -0.4518
   11MOL    C28 4248   2.207   2.921   2.694  0.5824 -0.4416  0.4235
   11MOL    C29 4249   2.370   3.014   2.521  0.1178  0.0060  0.1893
   11MOL    H30 4250   2.546   3.310   2.671  0.5285  0.8026 -0.4968
   11MOL    H31 4251   2.597   3.135   2.620 -1.5196 -0.6000  0.2401
   11MOL    H32 4252   2.540   3.076   2.866  0.8222  0.8636  1.0400
   11MOL    H33 4253   2.323   3.201   2.702  0.7109 -0.1974 -1.5355
   11MOL    H34 4254   2.320   3.088   2.850 -1.8821  1.6968  0.3528
   11MOL    H35 4255   2.415   2.771   2.688  2.0827 -0.1828 -0.2863
   11MOL    H36 4256   2.546   2.895   2.675  0.4301 -2.4462 -1.1992
   11MOL    H37 4257   2.455   2.866   2.827 -3.2917 -1.0536 -0.2578
   11MOL    H38 4258   2.209   2.823   2.648  0.7432  0.7101 -2.1318
   11MOL    H39 4259   2.196   2.897   2.800 -0.2336  0.6358  0.5977
   11MOL    H40 4260   2.121   2.978   2.656  0.8627 -1.0655 -1.1970
   11MOL    H41 4261   2.325   3.108   2.490  1.0443 -0.0426 -1.3823
   11MOL    H42 4262   2.336   2.928   2.463  0.3815 -1.1871  1.7916
   11MOL    H43 4263   2.478   3.018   2.505  0.0830 -3.1499 -1.2129
   11MOL    C44 4264   2.497   3.278   2.911 -0.8500  0.3572 -0.0050
   11MOL    C45 4265   2.418   3.256   3.043  0.0930 -0.3992  0.6200
   11MOL    C46 4266   2.364   3.393   3.089  0.5840  0.2190 -0.7481
   11MOL    C47 4267   2.213   3.423   3.075  0.6623  0.5077 -0.0617
   11MOL    C48 4268   2.125   3.326   3.170  1.4274 -0.3548  0.3383
   11MOL    C49 4269   2.164   3.401   2.935  0.6408  0.0433 -0.0461
   11MOL    C50 4270   2.185   3.563   3.128  0.8563 -0.1957 -0.2488
   11MOL    H51 4271   2.589   3.333   2.929 -0.3107 -0.6582  0.3769
   11MOL    H52 4272   2.439   3.348   2.850  0.2179  0.5879 -0.7642
   11MOL    H53 4273   2.330   3.196   3.022 -0.2200  0.7496 -1.5200
   11MOL    H54 4274   2.416   3.466   3.027 -0.8783  0.3191 -1.9058
   11MOL    H55 4275   2.410   3.414   3.185  2.1148 -2.3192 -0.8988
   11MOL    H56 4276   2.165   3.309   3.269 -1.8223 -0.4660  1.6986
   11MOL    H57 4277   2.117   3.226   3.127  0.8874  0.0691 -0.5736
   11MOL    H58 4278   2.030   3.376   3.188 -0.6680 -2.5075 -3.8593
   11MOL    H59 4279   2.060   3.427   2.913 -0.0954 -0.3336  2.8989
   11MOL    H60 4280   2.229   3.458   2.867  1.7082 -1.9633 -0.7642
   11MOL    H61 4281   2.156   3.297   2.902  0.2089 -0.0478  0.3524
   11MOL    H62 4282   2.082   3.595   3.114  0.2163 -1.4179  1.4727
   11MOL    H63 4283   2.218   3.569   3.232 -3.1411  0.3516  1.0694
   11MOL    H64 4284   2.234   3.643   3.072 -0.6365 -0.7740 -2.4263
   11MOL    C65 4285   2.511   3.180   3.139  0.4391  0.3262  0.3577
   11MOL    C66 4286   2.437   3.067   3.215  0.4150 -0.1510 -0.0880
   11MOL    C67 4287   2.506   3.024   3.347  0.4120 -0.2619  0.1099
   11MOL    C68 4288   2.541   3.131   3.462 -0.5126  0.4423 -0.1718
   11MOL    C69 4289   2.676   3.207   3.442 -0.8733  0.1608  0.3131
   11MOL    C70 4290   2.416   3.227   3.475 -0.2644  0.1706  0.7231
   11MOL    C71 4291   2.552   3.059   3.596  0.8020  0.3745 -0.5417
   11MOL    H72 4292   2.596   3.128   3.094  0.3388 -1.0019  1.6836
   11MOL    H73 4293   2.556   3.246   3.213  0.1411 -0.4382  1.2265
   11MOL    H74 4294   2.339   3.104   3.248  0.4074 -0.2419 -0.0061
   11MOL    H75 4295   2.603   2.980   3.323  0.3799 -0.8609  1.0283
   11MOL    H76 4296   2.451   2.939   3.386  4.1157 -2.2899  1.1603
   11MOL    H77 4297   2.677   3.294   3.376  0.0260 -0.5603 -0.6510
   11MOL    H78 4298   2.723   3.238   3.536 -1.3165 -1.5223  1.1175
   11MOL    H79 4299   2.752   3.143   3.397 -1.1643 -0.6332  0.9397
   11MOL    H80 4300   2.398   3.289   3.388  1.2742 -1.2786 -0.6618
   11MOL    H81 4301   2.437   3.298   3.555 -1.3630  1.2989  0.0281
   11MOL    H82 4302   2.317   3.184   3.495 -0.9546  1.2288 -0.3284
   11MOL    H83 4303   2.646   3.004   3.603 -0.4848 -1.8433 -0.1973
   11MOL    H84 4304   2.467   2.992   3.611  0.1151  1.0822 -1.2006
   11MOL    H85 4305   2.552   3.135   3.675  0.8180  0.1233 -0.3026
   11MOL    C86 4306   2.420   2.944   3.116 -0.2792 -0.8286 -0.1723
   11MOL    C87 4307   2.311   2.849   3.150 -0.2632  0.3074  0.2770
   11MOL    C88 4308   2.336   2.699   3.101  0.0752  0.3870  0.6339
   11MOL    C89 4309   2.423   2.605   3.184  0.1415  0.3156 -0.5121
   11MOL    C90 4310   2.358   2.580   3.317  0.2348  0.4268  0.1665
   11MOL    C91 4311   2.568   2.657   3.201 -0.3636  0.4531  0.0750
   11MOL    C92 4312   2.438   2.468   3.110  0.7048 -0.3775  0.5488
   11MOL    H93 4313   2.517   2.894   3.105  0.3672 -0.0982  1.9333
   11MOL    H94 4314   2.398   2.987   3.018  1.6016 -0.4791 -0.4657
   11MOL    H95 4315   2.308   2.842   3.259  3.0602 -0.6126  0.3349
   11MOL    H96 4316   2.366   2.696   2.997 -1.0264 -0.4014  0.3304
   11MOL    H97 4317   2.242   2.644   3.089  0.5193 -0.0101 -1.1053
   11MOL    H98 4318   2.401   2.498   3.374 -0.9565 -0.0196  0.4348
   11MOL    H99 4319   2.258   2.542   3.295 -0.3831  1.8617  0.4729
   11MOL   H100 4320   2.364   2.668   3.380 -1.5339  1.5079 -1.1544
   11MOL   H101 4321   2.579   2.752   3.255  0.2640  0.8412 -0.7155
   11MOL   H102 4322   2.635   2.581   3.242  0.4982  1.0579 -0.1879
   11MOL   H103 4323   2.612   2.677   3.103  1.3948 -1.6561  0.3889
   11MOL   H104 4324   2.339   2.424   3.103  0.2426  0.7042  0.1187
   11MOL   H105 4325   2.479   2.478   3.010 -1.9253 -2.4440 -0.7835
   11MOL   H106 4326   2.489   2.398   3.177 -0.9063 -0.6205  1.5372
   11MOL   C107 4327   2.170   2.901   3.110 -0.0365  0.1305  0.4470
   11MOL   C108 4328   2.055   2.886   3.218  0.2310  0.0807  0.6104
   11MOL   C109 4329   2.078   2.976   3.341  0.3903  0.1877  0.2390
   11MOL   C110 4330   2.041   2.932   3.481  0.2531 -0.6940  0.1554
   11MOL   C111 4331   2.060   3.056   3.566 -0.4696  0.0422  0.3305
   11MOL   C112 4332   2.127   2.820   3.534 -0.0287 -0.1277  0.6470
   11MOL   C113 4333   1.894   2.884   3.508 -0.7890 -0.0406 -0.6337
   11MOL   H114 4334   2.148   2.863   3.011 -2.5602 -1.0262  1.4353
   11MOL   H115 4335   2.178   3.009   3.095  0.4570  0.2667  1.6557
   11MOL   H116 4336   2.042   2.784   3.256 -2.6015  0.8180  1.7284
   11MOL   H117 4337   2.186   2.988   3.348  0.1366  2.8061  0.0189
   11MOL   H118 4338   2.032   3.072   3.317 -0.6569 -0.0792  1.1459
   11MOL   H119 4339   2.164   3.089   3.573 -0.6914  1.1379 -1.3311
   11MOL   H120 4340   2.011   3.143   3.524 -1.1776  0.7743  2.5939
   11MOL   H121 4341   2.022   3.056   3.668  1.3743 -2.8714  1.0897
   11MOL   H122 4342   2.229   2.858   3.528 -0.2138  0.1630 -0.7853
   11MOL   H123 4343   2.121   2.735   3.466 -2.7331  0.5145  0.0434
   11MOL   H124 4344   2.102   2.797   3.637 -0.8205 -1.1993  0.2193
   11MOL   H125 4345   1.816   2.949   3.468 -1.2447  0.7180  1.3936
   11MOL   H126 4346   1.874   2.870   3.615 -0.9903  0.6668 -0.5714
   11MOL   H127 4347   1.882   2.789   3.458  0.9499  0.5651 -2.2248
   11MOL   C128 4348   1.920   2.930   3.148 -0.1829 -0.6346 -0.3135
   11MOL   C129 4349   1.855   2.842   3.045  0.2084 -0.1647  0.7265
   11MOL   C130 4350   1.777   2.723   3.112  0.9808 -0.4356  0.1951
   11MOL   C131 4351   1.789   2.584   3.047  0.4804 -0.0130 -0.4370
   11MOL   C132 4352   1.768   2.587   2.893 -0.0389 -0.4798 -0.3697
   11MOL   C133 4353   1.685   2.489   3.110 -0.1928 -0.2881  0.6028
   11MOL   C134 4354   1.925   2.531   3.070  0.5920  0.1224  0.5333
   11MOL   H135 4355   1.937   3.027   3.100 -0.7029 -1.3540 -2.0152
   11MOL   H136 4356   1.850   2.959   3.226 -0.5611 -1.5190 -0.3136
   11MOL   H137 4357   1.933   2.796   2.985 -0.8729  1.2487 -1.8630
   11MOL   H138 4358   1.798   2.722   3.219  1.5895  0.7481  0.0930
   11MOL   H139 4359   1.669   2.734   3.108  1.1760  0.9691 -2.3182
   11MOL   H140 4360   1.670   2.629   2.872  0.5672  0.3342 -1.6121
   11MOL   H141 4361   1.766   2.490   2.843  0.7224 -0.7648  0.1409
   11MOL   H142 4362   1.843   2.647   2.841  0.8618 -1.4707 -0.2478
   11MOL   H143 4363   1.669   2.515   3.214 -1.8088  1.7919 -0.1294
   11MOL   H144 4364   1.725   2.387   3.110  0.9950  0.1524 -0.1733
   11MOL   H145 4365   1.591   2.502   3.056  0.2094  2.0434  0.3919
   11MOL   H146 4366   1.930   2.422   3.060  0.6494  0.1624  0.1198
   11MOL   H147 4367   1.996   2.568   2.996 -1.7229 -0.0840 -1.8641
   11MOL   H148 4368   1.954   2.549   3.174  0.4875 -0.6569  0.6988
   11MOL   C149 4369   1.756   2.918   2.952  0.4087 -0.6230  0.4438
   11MOL   C150 4370   1.673   3.054   2.989  0.1425  0.2401 -0.5394
   11MOL   C151 4371   1.616   3.107   2.867 -0.8170  0.3406  0.1757
   11MOL   C152 4372   1.701   3.218   2.791  0.3059  0.5230 -0.0893
   11MOL   C153 4373   1.849   3.182   2.773 -0.7440  0.3418 -0.0136
   11MOL   C154 4374   1.691   3.343   2.889  0.2199  1.2338 -0.0074
   11MOL   C155 4375   1.637   3.263   2.657 -0.2657 -0.3676  0.1616
   11MOL   H156 4376   1.696   2.844   2.900  1.6191  0.1245 -2.1051
   11MOL   H157 4377   1.814   2.948   2.864  0.7850  0.9088  1.1996
   11MOL   H158 4378   1.740   3.123   3.040  0.0089 -0.0531  0.0386
   11MOL   H159 4379   1.519   3.156   2.878 -1.2992 -0.4847 -0.2971
   11MOL   H160 4380   1.599   3.019   2.804  2.5448 -0.9305  0.9372
   11MOL   H161 4381   1.913   3.265   2.744  0.7675 -0.6083  0.5907
   11MOL   H162 4382   1.888   3.139   2.865  0.5673 -2.0924 -1.6586
   11MOL   H163 4383   1.869   3.097   2.708 -0.2776 -1.7224  2.7145
   11MOL   H164 4384   1.734   3.321   2.987 -1.6811  0.0406  0.5709
   11MOL   H165 4385   1.590   3.380   2.902  0.7723  1.9780  2.5518
   11MOL   H166 4386   1.745   3.425   2.842  2.6998 -0.1086  0.3927
   11MOL   H167 4387   1.674   3.359   2.620 -0.5424 -0.3023  0.0506
   11MOL   H168 4388   1.650   3.203   2.566 -1.1876 -0.3598  0.0130
   11MOL   H169 4389   1.530   3.279   2.672 -0.0202 -1.2253  3.2233
   11MOL   C170 4390   1.568   3.015   3.093 -0.5422  0.2297 -0.5613
   11MOL   C171 4391   1.505   3.131   3.178  0.6303  0.3150 -0.0198
   11MOL   C172 4392   1.577   3.146   3.313 -0.2084 -0.3459 -0.5170
   11MOL   C173 4393   1.609   3.285   3.373 -0.9023 -0.2098 -0.1870
   11MOL   C174 4394   1.478   3.364   3.415 -0.3445  0.0789  0.3541
   11MOL   C175 4395   1.693   3.371   3.272 -0.0412  0.7865 -0.1977
   11MOL   C176 4396   1.701   3.272   3.496  0.6540  0.4031 -0.0244
   11MOL   H177 4397   1.616   2.935   3.148  0.2230  0.2539 -1.1763
   11MOL   H178 4398   1.493   2.953   3.044  0.7434 -2.8605  1.1973
   11MOL   H179 4399   1.509   3.226   3.124 -1.7074  1.3041  1.4336
   11MOL   H180 4400   1.514   3.091   3.382 -2.0984  3.2401  0.7125
   11MOL   H181 4401   1.667   3.085   3.305 -0.8573 -1.2080 -1.4543
   11MOL   H182 4402   1.426   3.304   3.490 -0.2791  1.1906  1.3087
   11MOL   H183 4403   1.495   3.466   3.451 -1.2937  0.4148 -0.1276
   11MOL   H184 4404   1.399   3.370   3.340  0.3152 -0.6665 -0.4099
   11MOL   H185 4405   1.790   3.324   3.257  0.4467  1.7877 -0.1492
   11MOL   H186 4406   1.645   3.386   3.175 -2.1934  1.7530  0.9717
   11MOL   H187 4407   1.707   3.473   3.305  1.3116  0.3736  0.5259
   11MOL   H188 4408   1.784   3.208   3.469  0.0406  0.1434 -1.3034
   11MOL   H189 4409   1.741   3.368   3.531  0.8943  0.4597 -0.4522
   11MOL   H190 4410   1.640   3.228   3.575  1.6606 -1.0616 -0.0650
   11MOL   C191 4411   1.358   3.104   3.199 -0.1146 -0.0897 -0.1660
   11MOL   C192 4412   1.264   3.155   3.096 -0.5292  0.2821  0.0106
   11MOL   C193 4413   1.210   3.298   3.125  0.1785 -0.2719  0.3170
   11MOL   C194 4414   1.196   3.402   3.006  0.4517 -0.4451 -0.3208
   11MOL   C195 4415   1.140   3.537   3.068  0.2443  0.5325 -0.4034
   11MOL   C196 4416   1.104   3.362   2.890 -0.4346 -0.4654 -0.1150
   11MOL   C197 4417   1.334   3.448   2.952 -0.9318  0.1427 -0.0611
   11MOL   H198 4418   1.355   2.995   3.203 -1.2642 -0.0371  0.5021
   11MOL   H199 4419   1.325   3.145   3.295 -1.0907  0.2476 -0.6453
   11MOL   H200 4420   1.327   3.152   3.006  1.2474  2.3688  1.1430
   11MOL   H201 4421   1.273   3.353   3.195 -1.4794  1.1509  0.7346
   11MOL   H202 4422   1.113   3.303   3.176  0.0071  1.1598 -0.1283
   11MOL   H203 4423   1.046   3.513   3.117  1.6395 -1.6253  1.3191
   11MOL   H204 4424   1.213   3.570   3.142  0.1690 -2.3162  1.0246
   11MOL   H205 4425   1.127   3.613   2.991 -1.4810  0.5762 -0.0734
   11MOL   H206 4426   1.006   3.339   2.931 -0.5917  0.2767 -0.0613
   11MOL   H207 4427   1.088   3.449   2.826 -2.6725 -2.2354 -2.0538
   11MOL   H208 4428   1.138   3.270   2.842  0.7955 -0.7608  1.2825
   11MOL   H209 4429   1.372   3.365   2.892  0.3008 -0.6411  1.7547
   11MOL   H210 4430   1.329   3.538   2.890  1.6551  0.4624  0.1497
   11MOL   H211 4431   1.408   3.455   3.031 -1.1737 -2.5287  0.4473
   11MOL   C212 4432   1.144   3.064   3.076 -0.3504  0.7944 -0.2974
   11MOL   C213 4433   1.162   2.933   2.997  0.3877  0.6732 -0.4416
   11MOL   C214 4434   1.150   2.942   2.842  0.0220  0.4663  0.1701
   11MOL   C215 4435   1.214   2.827   2.755 -0.7022 -0.2686 -0.0742
   11MOL   C216 4436   1.201   2.875   2.609  0.0667  0.5693 -0.4191
   11MOL   C217 4437   1.369   2.801   2.792  0.3629  0.4318  0.2406
   11MOL   C218 4438   1.159   2.682   2.762 -0.2704 -0.1653  0.4955
   11MOL   H219 4439   1.102   3.051   3.176  0.2603 -3.1176 -0.4697
   11MOL   H220 4440   1.069   3.116   3.015  1.8013  2.4725 -1.5911
   11MOL   H221 4441   1.256   2.884   3.025  0.8255  0.7190 -1.7671
   11MOL   H222 4442   1.211   3.029   2.817 -0.7554  0.9401 -0.1125
   11MOL   H223 4443   1.049   2.972   2.813  0.1301 -0.4535 -1.2176
   11MOL   H224 4444   1.265   2.963   2.608 -0.3962  0.9157  0.8066
   11MOL   H225 4445   1.097   2.901   2.594 -0.4209 -1.4592 -0.6900
   11MOL   H226 4446   1.230   2.796   2.539  0.0084 -0.7862  1.0391
   11MOL   H227 4447   1.390   2.775   2.896  3.0004  0.6323 -0.2053
   11MOL   H228 4448   1.425   2.730   2.732  0.3151 -1.3880  2.3016
   11MOL   H229 4449   1.410   2.901   2.775 -1.6160  1.0731 -0.9628
   11MOL   H230 4450   1.053   2.679   2.735  0.4788 -0.1439 -2.5438
   11MOL   H231 4451   1.177   2.624   2.853 -3.7455  1.0197  2.0315
   11MOL   H232 4452   1.215   2.612   2.700  0.7558 -1.4130  2.7534
   11MOL   C233 4453   1.049   2.841   3.043 -0.4709 -0.2482  1.1838
   11MOL   C234 4454   1.069   2.767   3.181  0.0828 -1.0360 -0.0391
   11MOL   C235 4455   0.944   2.705   3.247  0.0003 -0.1796  0.1540
   11MOL   C236 4456   0.849   2.787   3.330  0.1450 -0.2298  0.1127
   11MOL   C237 4457   0.789   2.903   3.247  0.3908  0.9902  0.3391
   11MOL   C238 4458   0.733   2.702   3.383 -0.4506 -0.3499  0.2433
   11MOL   C239 4459   0.914   2.844   3.460  0.5047  0.5253 -0.5171
   11MOL   H240 4460   1.025   2.761   2.973 -2.0077 -0.6216  2.1044
   11MOL   H241 4461   0.960   2.904   3.047  0.7185  1.6603 -1.3280
   11MOL   H242 4462   1.117   2.831   3.255 -0.6455 -1.8369  1.1399
   11MOL   H243 4463   0.890   2.667   3.160  1.7210  1.4786 -1.6773
   11MOL   H244 4464   0.962   2.611   3.299  0.3867 -1.0873 -1.5902
   11MOL   H245 4465   0.863   2.982   3.234  0.2930  1.3979  2.0778
   11MOL   H246 4466   0.698   2.928   3.300 -1.7426  0.5693 -2.9912
   11MOL   H247 4467   0.757   2.867   3.149  0.1328  1.7045  0.1529
   11MOL   H248 4468   0.696   2.632   3.308  1.2807  0.0926 -1.0746
   11MOL   H249 4469   0.747   2.640   3.472  1.1139 -1.0508 -0.4599
   11MOL   H250 4470   0.646   2.761   3.410  0.4657  0.7178  0.9248
   11MOL   H251 4471   0.958   2.768   3.524 -0.6986  0.3825  0.1719
   11MOL   H252 4472   0.995   2.908   3.426 -0.3445  2.1593  0.4512
   11MOL   H253 4473   0.835   2.899   3.511  0.2206 -2.2540  2.2188
   11MOL   C254 4474   1.170   2.656   3.161  0.3914 -0.9110  0.4120
   11MOL   C255 4475   1.247   2.597   3.284  0.7611 -0.4255 -0.1324
   11MOL   C256 4476   1.367   2.699   3.327 -0.3420  0.2715 -0.1856
   11MOL   C257 4477   1.416   2.696   3.477 -0.4536 -0.5695  1.0822
   11MOL   C258 4478   1.511   2.576   3.509 -0.2820  0.4590  0.6978
   11MOL   C259 4479   1.294   2.712   3.565  0.4973  0.4213 -0.8469
   11MOL   C260 4480   1.503   2.824   3.498 -0.8427 -0.1861  0.3706
   11MOL   H261 4481   1.251   2.697   3.101 -1.3199  0.5461 -0.9606
   11MOL   H262 4482   1.117   2.586   3.096  0.4120  1.6561 -2.4332
   11MOL   H263 4483   1.181   2.610   3.371  0.9793  1.2072 -0.1866
   11MOL   H264 4484   1.455   2.690   3.264  0.0445  1.6337  0.1434
   11MOL   H265 4485   1.325   2.797   3.304 -0.2392  0.7290  1.5274
   11MOL   H266 4486   1.584   2.568   3.429 -2.0667  1.7349 -1.1220
   11MOL   H267 4487   1.462   2.482   3.534 -0.9083  0.6825  0.3177
   11MOL   H268 4488   1.553   2.602   3.606  0.9264 -1.6898  0.7768
   11MOL   H269 4489   1.321   2.742   3.667  0.0944 -0.2923 -0.5261
   11MOL   H270 4490   1.224   2.630   3.578  0.3884  0.5238 -0.7818
   11MOL   H271 4491   1.228   2.790   3.526  0.0257  0.9585  0.9476
   11MOL   H272 4492   1.578   2.832   3.419 -0.4358  1.1016  0.8702
   11MOL   H273 4493   1.438   2.911   3.487  0.1831  0.5927  0.3704
   11MOL   H274 4494   1.549   2.828   3.597  0.2776  0.9760 -0.1816
   11MOL   C275 4495   1.295   2.454   3.248 -0.2148 -0.2816  0.0106
   11MOL   C276 4496   1.191   2.333   3.254 -0.2296  0.5565  0.2337
   11MOL   C277 4497   1.252   2.213   3.179  0.1426  0.9080  0.0273
   11MOL   C278 4498   1.207   2.189   3.034 -0.9044 -0.5959  0.5076
   11MOL   C279 4499   1.278   2.065   2.974  0.0834  0.3557  0.1173
   11MOL   C280 4500   1.064   2.166   3.019 -0.7772  0.0995 -0.0753
   11MOL   C281 4501   1.245   2.300   2.940 -0.5309 -0.0244 -0.0771
   11MOL   H282 4502   1.354   2.456   3.156 -0.6565  3.8106 -0.2788
   11MOL   H283 4503   1.371   2.411   3.313 -1.0414 -1.2062  0.3837
   11MOL   H284 4504   1.097   2.367   3.210 -0.6629 -0.0645  0.6762
   11MOL   H285 4505   1.227   2.125   3.237  0.0720 -0.4626 -2.0085
   11MOL   H286 4506   1.360   2.217   3.188  0.2735 -0.5502 -0.7337
   11MOL   H287 4507   1.272   1.981   3.043  1.2354 -1.4142 -1.8845
   11MOL   H288 4508   1.246   2.029   2.876 -0.5548 -1.1632  0.8626
   11MOL   H289 4509   1.384   2.085   2.961 -0.2087  1.0881 -1.2381
   11MOL   H290 4510   1.047   2.125   2.920 -0.6513  0.7465 -0.3632
   11MOL   H291 4511   1.011   2.259   3.037  0.7908  1.3138 -1.5734
   11MOL   H292 4512   1.037   2.089   3.092 -0.7660  1.4524  1.3929
   11MOL   H293 4513   1.200   2.303   2.841 -0.6886  0.6924  0.0109
   11MOL   H294 4514   1.352   2.323   2.939 -0.3413 -0.9052 -1.3200
   11MOL   H295 4515   1.204   2.396   2.972 -1.8744 -0.4131 -0.6438
   11MOL   C296 4516   1.177   2.295   3.409 -0.0888  0.4843 -0.6117
   11MOL   C297 4517   1.054   2.214   3.455  0.0234 -0.0160 -0.2211
   11MOL   C298 4518   0.927   2.302   3.451 -0.0236  0.1042  0.4802
   11MOL   C299 4519   0.789   2.235   3.420  0.9418 -0.5761  0.6291
   11MOL   C300 4520   0.743   2.139   3.530  0.3691  0.5625  0.1672
   11MOL   C301 4521   0.688   2.358   3.403  0.5612  0.0953  0.3588
   11MOL   C302 4522   0.781   2.149   3.288  0.4978 -0.7063  0.1574
   11MOL   H303 4523   1.181   2.391   3.460  1.8457 -0.4304  1.0864
   11MOL   H304 4524   1.268   2.248   3.447 -0.2119  1.8648  1.4615
   11MOL   H305 4525   1.037   2.129   3.389  1.2892  1.2301 -2.1988
   11MOL   H306 4526   0.946   2.367   3.365  0.6856 -0.6449  0.0690
   11MOL   H307 4527   0.925   2.382   3.525 -0.6045  0.6405 -0.1059
   11MOL   H308 4528   0.806   2.051   3.514 -1.9243 -1.3676  1.4076
   11MOL   H309 4529   0.759   2.170   3.633  1.0169  2.3829 -0.4574
   11MOL   H310 4530   0.637   2.116   3.516  0.4156  0.4201  0.0449
   11MOL   H311 4531   0.700   2.391   3.300  0.0556 -0.9162 -0.0233
   11MOL   H312 4532   0.586   2.327   3.421  0.6734  0.2477  1.2891
   11MOL   H313 4533   0.712   2.434   3.478  0.0871  1.4471 -0.8405
   11MOL   H314 4534   0.679   2.111   3.277  0.2047  0.3115 -0.8113
   11MOL   H315 4535   0.814   2.192   3.193 -0.7265 -1.9109 -0.8369
   11MOL   H316 4536   0.844   2.062   3.305  0.1242 -0.8626  0.7679
   11MOL   C317 4537   1.075   2.156   3.595 -0.1368  0.7950  0.5374
   11MOL   C318 4538   1.145   2.020   3.608  0.4517 -0.6237  0.3213
   11MOL   C319 4539   1.188   1.991   3.760  0.2852 -0.8952  0.8327
   11MOL   C320 4540   1.279   2.078   3.853  0.0599  0.0112 -0.1382
   11MOL   C321 4541   1.350   1.976   3.953  0.3450  0.3394 -0.1281
   11MOL   C322 4542   1.179   2.171   3.929 -0.6581  0.3974  0.0534
   11MOL   C323 4543   1.385   2.165   3.787  0.5820  0.2832 -0.2053
   11MOL   H324 4544   1.143   2.224   3.646 -0.0841 -0.4785  2.1841
   11MOL   H325 4545   0.981   2.118   3.637 -0.5077  0.3001 -0.7271
   11MOL   H326 4546   1.242   2.045   3.564  0.0990 -1.1430 -0.7609
   11MOL   H327 4547   1.243   1.898   3.744 -1.0462 -1.2766 -1.8201
   11MOL   H328 4548   1.099   1.948   3.807 -1.4812  2.0034  0.2797
   11MOL   H329 4549   1.283   1.915   4.014  0.4623  2.7759  2.5758
   11MOL   H330 4550   1.411   2.035   4.022  3.1468 -0.8305 -1.5231
   11MOL   H331 4551   1.424   1.917   3.899 -0.3139  1.0271 -1.7954
   11MOL   H332 4552   1.082   2.128   3.952 -1.8131  2.9891  0.1350
   11MOL   H333 4553   1.218   2.220   4.019  0.9911  1.7574 -1.3656
   11MOL   H334 4554   1.173   2.255   3.860 -2.2831  0.7736  0.6219
   11MOL   H335 4555   1.465   2.100   3.750  0.0860 -1.1054  1.1192
   11MOL   H336 4556   1.431   2.235   3.858 -0.6218  2.3067 -1.3679
   11MOL   H337 4557   1.353   2.236   3.711  1.8253  1.2462  0.1391
   11MOL   C338 4558   1.067   1.893   3.543 -0.2972  0.2554  0.3253
   11MOL   C339 4559   1.160   1.781   3.485  0.0466 -0.9458  0.3661
   11MOL   C340 4560   1.255   1.834   3.375 -0.3281  0.4797  0.6264
   11MOL   C341 4561   1.410   1.826   3.396  0.3136  0.0768  0.2968
   11MOL   C342 4562   1.445   1.680   3.424  0.4665  0.1742 -0.4698
   11MOL   C343 4563   1.485   1.859   3.268 -0.0197 -0.1609  0.4596
   11MOL   C344 4564   1.476   1.915   3.509 -0.4597 -0.1944  0.2917
   11MOL   H345 4565   0.997   1.932   3.470  0.7755  0.0447 -0.8227
   11MOL   H346 4566   1.000   1.853   3.620  0.5853 -2.1931 -0.1347
   11MOL   H347 4567   1.219   1.745   3.569  1.5455  1.7826  0.5387
   11MOL   H348 4568   1.221   1.936   3.353  0.1926  0.6923  0.8126
   11MOL   H349 4569   1.242   1.777   3.283 -0.0643 -0.5012  1.2019
   11MOL   H350 4570   1.408   1.648   3.522  0.8551  0.3352 -0.2665
   11MOL   H351 4571   1.415   1.611   3.346  0.5832 -2.1385  1.4526
   11MOL   H352 4572   1.552   1.661   3.420  0.4895  0.0809  0.3833
   11MOL   H353 4573   1.589   1.833   3.285  0.2280  0.4833 -0.0281
   11MOL   H354 4574   1.447   1.808   3.179 -0.6522 -2.3423  1.9270
   11MOL   H355 4575   1.486   1.964   3.239 -0.8845 -0.4682 -0.7024
   11MOL   H356 4576   1.584   1.910   3.516 -0.2271  0.9900 -1.9654
   11MOL   H357 4577   1.440   2.018   3.516 -2.0220 -0.8392  2.2747
   11MOL   H358 4578   1.448   1.878   3.608 -0.8101  2.0285  1.0528
   11MOL   C359 4579   1.088   1.657   3.441  0.1494  0.0519  0.2161
   11MOL   C360 4580   0.990   1.593   3.535  0.0950 -0.0707  0.8764
   11MOL   C361 4581   0.841   1.641   3.525 -0.2111  0.0219  0.6440
   11MOL   C362 4582   0.741   1.563   3.432  0.2966 -0.0108  0.3551
   11MOL   C363 4583   0.691   1.424   3.477 -0.5712  0.5813 -0.1867
   11MOL   C364 4584   0.801   1.560   3.285  0.3170 -0.2538 -0.2480
   11MOL   C365 4585   0.618   1.667   3.423  0.3527 -0.1335  0.2783
   11MOL   H366 4586   1.161   1.578   3.424 -0.5146 -0.2689 -1.2334
   11MOL   H367 4587   1.041   1.678   3.345  2.3262 -0.0540 -0.8954
   11MOL   H368 4588   0.976   1.490   3.503  0.8277  0.3159 -0.7472
   11MOL   H369 4589   0.801   1.659   3.625 -0.8931 -1.3170  0.6146
   11MOL   H370 4590   0.848   1.746   3.497  0.0806 -0.2200 -0.2029
   11MOL   H371 4591   0.599   1.385   3.434  1.7485 -2.2312 -2.8514
   11MOL   H372 4592   0.768   1.353   3.445 -0.6055  0.5556 -0.2114
   11MOL   H373 4593   0.664   1.421   3.583  1.6478 -0.2444  0.3843
   11MOL   H374 4594   0.889   1.496   3.285 -0.8476 -1.9073  1.4524
   11MOL   H375 4595   0.839   1.655   3.246 -0.1781  0.7072  1.5499
   11MOL   H376 4596   0.732   1.517   3.212  0.8001  0.9470 -1.4366
   11MOL   H377 4597   0.540   1.626   3.359  0.7454 -0.8188  0.2272
   11MOL   H378 4598   0.641   1.766   3.383  0.9509 -0.7034 -0.8320
   11MOL   H379 4599   0.574   1.687   3.520  2.6581 -1.2350  1.5917
   11MOL   C380 4600   1.037   1.567   3.677 -0.1687  0.3405 -1.2116
   11MOL   C381 4601   1.121   1.437   3.683 -0.0311 -0.1593  0.4770
   11MOL   C382 4602   1.031   1.311   3.664 -0.0651  0.2068  0.4870
   11MOL   C383 4603   1.079   1.199   3.563  0.0532  0.4785  0.4365
   11MOL   C384 4604   1.219   1.141   3.593 -0.8661  0.3903 -0.0344
   11MOL   C385 4605   1.079   1.254   3.423 -0.6355  0.2071  0.4362
   11MOL   C386 4606   0.991   1.071   3.562 -0.0627 -0.4176  0.2041
   11MOL   H387 4607   0.947   1.560   3.739  1.6652  1.9114  1.7214
   11MOL   H388 4608   1.098   1.641   3.727 -0.1516  0.6328 -1.6707
   11MOL   H389 4609   1.190   1.440   3.599 -0.0053 -0.8293  0.4706
   11MOL   H390 4610   1.009   1.269   3.763 -1.0258 -1.7064 -0.5161
   11MOL   H391 4611   0.931   1.335   3.628  0.5499  1.2345 -0.5706
   11MOL   H392 4612   1.224   1.113   3.698 -0.6726 -0.1233 -0.1799
   11MOL   H393 4613   1.239   1.044   3.547  1.4527  0.2908  1.1486
   11MOL   H394 4614   1.293   1.219   3.575  0.3483 -0.7765 -0.1742
   11MOL   H395 4615   1.093   1.179   3.346 -1.2645  2.1214 -1.5745
   11MOL   H396 4616   1.159   1.326   3.407 -0.2039 -0.0188  1.5108
   11MOL   H397 4617   0.987   1.307   3.398 -0.6380 -0.6395 -1.4412
   11MOL   H398 4618   0.994   1.006   3.475  0.7081  0.4569 -0.4300
   11MOL   H399 4619   0.887   1.102   3.557 -0.2601 -1.2527 -1.2255
   11MOL   H400 4620   1.017   0.998   3.640  0.1551 -2.0951 -1.4073
   11MOL   C401 4621   1.199   1.428   3.815  0.0722  0.0198  0.5009
   11MOL   C402 4622   1.318   1.525   3.831 -0.6481  0.1165 -0.2254
   11MOL   C403 4623   1.453   1.451   3.824  0.7065  0.4242 -0.2049
   11MOL   C404 4624   1.587   1.541   3.828  0.0169  0.0260  0.6699
   11MOL   C405 4625   1.589   1.631   3.953  0.4119 -0.4622 -0.3132
   11MOL   C406 4626   1.609   1.619   3.706 -0.1373  0.1222 -0.5082
   11MOL   C407 4627   1.708   1.439   3.854 -0.2407 -0.3352  0.0387
   11MOL   H408 4628   1.138   1.448   3.903  2.8673  1.9877  2.0918
   11MOL   H409 4629   1.236   1.326   3.822 -0.7226 -0.4671 -2.0894
   11MOL   H410 4630   1.314   1.603   3.756 -2.5200  0.6002  0.3523
   11MOL   H411 4631   1.446   1.386   3.737 -1.8496 -1.1481  1.1167
   11MOL   H412 4632   1.454   1.376   3.904  2.0797 -0.0285 -0.6249
   11MOL   H413 4633   1.504   1.698   3.955  1.2977  0.6915  2.7922
   11MOL   H414 4634   1.675   1.698   3.944  1.4300 -1.2057  2.9486
   11MOL   H415 4635   1.584   1.565   4.041  2.0450 -0.1043  0.0644
   11MOL   H416 4636   1.705   1.672   3.713  0.3587 -0.6467 -1.3946
   11MOL   H417 4637   1.516   1.675   3.702  0.0001  0.5678  1.9025
   11MOL   H418 4638   1.601   1.560   3.615  0.3800  0.0590 -0.5179
   11MOL   H419 4639   1.804   1.489   3.864 -0.5169 -0.2968  2.9405
   11MOL   H420 4640   1.700   1.393   3.953 -1.1397 -0.4917 -0.0994
   11MOL   H421 4641   1.714   1.369   3.771 -0.6133  0.3476 -0.5639
   11MOL   H422 4642   1.303   1.580   3.924  0.9842 -1.8402  1.2809
   12MOL     C1 4643   3.532   0.453   1.262  1.2002 -0.5435 -0.1709
   12MOL     C2 4644   3.679   0.429   1.311 -0.5709 -0.3779 -0.1237
   12MOL     C3 4645   3.697   0.481   1.461  0.3650  0.1294 -0.1507
   12MOL     C4 4646   3.779   0.392   1.559  0.1434 -0.5497 -0.8086
   12MOL     C5 4647   3.802   0.463   1.695 -0.0028 -0.4245  0.4827
   12MOL     C6 4648   3.696   0.266   1.583  0.6241 -0.7540  0.1836
   12MOL     C7 4649   3.915   0.345   1.503  0.1510  0.3947 -0.4310
   12MOL     H8 4650   3.520   0.559   1.244  2.2190 -0.5625 -1.0150
   12MOL     H9 4651   3.520   0.377   1.184  0.4001  0.3497 -0.9267
   12MOL    H10 4652   3.697   0.322   1.314 -0.4686 -0.3282  1.1500
   12MOL    H11 4653   3.603   0.494   1.515  1.9830 -1.9269  3.3404
   12MOL    H12 4654   3.745   0.578   1.454 -1.1707  0.8177 -1.5228
   12MOL    H13 4655   3.705   0.491   1.736 -0.5935 -0.5926 -0.7823
   12MOL    H14 4656   3.874   0.545   1.703  0.0457 -0.4969  0.8052
   12MOL    H15 4657   3.857   0.395   1.760  0.0138 -3.3542 -2.5046
   12MOL    H16 4658   3.755   0.204   1.651  2.3410  2.4093  1.6892
   12MOL    H17 4659   3.600   0.290   1.629  0.1553  0.0659 -1.2005
   12MOL    H18 4660   3.674   0.210   1.492 -1.0651 -1.4769  1.0091
   12MOL    H19 4661   3.906   0.308   1.401 -0.6378  0.4299 -0.3797
   12MOL    H20 4662   3.957   0.264   1.563 -0.9773  0.1550  0.0420
   12MOL    H21 4663   3.991   0.423   1.512  0.5442 -0.1246  0.8201
   12MOL    H22 4664   3.461   0.416   1.336 -0.2797  0.4998 -1.0630
   12MOL    C23 4665   3.785   0.487   1.205  0.7631  0.2568  0.1530
   12MOL    C24 4666   3.778   0.434   1.059 -0.6918 -0.1103  0.0891
   12MOL    C25 4667   3.809   0.276   1.053  0.3451  0.4531  0.6578
   12MOL    C26 4668   3.733   0.179   0.948 -1.1278 -0.4931 -0.3045
   12MOL    C27 4669   3.780   0.198   0.804 -0.5975 -0.1530 -0.0818
   12MOL    C28 4670   3.769   0.034   0.980  0.0236  0.8617  0.8748
   12MOL    C29 4671   3.582   0.194   0.965 -0.0528 -0.0069  0.2532
   12MOL    H30 4672   3.789   0.596   1.207 -0.6731  0.3060  0.5080
   12MOL    H31 4673   3.887   0.459   1.231  1.2991 -0.1764 -2.2450
   12MOL    H32 4674   3.674   0.456   1.033 -0.7009 -1.2523 -0.8792
   12MOL    H33 4675   3.783   0.238   1.151 -0.2408 -2.4583 -0.5779
   12MOL    H34 4676   3.918   0.268   1.047  0.1657 -2.0543  0.3744
   12MOL    H35 4677   3.766   0.294   0.753  2.0592 -1.1808 -2.8686
   12MOL    H36 4678   3.885   0.173   0.792 -0.3510  0.6361  0.3716
   12MOL    H37 4679   3.722   0.123   0.751 -1.2143 -0.7166  1.3709
   12MOL    H38 4680   3.725   7.734   0.905  0.0965  0.8277  0.8625
   12MOL    H39 4681   3.876   0.016   0.971 -0.2388  0.7718 -2.8360
   12MOL    H40 4682   3.736   7.761   1.076 -2.0752 -2.3057 -1.0112
   12MOL    H41 4683   3.557   0.300   0.964  1.0051  0.2661  1.0194
   12MOL    H42 4684   3.551   0.140   1.055  0.5807  1.7836  1.5841
   12MOL    H43 4685   3.542   0.143   0.878 -1.7328 -2.1601  2.2048
   12MOL    C44 4686   3.855   0.510   0.948  0.2650  0.3773  0.5306
   12MOL    C45 4687   3.808   0.650   0.915  0.6095  0.3571 -0.4147
   12MOL    C46 4688   3.659   0.650   0.864 -0.4027 -0.2449 -0.1799
   12MOL    C47 4689   3.573   0.769   0.901  0.4328  0.2428  0.2483
   12MOL    C48 4690   3.531   0.768   1.051 -0.0705  0.7221 -0.2401
   12MOL    C49 4691   3.455   0.775   0.803 -0.4540  1.0170  0.0572
   12MOL    C50 4692   3.640   0.906   0.888 -0.0574  0.4120  0.2362
   12MOL    H51 4693   3.961   0.510   0.970  0.5422 -2.2394 -0.6774
   12MOL    H52 4694   3.854   0.454   0.855 -0.3985 -0.6488  1.1436
   12MOL    H53 4695   3.817   0.710   1.005 -0.0870  0.0002 -0.1069
   12MOL    H54 4696   3.603   0.558   0.877  2.2734 -2.5174 -3.7346
   12MOL    H55 4697   3.683   0.651   0.758  0.9430  0.2066  0.1063
   12MOL    H56 4698   3.470   0.681   1.077  0.2394  1.2446  2.3834
   12MOL    H57 4699   3.481   0.858   1.087  2.8111  2.1008  0.4560
   12MOL    H58 4700   3.617   0.762   1.118 -0.2169 -0.4178 -0.1301
   12MOL    H59 4701   3.479   0.824   0.708  2.5854  0.0556  0.2655
   12MOL    H60 4702   3.418   0.677   0.774  0.3814  1.2090 -1.7071
   12MOL    H61 4703   3.378   0.835   0.851 -1.9261  0.1556 -1.1979
   12MOL    H62 4704   3.683   0.921   0.789 -1.7891 -1.5179 -0.8671
   12MOL    H63 4705   3.567   0.985   0.900 -1.2325 -0.7423  0.8668
   12MOL    H64 4706   3.726   0.928   0.951  0.6446 -2.8285  0.5076
   12MOL    C65 4707   3.892   0.694   0.793  0.2222  0.0368 -0.8511
   12MOL    C66 4708   4.040   0.717   0.800 -0.2093 -0.2872 -0.5524
   12MOL    C67 4709   4.081   0.817   0.916  0.0294 -0.2621 -0.9535
   12MOL    C68 4710   4.207   0.784   1.007 -0.7941  0.1273 -0.6794
   12MOL    C69 4711   4.183   0.650   1.086 -0.6025  0.6919  0.4328
   12MOL    C70 4712   4.335   0.759   0.923 -0.2148 -0.4611  0.1610
   12MOL    C71 4713   4.234   0.906   1.098  0.3568 -0.0195 -0.1194
   12MOL    H72 4714   3.877   0.630   0.706  0.4599 -1.6898  0.3566
   12MOL    H73 4715   3.858   0.789   0.752  0.7762  0.8716  0.5927
   12MOL    H74 4716   4.086   0.621   0.821 -0.6397  0.2053  3.0756
   12MOL    H75 4717   4.001   0.832   0.989  0.3499  0.0515 -0.6664
   12MOL    H76 4718   4.106   0.912   0.871 -2.1524  1.8587  2.0804
   12MOL    H77 4719   4.177   0.565   1.017  0.5270  1.5925 -0.8081
   12MOL    H78 4720   4.262   0.620   1.154  2.0515  3.9707 -1.0481
   12MOL    H79 4721   4.087   0.640   1.136 -1.2007  0.5666 -0.7115
   12MOL    H80 4722   4.424   0.720   0.974  0.2776 -0.1812 -0.4802
   12MOL    H81 4723   4.352   0.848   0.863 -1.0160 -0.1785  0.3466
   12MOL    H82 4724   4.328   0.675   0.855  1.4345 -1.4392  1.1584
   12MOL    H83 4725   4.271   0.988   1.037  1.9403  1.2910  2.4967
   12MOL    H84 4726   4.316   0.874   1.163  1.5636  1.0066 -1.1109
   12MOL    H85 4727   4.156   0.930   1.170 -0.0955 -1.0091 -0.2790
   12MOL    C86 4728   4.094   0.777   0.669  0.0415 -0.3858 -0.3265
   12MOL    C87 4729   4.089   0.677   0.547  0.3761 -0.0875  0.2568
   12MOL    C88 4730   4.193   0.563   0.558 -0.6839  0.0579  0.1097
   12MOL    C89 4731   4.131   0.422   0.514  0.4607 -0.2600  0.6645
   12MOL    C90 4732   4.253   0.330   0.504  0.4452 -0.0385  0.3780
   12MOL    C91 4733   4.059   0.436   0.370  0.2331  0.1759  0.6984
   12MOL    C92 4734   4.033   0.363   0.625  0.6332 -0.4355 -0.2055
   12MOL    H93 4735   4.197   0.808   0.683  0.1840 -0.3043 -1.4522
   12MOL    H94 4736   4.045   0.874   0.654  0.3866 -0.2806 -0.7901
   12MOL    H95 4737   3.994   0.626   0.533  0.1136 -0.0326  1.8065
   12MOL    H96 4738   4.233   0.565   0.659  0.5062  2.6214 -0.3784
   12MOL    H97 4739   4.284   0.575   0.500 -0.9898 -2.8763 -1.0952
   12MOL    H98 4740   4.322   0.366   0.428 -0.1815 -2.2971 -1.3295
   12MOL    H99 4741   4.214   0.229   0.496 -1.0153  0.5360  0.0256
   12MOL   H100 4742   4.303   0.342   0.600 -0.6004 -2.4176  1.2482
   12MOL   H101 4743   4.015   0.341   0.341  0.9197  0.2002 -0.4774
   12MOL   H102 4744   3.974   0.503   0.359  1.3896  1.5798  0.1912
   12MOL   H103 4745   4.131   0.443   0.288 -1.5524 -0.7857 -0.9663
   12MOL   H104 4746   4.086   0.379   0.719 -2.6823 -0.8122  1.8166
   12MOL   H105 4747   3.930   0.396   0.639  1.2194  0.6827  1.7095
   12MOL   H106 4748   4.012   0.258   0.603 -1.6959  0.3159 -1.8147
   12MOL   C107 4749   4.118   0.764   0.421 -0.0477  0.0322  0.1332
   12MOL   C108 4750   3.990   0.831   0.340 -0.2672  0.3238 -0.2092
   12MOL   C109 4751   3.883   0.898   0.427 -0.1873  0.2026  0.1181
   12MOL   C110 4752   3.741   0.941   0.368 -0.6004  0.4009  0.2355
   12MOL   C111 4753   3.698   0.867   0.237  0.2539 -0.0855 -0.2868
   12MOL   C112 4754   3.749   1.087   0.340 -0.1410  0.5915 -0.0658
   12MOL   C113 4755   3.639   0.917   0.477  0.3528 -0.0952 -0.2258
   12MOL   H114 4756   4.182   0.710   0.352  0.7534 -1.7281  2.2073
   12MOL   H115 4757   4.182   0.848   0.448 -0.9144  0.7102  0.1087
   12MOL   H116 4758   3.940   0.748   0.290 -0.7158  0.7000 -0.3857
   12MOL   H117 4759   3.870   0.818   0.498  3.4350  1.2547  2.0712
   12MOL   H118 4760   3.938   0.981   0.472  0.7742 -1.7430  2.6248
   12MOL   H119 4761   3.749   0.895   0.145  0.6394  0.6587  0.1444
   12MOL   H120 4762   3.698   0.760   0.254 -0.7941 -0.0258  0.1061
   12MOL   H121 4763   3.592   0.885   0.218 -0.1193 -1.3983  0.4979
   12MOL   H122 4764   3.792   1.140   0.426 -0.4190 -1.7996  1.6107
   12MOL   H123 4765   3.658   1.136   0.306 -0.1876  0.9919  0.6199
   12MOL   H124 4766   3.814   1.112   0.257 -0.8255  0.3237 -0.6811
   12MOL   H125 4767   3.542   0.961   0.455  0.5314  0.9094  0.9251
   12MOL   H126 4768   3.666   0.965   0.571  1.8741 -2.7938  0.7923
   12MOL   H127 4769   3.636   0.810   0.500  1.4817 -0.4517 -1.6777
   12MOL   C128 4770   4.041   0.927   0.229  0.2918 -0.2490  0.6953
   12MOL   C129 4771   4.119   0.872   0.110 -0.7535  1.1677  0.4070
   12MOL   C130 4772   4.021   0.808   0.011 -0.6052  0.9740  0.1229
   12MOL   C131 4773   4.034   0.682   7.690  0.2121 -0.6090  0.0048
   12MOL   C132 4774   4.077   0.561   0.009 -0.6217 -0.7447  0.1466
   12MOL   C133 4775   4.142   0.708   7.583  0.6897 -0.5582 -0.1269
   12MOL   C134 4776   3.898   0.651   7.625 -0.5039  0.9683  0.1529
   12MOL   H135 4777   4.086   1.010   0.284 -0.0943 -0.2024  0.9498
   12MOL   H136 4778   3.961   0.978   0.175 -0.2922 -1.6441  0.2191
   12MOL   H137 4779   4.187   0.793   0.141 -1.2434 -0.4302 -2.3784
   12MOL   H138 4780   3.929   0.782   0.063 -0.6708  0.4817 -0.2385
   12MOL   H139 4781   3.989   0.891   7.714 -0.0716 -0.3508 -1.9588
   12MOL   H140 4782   4.079   0.464   7.725  0.1235 -0.2094 -0.8629
   12MOL   H141 4783   4.011   0.540   0.094  0.0347  4.2207  2.0277
   12MOL   H142 4784   4.175   0.585   0.049 -0.7104  3.5854 -1.9824
   12MOL   H143 4785   4.142   0.632   7.504 -1.7550 -0.4455 -0.2701
   12MOL   H144 4786   4.241   0.715   7.628 -0.1001  1.2370  1.3679
   12MOL   H145 4787   4.111   0.800   7.534 -0.4909 -0.6655  0.4150
   12MOL   H146 4788   3.815   0.648   7.696 -0.1079  2.1744  0.6822
   12MOL   H147 4789   3.863   0.727   7.555 -0.0006  1.2505  0.2049
   12MOL   H148 4790   3.889   0.556   7.573 -1.5979  1.6204 -0.8772
   12MOL   C149 4791   4.202   0.980   0.050 -0.0205 -0.0947 -0.0095
   12MOL   C150 4792   4.333   1.011   0.124  0.2294  0.2995  0.8276
   12MOL   C151 4793   4.431   0.897   0.092 -0.0895  0.2978 -0.3407
   12MOL   C152 4794   4.538   0.857   0.200 -0.3823  0.3539 -0.0938
   12MOL   C153 4795   4.631   0.980   0.235 -0.0225 -0.7064  0.1443
   12MOL   C154 4796   4.617   0.736   0.138 -0.3246 -0.6193 -0.1338
   12MOL   C155 4797   4.482   0.798   0.332 -0.0955 -0.3931  0.6695
   12MOL   H156 4798   4.133   1.064   0.049 -0.2006 -0.2475 -0.2921
   12MOL   H157 4799   4.221   0.968   7.709  0.7234  0.5539  0.0443
   12MOL   H158 4800   4.321   1.004   0.232  1.8996  1.0211  1.0816
   12MOL   H159 4801   4.484   0.923   0.001  3.6367  0.2263  1.7269
   12MOL   H160 4802   4.379   0.806   0.062 -2.9890  0.6776  3.1941
   12MOL   H161 4803   4.645   1.052   0.155  0.4564 -0.5837  0.3395
   12MOL   H162 4804   4.591   1.037   0.319 -2.2869  1.2814 -2.1915
   12MOL   H163 4805   4.731   0.949   0.266  0.0713  0.5353  1.1279
   12MOL   H164 4806   4.701   0.719   0.206 -0.7977  0.7911  0.7982
   12MOL   H165 4807   4.654   0.760   0.038  1.2556 -1.8734  0.1172
   12MOL   H166 4808   4.563   0.642   0.124 -1.3581  0.0614 -0.6873
   12MOL   H167 4809   4.560   0.755   0.395  0.8097 -0.4169 -0.4559
   12MOL   H168 4810   4.425   0.878   0.379  0.3461 -0.2929  1.0350
   12MOL   H169 4811   4.411   0.716   0.320 -1.3846  0.1103  4.2133
   12MOL   C170 4812   4.390   1.150   0.074 -0.1076  0.6160  0.8994
   12MOL   C171 4813   4.380   1.262   0.183  0.1507  0.2423  0.6781
   12MOL   C172 4814   4.236   1.283   0.230 -0.2154 -0.5029 -0.1513
   12MOL   C173 4815   4.206   1.341   0.369 -0.6730  0.8784 -0.4167
   12MOL   C174 4816   4.260   1.485   0.390  0.1700  0.2753 -0.2567
   12MOL   C175 4817   4.247   1.241   0.476  0.0163 -0.5447 -0.5697
   12MOL   C176 4818   4.052   1.363   0.378 -0.2799 -0.4197  0.4073
   12MOL   H177 4819   4.328   1.181   7.755 -0.5233 -0.9453  0.6207
   12MOL   H178 4820   4.492   1.138   0.037  0.0361 -0.4180  1.6083
   12MOL   H179 4821   4.433   1.226   0.271  0.4896 -0.0458  0.3633
   12MOL   H180 4822   4.191   1.363   0.171 -0.6584 -0.1674  0.6428
   12MOL   H181 4823   4.171   1.197   0.216 -1.5432  0.2966  1.0374
   12MOL   H182 4824   4.195   1.524   0.468  1.9724  1.7776  0.5430
   12MOL   H183 4825   4.364   1.486   0.424  0.3031  0.5461 -0.6722
   12MOL   H184 4826   4.240   1.543   0.301  1.3679 -2.4290 -2.3765
   12MOL   H185 4827   4.354   1.222   0.479  0.1918  0.5768  1.4361
   12MOL   H186 4828   4.217   1.270   0.577  1.4089 -2.1904  0.3401
   12MOL   H187 4829   4.200   1.146   0.453 -0.3647 -0.2555 -1.0044
   12MOL   H188 4830   3.991   1.274   0.363  2.1290 -1.8330 -1.4484
   12MOL   H189 4831   4.024   1.412   0.471 -0.4866  0.6193 -0.1964
   12MOL   H190 4832   4.019   1.432   0.301 -0.4417 -1.9962 -0.9649
   12MOL   C191 4833   4.454   1.391   0.136  0.8242  0.5376  0.5816
   12MOL   C192 4834   4.610   1.392   0.128  0.1789 -0.3446 -0.6098
   12MOL   C193 4835   4.658   1.368   0.273 -0.4416  0.1864 -0.0145
   12MOL   C194 4836   4.807   1.364   0.312 -1.4871 -0.1164 -0.5135
   12MOL   C195 4837   4.886   1.295   0.203  0.5707 -0.4061 -0.4581
   12MOL   C196 4838   4.827   1.290   0.446 -0.5291 -0.0376  0.4758
   12MOL   C197 4839   4.855   1.508   0.345 -0.1726  0.0939 -0.0713
   12MOL   H198 4840   4.407   1.419   0.042 -0.6180 -4.3035 -0.2768
   12MOL   H199 4841   4.426   1.472   0.203 -0.8494  0.6225 -0.2004
   12MOL   H200 4842   4.641   1.306   0.067 -0.6535  0.6159 -2.4414
   12MOL   H201 4843   4.617   1.272   0.305  0.7277 -0.3472 -0.0909
   12MOL   H202 4844   4.612   1.445   0.334  1.8059  2.5342 -1.2039
   12MOL   H203 4845   4.901   1.346   0.108  2.2102 -0.1816 -0.0948
   12MOL   H204 4846   4.987   1.277   0.238  0.8969  0.7810 -0.7845
   12MOL   H205 4847   4.834   1.204   0.171  0.8459 -0.1495 -1.6614
   12MOL   H206 4848   4.770   1.341   0.523 -1.2307  0.3332 -0.2879
   12MOL   H207 4849   4.804   1.184   0.450  0.9188 -0.3303  1.7339
   12MOL   H208 4850   4.931   1.289   0.479 -0.3027 -1.1120 -0.2241
   12MOL   H209 4851   4.797   1.556   0.423  0.0287  0.4889 -0.1646
   12MOL   H210 4852   4.960   1.507   0.375 -0.6455  1.8399  1.7165
   12MOL   H211 4853   4.856   1.572   0.257 -0.0428 -1.7599 -1.4645
   12MOL   C212 4854   4.651   1.526   0.054  0.0335 -0.0114  0.4673
   12MOL   C213 4855   4.618   1.555   7.671  0.2015 -0.6714  0.8186
   12MOL   C214 4856   4.683   1.452   7.580 -0.4630 -0.5607  0.2452
   12MOL   C215 4857   4.614   1.403   7.451  0.6014 -0.2457 -0.2443
   12MOL   C216 4858   4.486   1.323   7.479 -0.0410  0.7586 -0.3592
   12MOL   C217 4859   4.601   1.516   7.346 -0.4306  0.4883 -0.9394
   12MOL   C218 4860   4.714   1.306   7.382 -0.1132 -0.2416 -0.6825
   12MOL   H219 4861   4.612   1.605   0.118  0.4291 -0.3957  1.1789
   12MOL   H220 4862   4.759   1.536   0.064  0.0867 -0.7949  0.6526
   12MOL   H221 4863   4.512   1.537   7.655 -0.5039  3.4023  0.4222
   12MOL   H222 4864   4.708   1.367   7.643  0.7515 -0.3430  0.0605
   12MOL   H223 4865   4.782   1.488   7.553 -1.5707  1.0062 -1.8821
   12MOL   H224 4866   4.458   1.266   7.390 -0.6376 -0.5473  0.6537
   12MOL   H225 4867   4.407   1.393   7.505 -0.2727  0.4893 -0.3268
   12MOL   H226 4868   4.499   1.251   7.560 -0.7166  0.4917 -0.4867
   12MOL   H227 4869   4.688   1.580   7.343  0.9127 -1.2892 -0.8441
   12MOL   H228 4870   4.582   1.480   7.245  1.4014 -0.5238 -0.9296
   12MOL   H229 4871   4.516   1.576   7.379  0.5504  0.7884  1.1275
   12MOL   H230 4872   4.797   1.366   7.344  0.4801 -0.6280 -0.0110
   12MOL   H231 4873   4.671   1.264   7.292  0.3571 -0.4915 -0.7924
   12MOL   H232 4874   4.747   1.227   7.450 -2.8273  0.5483  1.6557
   12MOL   C233 4875   4.660   1.697   7.636 -0.2158 -0.7570  0.1924
   12MOL   C234 4876   4.570   1.821   7.671  0.3174 -0.4202 -0.0959
   12MOL   C235 4877   4.655   1.956   7.689 -0.4943 -0.8047  0.2497
   12MOL   C236 4878   4.674   2.019   0.061 -0.0984  0.2533  0.0411
   12MOL   C237 4879   4.540   2.064   0.119 -0.2504  0.6026  0.2879
   12MOL   C238 4880   4.732   1.919   0.158 -0.0721  0.8699 -0.1782
   12MOL   C239 4881   4.769   2.142   0.056  0.4796  0.0288 -0.7703
   12MOL   H240 4882   4.671   1.696   7.527  0.2891 -0.0122  0.2289
   12MOL   H241 4883   4.760   1.706   7.680 -0.9226 -0.4060  1.7722
   12MOL   H242 4884   4.506   1.791   7.754  1.6742  0.4036  1.2725
   12MOL   H243 4885   4.756   1.937   7.655 -1.1263 -1.9535 -1.0743
   12MOL   H244 4886   4.598   2.020   7.621 -2.1130 -2.2605  0.1868
   12MOL   H245 4887   4.481   1.976   0.144  0.8726 -0.5733 -1.1458
   12MOL   H246 4888   4.481   2.129   0.053 -0.3535  0.2543  0.0360
   12MOL   H247 4889   4.560   2.122   0.209 -1.3327  1.6025 -0.0871
   12MOL   H248 4890   4.659   1.843   0.184  0.8493  0.6360  1.7687
   12MOL   H249 4891   4.811   1.856   0.118  0.2213  0.9534  0.2714
   12MOL   H250 4892   4.752   1.950   0.260  2.2266 -2.2132  0.3584
   12MOL   H251 4893   4.731   2.214   7.749  1.9361  1.5581 -0.0668
   12MOL   H252 4894   4.761   2.198   0.150  1.7462 -0.6094 -0.2832
   12MOL   H253 4895   4.871   2.121   0.026  0.2484  0.0315 -1.5631
   12MOL   C254 4896   4.461   1.833   7.549 -0.3891 -0.8252  0.1143
   12MOL   C255 4897   4.317   1.869   7.594  0.5715 -0.7819  0.3550
   12MOL   C256 4898   4.251   1.758   7.679 -0.1718 -0.2333  0.4779
   12MOL   C257 4899   4.160   1.787   0.041 -0.0920 -0.2642 -0.2324
   12MOL   C258 4900   4.051   1.893   0.005 -0.0266  1.2262  0.9855
   12MOL   C259 4901   4.252   1.853   0.154 -0.1226  0.4292  0.3839
   12MOL   C260 4902   4.096   1.655   0.082 -0.0683 -0.2939  0.3733
   12MOL   H261 4903   4.454   1.733   7.508  2.4202 -1.5019  1.2006
   12MOL   H262 4904   4.491   1.911   7.479  0.5131 -1.2705  0.0006
   12MOL   H263 4905   4.334   1.954   7.660  3.7172 -0.1677 -1.1928
   12MOL   H264 4906   4.198   1.689   7.613  0.6093 -0.0120 -0.4049
   12MOL   H265 4907   4.333   1.697   7.715  0.0024  1.1068  2.4491
   12MOL   H266 4908   3.984   1.864   7.690  1.7813  0.3423 -0.2464
   12MOL   H267 4909   4.089   1.993   7.747 -0.5335  1.4852  1.2650
   12MOL   H268 4910   3.993   1.916   0.094 -0.7209 -0.3927  0.9740
   12MOL   H269 4911   4.343   1.794   0.162 -1.9052 -2.4360  0.2573
   12MOL   H270 4912   4.188   1.841   0.242 -2.1576 -0.9886 -1.2310
   12MOL   H271 4913   4.277   1.953   0.118  0.1875 -0.7379 -2.7222
   12MOL   H272 4914   4.170   1.576   0.088 -0.8142 -0.8605  2.3352
   12MOL   H273 4915   4.057   1.668   0.183  0.5129 -2.6041  0.9190
   12MOL   H274 4916   4.021   1.613   0.015  0.7075  0.8996 -1.2793
   12MOL   C275 4917   4.235   1.895   7.458  0.5640  0.3656 -0.0527
   12MOL   C276 4918   4.253   2.029   7.393  0.2514  0.0172  1.0868
   12MOL   C277 4919   4.200   2.046   7.245  0.1559  0.0523  0.8624
   12MOL   C278 4920   4.312   2.004   7.133  0.0415 -0.3528 -0.2578
   12MOL   C279 4921   4.246   2.000   6.997  0.0699 -0.0798 -0.0600
   12MOL   C280 4922   4.422   2.107   7.128  1.0892 -1.0352 -0.1535
   12MOL   C281 4923   4.362   1.858   7.154 -0.2827 -0.3932  0.0190
   12MOL   H282 4924   4.255   1.821   7.381 -1.5936  0.3799 -0.6662
   12MOL   H283 4925   4.128   1.877   7.473  1.6434 -4.3644  3.0354
   12MOL   H284 4926   4.357   2.060   7.391 -0.1092  1.1411 -0.2150
   12MOL   H285 4927   4.158   2.147   7.238 -0.2307 -0.3111 -2.4452
   12MOL   H286 4928   4.109   1.988   7.231 -0.7466  1.3413  1.2986
   12MOL   H287 4929   4.310   1.987   6.911 -0.4343 -1.7565 -0.2193
   12MOL   H288 4930   4.169   1.922   6.994 -1.8734  1.7343  0.8370
   12MOL   H289 4931   4.215   2.102   6.976  0.9755 -0.3112 -2.6024
   12MOL   H290 4932   4.388   2.211   7.131  3.2622 -0.3164  0.2469
   12MOL   H291 4933   4.492   2.086   7.048  0.4794 -0.4275 -0.8558
   12MOL   H292 4934   4.493   2.107   7.211 -0.5218 -0.3380  1.2633
   12MOL   H293 4935   4.274   1.795   7.169  0.1046 -0.6700  1.2087
   12MOL   H294 4936   4.433   1.839   7.234  0.9175 -0.7032 -1.1120
   12MOL   H295 4937   4.412   1.817   7.067  1.9827  2.8421 -0.2801
   12MOL   C296 4938   4.177   2.125   7.479  1.0816 -0.2537  0.2575
   12MOL   C297 4939   4.231   2.269   7.462  0.1592 -0.0655 -0.2675
   12MOL   C298 4940   4.352   2.304   7.553  0.1000 -0.6669  0.1170
   12MOL   C299 4941   4.461   2.401   7.507 -0.0078  0.0679  0.0504
   12MOL   C300 4942   4.533   2.449   7.632 -0.7521  0.2202 -0.4791
   12MOL   C301 4943   4.561   2.328   7.421 -1.1259  0.2919 -0.3912
   12MOL   C302 4944   4.407   2.521   7.425  0.0477  0.0018  0.2884
   12MOL   H303 4945   4.174   2.095   7.584 -1.3197 -2.5871 -0.4220
   12MOL   H304 4946   4.072   2.118   7.451  1.3794 -0.3617 -0.8450
   12MOL   H305 4947   4.254   2.283   7.356 -0.0986  1.2862 -0.1612
   12MOL   H306 4948   4.393   2.212   7.595  0.6885 -0.5281 -0.1548
   12MOL   H307 4949   4.307   2.346   7.642 -0.2542  1.7411 -1.1599
   12MOL   H308 4950   4.562   2.368   7.699  0.6439 -0.1379 -1.4857
   12MOL   H309 4951   4.623   2.505   7.606  1.2928 -2.1981  1.1834
   12MOL   H310 4952   4.483   2.522   7.696 -0.1631 -0.5401  0.8637
   12MOL   H311 4953   4.653   2.386   7.420 -0.0807 -1.3107  0.4219
   12MOL   H312 4954   4.579   2.230   7.465 -1.1979  1.0357  1.3121
   12MOL   H313 4955   4.526   2.317   7.318 -1.0438 -2.1981 -0.1885
   12MOL   H314 4956   4.344   2.585   7.487 -0.4983 -0.1949 -0.0523
   12MOL   H315 4957   4.486   2.592   7.403  0.9669 -0.1024  2.9619
   12MOL   H316 4958   4.352   2.489   7.337  1.3833 -2.0636  0.1667
   12MOL   C317 4959   4.118   2.378   7.498  0.7719  0.6068 -0.1502
   12MOL   C318 4960   4.000   2.383   7.407  0.3749  0.2329 -0.0277
   12MOL   C319 4961   3.871   2.448   7.468 -0.0781  0.3441 -0.0140
   12MOL   C320 4962   3.818   2.410   7.610  0.1658  0.7651  0.0147
   12MOL   C321 4963   3.882   2.504   7.717 -0.7387 -0.4290  0.0231
   12MOL   C322 4964   3.836   2.269   7.650 -0.1465  0.3515 -0.0458
   12MOL   C323 4965   3.661   2.446   7.606 -0.1743 -0.2599 -0.5825
   12MOL   H324 4966   4.094   2.362   7.603 -1.2133 -0.6592 -0.7785
   12MOL   H325 4967   4.153   2.481   7.507 -0.5082  0.9687  0.9252
   12MOL   H326 4968   3.978   2.283   7.370  1.7935  0.7444 -2.4021
   12MOL   H327 4969   3.791   2.429   7.396 -0.0515 -0.6261  0.2110
   12MOL   H328 4970   3.873   2.557   7.470 -0.0024  0.3353  0.5405
   12MOL   H329 4971   3.990   2.505   7.733 -0.4350  0.1080 -1.9962
   12MOL   H330 4972   3.829   2.484   0.044  2.3711 -1.5819  1.6212
   12MOL   H331 4973   3.841   2.603   7.698  1.2754  0.2478 -0.8298
   12MOL   H332 4974   3.933   2.262   7.701  0.1135  1.2833 -0.4213
   12MOL   H333 4975   3.755   2.223   7.707 -0.3972  0.7641 -0.0745
   12MOL   H334 4976   3.858   2.203   7.566 -1.0728 -0.6330  0.4632
   12MOL   H335 4977   3.601   2.396   7.529 -2.3502 -1.9343  2.0890
   12MOL   H336 4978   3.649   2.554   7.596  1.6714 -0.0465 -0.7118
   12MOL   H337 4979   3.609   2.417   7.698 -1.6401  0.1017 -1.2791
   12MOL   C338 4980   4.028   2.453   7.269  0.2443 -0.1080  0.0378
   12MOL   C339 4981   3.921   2.428   7.157 -0.5066 -0.2745  0.8776
   12MOL   C340 4982   3.885   2.273   7.119  0.4470  0.1845 -0.6423
   12MOL   C341 4983   3.736   2.220   7.110 -0.5025 -0.1638 -0.5412
   12MOL   C342 4984   3.673   2.210   7.260 -0.0637 -0.7300  0.0254
   12MOL   C343 4985   3.646   2.308   7.014  0.9640  0.1661 -0.0838
   12MOL   C344 4986   3.741   2.074   7.053  0.1377 -0.2164 -0.1922
   12MOL   H345 4987   4.122   2.414   7.231 -0.4398 -1.2947 -0.4687
   12MOL   H346 4988   4.052   2.557   7.288 -1.1323  0.3524 -0.7501
   12MOL   H347 4989   3.836   2.480   7.200 -0.2078 -0.2726  1.4812
   12MOL   H348 4990   3.929   2.203   7.190 -2.4449 -1.9849 -0.9115
   12MOL   H349 4991   3.936   2.268   7.023  3.5003  1.6933  0.8098
   12MOL   H350 4992   3.663   2.313   7.294  1.9555 -1.0930  1.8732
   12MOL   H351 4993   3.573   2.168   7.261 -0.4644  0.2138  0.3922
   12MOL   H352 4994   3.736   2.158   7.332 -0.7621 -1.3955  0.1570
   12MOL   H353 4995   3.620   2.411   7.039 -1.3626 -0.4291  0.0766
   12MOL   H354 4996   3.693   2.309   6.916 -1.3773  0.2818 -1.2351
   12MOL   H355 4997   3.555   2.256   6.983 -1.4344  2.5977  2.6112
   12MOL   H356 4998   3.759   2.072   6.945 -0.0149 -0.4267 -0.2140
   12MOL   H357 4999   3.818   2.018   7.106  0.6233  2.2634  1.8342
   12MOL   H358 5000   3.643   2.027   7.054 -0.3176  0.6301 -2.2727
   12MOL   C359 5001   3.960   2.507   7.032 -0.3775 -0.3131 -0.1809
   12MOL   C360 5002   3.945   2.663   7.040  0.6873  0.6904  0.0414
   12MOL   C361 5003   3.799   2.706   7.024 -1.1095  0.3795 -0.2166
   12MOL   C362 5004   3.743   2.826   7.110  0.9572  0.2110  0.3700
   12MOL   C363 5005   3.589   2.815   7.099 -0.4041 -0.3662  0.0215
   12MOL   C364 5006   3.785   2.972   7.059  0.5959  0.4870  0.1631
   12MOL   C365 5007   3.773   2.810   7.259 -0.5009 -0.2362 -0.3435
   12MOL   H366 5008   3.896   2.465   6.953  1.8755  0.9917 -2.7963
   12MOL   H367 5009   4.059   2.470   7.006 -0.0930 -0.0134  0.4666
   12MOL   H368 5010   3.987   2.699   7.134  2.8858 -0.6623 -0.3824
   12MOL   H369 5011   3.768   2.707   6.920  3.1617 -0.4008 -1.5973
   12MOL   H370 5012   3.733   2.625   7.058 -0.0610 -0.0671  0.8068
   12MOL   H371 5013   3.554   2.799   6.997  1.9654 -1.2052 -0.6924
   12MOL   H372 5014   3.554   2.728   7.155 -1.1081 -0.3993 -0.4544
   12MOL   H373 5015   3.539   2.904   7.137  3.0007  2.0671 -1.0032
   12MOL   H374 5016   3.892   2.973   7.041  0.4307 -0.2046 -0.8576
   12MOL   H375 5017   3.764   3.049   7.133 -1.3352 -0.2590  0.4329
   12MOL   H376 5018   3.728   2.996   6.970 -0.7173  1.3014  1.1991
   12MOL   H377 5019   3.750   2.717   7.310 -0.7165 -0.0095 -0.0214
   12MOL   H378 5020   3.706   2.877   7.314 -4.0070 -3.5385 -0.3261
   12MOL   H379 5021   3.876   2.823   7.291 -0.0465 -2.8305 -0.6523
   12MOL   C380 5022   4.035   2.721   6.925  0.1543  0.9460 -0.3828
   12MOL   C381 5023   4.188   2.731   6.955  0.2284 -0.0968 -0.2929
   12MOL   C382 5024   4.213   2.870   7.031  0.2904 -0.4564  0.1619
   12MOL   C383 5025   4.312   2.874   7.153  0.4925 -0.2478  0.0864
   12MOL   C384 5026   4.449   2.816   7.125  0.3463 -1.0010  0.3853
   12MOL   C385 5027   4.249   2.789   7.264 -0.2702  0.8366  0.6796
   12MOL   C386 5028   4.327   3.018   7.210  0.8050  0.3767  0.2648
   12MOL   H387 5029   4.014   2.825   6.898  3.7119  1.8195 -0.1669
   12MOL   H388 5030   4.026   2.669   6.830 -0.3618  2.9150 -1.4324
   12MOL   H389 5031   4.204   2.653   7.030 -2.1552  0.0699  0.4591
   12MOL   H390 5032   4.259   2.934   6.955  1.7729 -0.9701  0.6102
   12MOL   H391 5033   4.118   2.922   7.049  1.3256  1.3215  0.6564
   12MOL   H392 5034   4.438   2.707   7.126  0.8490 -1.0503  0.3057
   12MOL   H393 5035   4.490   2.854   7.032 -2.1168  0.8063 -0.0061
   12MOL   H394 5036   4.512   2.849   7.208  2.1337 -2.1160 -0.5171
   12MOL   H395 5037   4.246   2.682   7.240 -2.2891  0.9963  0.0984
   12MOL   H396 5038   4.144   2.817   7.276 -0.6334 -0.7064  1.2136
   12MOL   H397 5039   4.291   2.814   7.361  1.2448  1.1573 -0.0363
   12MOL   H398 5040   4.346   3.093   7.133 -1.4938  1.3599  0.6187
   12MOL   H399 5041   4.407   3.034   7.282  1.0787 -1.3116  0.3573
   12MOL   H400 5042   4.232   3.042   7.258  1.3958 -1.9064  2.7167
   12MOL   C401 5043   4.278   2.706   6.834  0.1116 -0.3210  0.0838
   12MOL   C402 5044   4.280   2.578   6.745 -0.3216  0.0233  0.4132
   12MOL   C403 5045   4.400   2.594   6.653 -0.1358  0.7350 -0.1988
   12MOL   C404 5046   4.416   2.494   6.539  0.3013 -0.1808 -0.9878
   12MOL   C405 5047   4.315   2.517   6.433 -0.8393  0.0684  0.6670
   12MOL   C406 5048   4.412   2.354   6.588 -0.8729 -0.1636  0.2816
   12MOL   C407 5049   4.557   2.502   6.482 -0.3493 -0.5072  0.8646
   12MOL   H408 5050   4.268   2.797   6.775 -1.6153  0.0701  0.9274
   12MOL   H409 5051   4.381   2.719   6.866  0.2480 -1.0682 -0.0351
   12MOL   H410 5052   4.284   2.487   6.805  1.5767  0.8840  1.6407
   12MOL   H411 5053   4.482   2.573   6.722  0.7225  0.6071 -1.2539
   12MOL   H412 5054   4.405   2.697   6.619  0.1900  0.0936 -2.1790
   12MOL   H413 5055   4.213   2.515   6.471 -0.9539 -0.9927  0.3170
   12MOL   H414 5056   4.312   2.439   6.357 -1.6905  0.6320  0.1136
   12MOL   H415 5057   4.327   2.619   6.397  0.7766 -0.7793 -1.2495
   12MOL   H416 5058   4.324   2.330   6.648 -0.0139 -0.6864  1.3343
   12MOL   H417 5059   4.505   2.329   6.638 -1.1927 -0.5969  0.6581
   12MOL   H418 5060   4.408   2.288   6.501 -2.5114  1.3836 -0.8657
   12MOL   H419 5061   4.631   2.520   6.560 -0.3787  0.7705  0.6036
   12MOL   H420 5062   4.589   2.414   6.426  0.6205  1.3869 -1.6044
   12MOL   H421 5063   4.551   2.584   6.411  1.5520 -1.8596 -0.8993
   12MOL   H422 5064   4.191   2.577   6.683 -0.6402 -2.2721  0.8471
   13MOL     C1 5065   2.169   7.336   4.739 -0.2461 -0.2862  0.0365
   13MOL     C2 5066   2.103   7.374   4.879  0.2258 -0.1333  0.1075
   13MOL     C3 5067   1.950   7.366   4.877 -0.6126  0.3396  0.0750
   13MOL     C4 5068   1.884   7.234   4.936  0.1763  0.8886  0.1047
   13MOL     C5 5069   1.728   7.223   4.924  0.9072  0.0059  0.5867
   13MOL     C6 5070   1.944   7.108   4.861 -0.6908  0.6821 -0.6242
   13MOL     C7 5071   1.910   7.210   5.083  0.9882 -0.3410  0.3921
   13MOL     H8 5072   2.263   7.281   4.747  0.2172  0.4950  0.0478
   13MOL     H9 5073   2.100   7.273   4.684  0.0770  0.8671 -1.7132
   13MOL    H10 5074   2.143   7.300   4.948 -2.3928 -0.4537  1.3011
   13MOL    H11 5075   1.912   7.385   4.776 -1.6793 -0.8432  0.2390
   13MOL    H12 5076   1.894   7.451   4.915 -0.2737  0.4715  0.2800
   13MOL    H13 5077   1.692   7.314   4.970  0.5929 -0.2020  0.7476
   13MOL    H14 5078   1.687   7.135   4.974  0.2653 -1.2781 -2.0571
   13MOL    H15 5079   1.709   7.227   4.817  0.9089  0.5966  0.6069
   13MOL    H16 5080   1.933   7.017   4.920 -1.3797  0.0694 -1.6772
   13MOL    H17 5081   1.905   7.105   4.759  0.7902  1.2081 -1.2142
   13MOL    H18 5082   2.053   7.112   4.855 -0.5401 -0.7506  0.9479
   13MOL    H19 5083   1.872   7.285   5.152  0.6795 -0.8399  0.7620
   13MOL    H20 5084   2.012   7.185   5.111  0.0380 -1.7215  2.7189
   13MOL    H21 5085   1.853   7.122   5.113 -0.2058  1.6464  4.2049
   13MOL    H22 5086   2.192   7.426   4.682 -0.6753  0.7045  1.3995
   13MOL    C23 5087   2.159   7.514   4.934  0.9317 -0.2324  0.2594
   13MOL    C24 5088   2.297   7.505   4.996 -0.7784  0.2705  0.1701
   13MOL    C25 5089   2.289   7.453   5.144  0.3566 -0.3798  0.7728
   13MOL    C26 5090   2.400   7.365   5.187  0.0326  0.8242  0.3282
   13MOL    C27 5091   2.400   7.231   5.115 -0.2782 -0.4705 -0.5374
   13MOL    C28 5092   2.537   7.423   5.171  0.0010  0.4778  0.3314
   13MOL    C29 5093   2.384   7.332   5.344  0.0429  0.4728 -0.3232
   13MOL    H30 5094   2.162   7.578   4.846 -0.5424 -1.3694 -0.6416
   13MOL    H31 5095   2.087   7.562   5.001  0.0119 -0.5246 -0.5086
   13MOL    H32 5096   2.350   7.428   4.939  0.1813  0.4062  0.8674
   13MOL    H33 5097   2.191   7.407   5.156 -0.2314  0.5869 -0.1727
   13MOL    H34 5098   2.275   7.539   5.209  2.8852  0.1237  0.7261
   13MOL    H35 5099   2.475   7.162   5.153  0.4213  0.2861 -0.5368
   13MOL    H36 5100   2.298   7.193   5.127 -0.3169 -0.5620 -1.1402
   13MOL    H37 5101   2.411   7.234   5.007 -0.2090 -2.1555 -0.5910
   13MOL    H38 5102   2.566   7.423   5.065 -0.9308 -0.8643  0.0583
   13MOL    H39 5103   2.536   7.526   5.205 -2.4280  0.9195 -0.9953
   13MOL    H40 5104   2.624   7.373   5.215 -0.5444 -3.1530 -2.4364
   13MOL    H41 5105   2.478   7.305   5.392  0.0113 -4.6617 -2.7947
   13MOL    H42 5106   2.313   7.252   5.362 -0.8687  1.1915 -0.7043
   13MOL    H43 5107   2.344   7.418   5.398  0.2082  1.1294 -1.2151
   13MOL    C44 5108   2.382   7.637   4.981 -0.0872 -0.9401  0.0033
   13MOL    C45 5109   2.441   7.673   4.836 -0.2075 -0.8378 -1.0147
   13MOL    C46 5110   2.543   7.568   4.788  0.2252  0.3577  0.2485
   13MOL    C47 5111   2.556   7.544   4.634  0.0052 -0.1397 -0.2036
   13MOL    C48 5112   2.426   7.484   4.567  1.1246 -0.5572  0.1822
   13MOL    C49 5113   2.661   7.432   4.617 -0.1119  0.3605  0.0917
   13MOL    C50 5114   2.599   7.669   4.563 -0.3382 -0.2929  0.4770
   13MOL    H51 5115   2.308   7.710   5.013  0.5604 -0.2623 -0.0354
   13MOL    H52 5116   2.462   7.648   5.054  0.6940  3.8858 -1.4340
   13MOL    H53 5117   2.366   7.680   4.758 -1.4022 -0.5424  0.1412
   13MOL    H54 5118   2.528   7.469   4.832 -0.7411  0.2435 -0.3376
   13MOL    H55 5119   2.638   7.598   4.832  0.3695  1.0404 -0.5204
   13MOL    H56 5120   2.389   7.405   4.632 -0.8951 -0.0198 -0.2606
   13MOL    H57 5121   2.446   7.434   4.472  0.0808  0.3845 -0.5495
   13MOL    H58 5122   2.347   7.559   4.560 -1.0321 -2.7422  0.3105
   13MOL    H59 5123   2.756   7.464   4.659 -0.5280  1.7662 -0.0341
   13MOL    H60 5124   2.638   7.335   4.662  0.3103  0.6669  0.9839
   13MOL    H61 5125   2.684   7.406   4.513  0.8356 -0.5164  0.5049
   13MOL    H62 5126   2.686   7.718   4.606  0.0100  1.8691 -2.5488
   13MOL    H63 5127   2.630   7.646   4.462  0.5484  1.2925  0.3723
   13MOL    H64 5128   2.512   7.736   4.561 -1.5078 -1.8381 -2.0489
   13MOL    C65 5129   2.508   0.052   4.855 -0.5839 -0.4273  0.2743
   13MOL    C66 5130   2.436   0.171   4.909  0.1638  0.1336  0.2080
   13MOL    C67 5131   2.310   0.208   4.828  0.3359  0.1537  0.1073
   13MOL    C68 5132   2.189   0.262   4.900 -0.1715  0.5025 -0.4108
   13MOL    C69 5133   2.150   0.179   5.024 -0.7575  0.3787  0.0801
   13MOL    C70 5134   2.201   0.407   4.939  0.0799  0.3349  0.0715
   13MOL    C71 5135   2.067   0.250   4.801 -0.0326 -0.5429  0.2504
   13MOL    H72 5136   2.602   0.028   4.904 -0.4716  0.3284  0.4417
   13MOL    H73 5137   2.533   0.082   4.753 -1.7129 -0.5882 -0.0611
   13MOL    H74 5138   2.399   0.159   5.011 -2.2666  0.9254 -0.5432
   13MOL    H75 5139   2.288   0.122   4.765 -2.1672  0.2996  0.7447
   13MOL    H76 5140   2.336   0.284   4.755  0.7753 -0.0937  0.0049
   13MOL    H77 5141   2.053   0.206   5.066 -0.4438 -1.8991  2.3347
   13MOL    H78 5142   2.143   0.073   5.002 -1.3067  0.7995 -1.9462
   13MOL    H79 5143   2.219   0.190   5.107 -0.8430 -2.7798  0.6299
   13MOL    H80 5144   2.214   0.464   4.847  0.2873  1.3143  0.6954
   13MOL    H81 5145   2.287   0.431   5.002 -0.4941  0.6057  0.7567
   13MOL    H82 5146   2.110   0.435   4.992 -0.7802  0.0109 -1.2176
   13MOL    H83 5147   2.091   0.297   4.705  0.5642 -2.9184 -0.8035
   13MOL    H84 5148   1.981   0.310   4.829  0.7643  0.4921  0.5032
   13MOL    H85 5149   2.045   0.145   4.781  3.4335 -1.0447 -1.3105
   13MOL    C86 5150   2.533   0.294   4.918 -0.1845 -0.9714  0.2459
   13MOL    C87 5151   2.645   0.293   5.026  0.3159 -0.8107 -0.6255
   13MOL    C88 5152   2.586   0.316   5.171  0.1267 -0.4622  0.4429
   13MOL    C89 5153   2.641   0.221   5.287  0.7789  0.2540  0.2449
   13MOL    C90 5154   2.572   0.081   5.268 -0.9879  0.0184 -0.1260
   13MOL    C91 5155   2.578   0.277   5.424 -0.3928  0.2267  0.3599
   13MOL    C92 5156   2.796   0.205   5.309 -0.7770  0.4979  0.7100
   13MOL    H93 5157   2.476   0.386   4.929  2.5083  1.1267 -2.1623
   13MOL    H94 5158   2.567   0.295   4.814 -0.5591  0.2877  0.1285
   13MOL    H95 5159   2.680   0.190   5.025  0.3665 -0.8435  2.0657
   13MOL    H96 5160   2.477   0.317   5.168  0.1408  2.1533 -0.8163
   13MOL    H97 5161   2.598   0.419   5.205 -0.5202 -0.4196  0.5445
   13MOL    H98 5162   2.465   0.094   5.248 -0.7981  2.0457  0.1158
   13MOL    H99 5163   2.582   0.015   5.354 -0.6321  0.7496  0.4033
   13MOL   H100 5164   2.612   0.020   5.188 -0.5760 -0.1153  0.1811
   13MOL   H101 5165   2.605   0.380   5.450  1.1506 -0.0039 -0.2767
   13MOL   H102 5166   2.470   0.279   5.411 -0.2624  2.8888 -0.7656
   13MOL   H103 5167   2.596   0.204   5.503  0.3548  0.2480  0.2155
   13MOL   H104 5168   2.838   0.152   5.223 -1.3125  1.1152  0.0587
   13MOL   H105 5169   2.832   0.308   5.321  1.5351 -0.2834  0.8644
   13MOL   H106 5170   2.831   0.149   5.396  0.1120  1.1776  0.7974
   13MOL   C107 5171   2.757   0.396   4.982 -0.5857 -0.3437 -0.2410
   13MOL   C108 5172   2.885   0.353   4.907 -0.2747  0.3238 -0.4339
   13MOL   C109 5173   2.999   0.339   5.010  0.4237  0.0883  0.3124
   13MOL   C110 5174   3.109   0.454   5.024 -0.6529 -0.2331 -0.0759
   13MOL   C111 5175   3.042   0.592   5.044 -0.6829  0.5745 -0.1574
   13MOL   C112 5176   3.185   0.463   4.897  0.3768 -0.4296 -0.5238
   13MOL   C113 5177   3.194   0.422   5.153  0.4874 -0.3287  0.6659
   13MOL   H114 5178   2.785   0.455   5.069 -0.3008 -0.6973 -0.0889
   13MOL   H115 5179   2.711   0.475   4.923  0.5988  0.6291  0.1130
   13MOL   H116 5180   2.904   0.446   4.853 -0.9659  0.9027  0.2991
   13MOL   H117 5181   2.960   0.319   5.110 -1.6427  1.6497 -0.1532
   13MOL   H118 5182   3.047   0.242   5.002 -0.7808 -0.4116 -1.2052
   13MOL   H119 5183   3.109   0.673   5.072  1.8708 -1.3974 -0.3690
   13MOL   H120 5184   2.984   0.626   4.958  1.0012  0.1645 -1.4842
   13MOL   H121 5185   2.968   0.598   5.124 -0.3081  1.2947  0.1408
   13MOL   H122 5186   3.257   0.544   4.904 -2.1073  1.7111  1.4666
   13MOL   H123 5187   3.133   0.474   4.801 -0.8467 -1.6412 -0.0175
   13MOL   H124 5188   3.245   0.373   4.887 -1.0734 -1.3165 -1.5712
   13MOL   H125 5189   3.254   0.332   5.137  1.2321 -0.0885  2.0371
   13MOL   H126 5190   3.140   0.408   5.247  1.0534  1.9011  1.3581
   13MOL   H127 5191   3.269   0.500   5.170 -1.8554  2.5749 -1.6199
   13MOL   C128 5192   2.870   0.234   4.815 -0.6830  0.6203 -0.4026
   13MOL   C129 5193   2.988   0.216   4.715  0.0737 -0.2685 -0.6599
   13MOL   C130 5194   2.987   0.059   4.674 -0.7591  0.4932  0.1123
   13MOL   C131 5195   3.087   7.724   4.731 -0.1587 -0.0074 -0.2143
   13MOL   C132 5196   3.021   7.590   4.741 -0.0036  0.0111  0.2537
   13MOL   C133 5197   3.139   7.765   4.867 -0.4474 -0.1418 -0.7561
   13MOL   C134 5198   3.207   7.711   4.637  0.4109 -0.4602  0.2383
   13MOL   H135 5199   2.777   0.258   4.763 -0.5915 -0.4252 -1.0668
   13MOL   H136 5200   2.857   0.143   4.874  1.3651 -0.9229 -2.2453
   13MOL   H137 5201   3.085   0.245   4.754 -0.6249 -1.7425  2.3212
   13MOL   H138 5202   2.884   0.029   4.692 -0.1256 -2.2865 -0.6949
   13MOL   H139 5203   2.997   0.033   4.568  2.6893  0.7771  0.3149
   13MOL   H140 5204   2.985   7.561   4.643  1.7685  1.0830 -0.7388
   13MOL   H141 5205   2.941   7.590   4.815 -0.1996 -0.9959  0.0528
   13MOL   H142 5206   3.091   7.517   4.783 -2.9106 -2.6316  0.7047
   13MOL   H143 5207   3.194   0.094   4.866 -1.2393  0.3858  1.3635
   13MOL   H144 5208   3.206   7.689   4.907  1.1880  0.8209 -1.5833
   13MOL   H145 5209   3.059   0.011   4.941 -0.2083  2.9151 -0.9241
   13MOL   H146 5210   3.255   0.039   4.610 -0.0899 -0.1746  0.3191
   13MOL   H147 5211   3.275   7.649   4.695 -0.7610 -2.6417 -0.6433
   13MOL   H148 5212   3.191   7.660   4.541 -2.7251 -1.4426  1.2089
   13MOL   C149 5213   2.964   0.289   4.583  0.5252 -0.4490 -0.6205
   13MOL   C150 5214   3.086   0.294   4.485  0.1790 -0.7725  0.7882
   13MOL   C151 5215   3.040   0.341   4.344  0.0011 -0.1532  0.2227
   13MOL   C152 5216   2.979   0.243   4.240 -0.8252  0.7580 -0.1344
   13MOL   C153 5217   2.947   0.312   4.105 -0.0867  0.0755  0.2171
   13MOL   C154 5218   2.851   0.181   4.291 -0.2316 -0.6669 -0.5722
   13MOL   C155 5219   3.071   0.128   4.208  0.1025  0.6397 -0.0146
   13MOL   H156 5220   2.931   0.391   4.600 -3.0665 -1.9600  2.0740
   13MOL   H157 5221   2.879   0.243   4.532 -0.8021  1.3592 -0.0824
   13MOL   H158 5222   3.130   0.196   4.464 -0.8629 -0.9217 -0.8619
   13MOL   H159 5223   3.121   0.381   4.283 -0.8109 -1.5716 -1.8721
   13MOL   H160 5224   2.969   0.423   4.352 -1.8265 -1.7465  0.5931
   13MOL   H161 5225   3.039   0.351   4.060  0.6091  1.0531  2.4281
   13MOL   H162 5226   2.903   0.250   4.027  2.4577 -0.7513 -0.6086
   13MOL   H163 5227   2.881   0.397   4.124  0.6920  0.5027  1.0312
   13MOL   H164 5228   2.779   0.149   4.216 -0.9709  0.0202 -0.1676
   13MOL   H165 5229   2.798   0.253   4.353  1.4950 -1.4037  1.8498
   13MOL   H166 5230   2.862   0.101   4.363  0.6626  0.7370  0.8877
   13MOL   H167 5231   3.104   0.062   4.288 -0.2615  1.4122  0.7831
   13MOL   H168 5232   3.025   0.067   4.131  2.4513 -0.6140 -0.4791
   13MOL   H169 5233   3.163   0.166   4.164 -0.3541  2.3284  0.4592
   13MOL   C170 5234   3.172   0.414   4.540  0.8116  0.8927  0.3280
   13MOL   C171 5235   3.302   0.453   4.454 -0.0280  0.3818 -0.1666
   13MOL   C172 5236   3.423   0.474   4.553 -0.1365  0.7363  0.1333
   13MOL   C173 5237   3.526   0.360   4.568  0.2860 -0.7681  0.5420
   13MOL   C174 5238   3.464   0.235   4.623 -0.2317  0.5056 -0.1215
   13MOL   C175 5239   3.641   0.407   4.657  0.5237 -0.5930  0.9187
   13MOL   C176 5240   3.592   0.320   4.435 -0.1169 -0.0340  0.4526
   13MOL   H177 5241   3.208   0.378   4.636  2.4127  0.4036 -0.4548
   13MOL   H178 5242   3.110   0.503   4.557 -1.1494 -0.4156  0.1693
   13MOL   H179 5243   3.321   0.375   4.380  0.3189  1.9738 -1.8080
   13MOL   H180 5244   3.482   0.554   4.508 -0.1627  0.2927 -0.6930
   13MOL   H181 5245   3.383   0.510   4.648  0.7852 -0.5564  1.0211
   13MOL   H182 5246   3.383   0.214   4.553 -0.4396 -2.6160  0.9678
   13MOL   H183 5247   3.523   0.144   4.634 -0.9562  0.0468  0.0027
   13MOL   H184 5248   3.413   0.245   4.719 -1.0749  0.2251 -0.5325
   13MOL   H185 5249   3.717   0.335   4.685  0.6621 -0.5416  0.6750
   13MOL   H186 5250   3.693   0.495   4.621 -0.8322 -0.6044 -1.1169
   13MOL   H187 5251   3.603   0.439   4.754 -0.0448  2.4579 -0.2611
   13MOL   H188 5252   3.515   0.298   4.360  0.5974  2.1847 -0.9877
   13MOL   H189 5253   3.641   0.405   4.389 -0.4999  0.0800  0.2526
   13MOL   H190 5254   3.656   0.232   4.441 -0.9280 -0.5149  2.4263
   13MOL   C191 5255   3.277   0.579   4.360 -0.7726 -0.2658 -0.3347
   13MOL   C192 5256   3.369   0.608   4.243  1.1368 -0.0315  0.3743
   13MOL   C193 5257   3.339   0.747   4.179  0.0534 -0.6364  0.2418
   13MOL   C194 5258   3.428   0.872   4.201 -0.0913  0.1284 -0.2081
   13MOL   C195 5259   3.460   0.903   4.347 -0.0095  0.0577  0.4621
   13MOL   C196 5260   3.355   1.002   4.152  0.3658 -0.1448  0.3811
   13MOL   C197 5261   3.566   0.858   4.137  0.3670  0.4308 -0.3517
   13MOL   H198 5262   3.171   0.587   4.334 -0.8039  1.0127  0.2028
   13MOL   H199 5263   3.307   0.662   4.423  2.1076 -1.0684 -0.5980
   13MOL   H200 5264   3.473   0.603   4.275  0.8336 -2.3412  1.0983
   13MOL   H201 5265   3.237   0.776   4.202  1.4038  3.7405  1.1757
   13MOL   H202 5266   3.343   0.722   4.073  1.2510 -0.0686  0.1423
   13MOL   H203 5267   3.499   0.814   4.395 -0.7110 -0.7104 -0.3563
   13MOL   H204 5268   3.539   0.978   4.346  0.1506 -0.1183 -1.1563
   13MOL   H205 5269   3.378   0.944   4.407  0.2690  0.9645  0.2390
   13MOL   H206 5270   3.261   1.024   4.204 -1.2085  0.3590 -2.5892
   13MOL   H207 5271   3.411   1.096   4.147  0.5830 -0.2902  0.0526
   13MOL   H208 5272   3.312   0.988   4.053 -0.6191 -0.2027  0.8065
   13MOL   H209 5273   3.622   0.776   4.181  0.2693  0.8124  0.5024
   13MOL   H210 5274   3.560   0.837   4.030 -0.6980 -1.2242  0.0122
   13MOL   H211 5275   3.629   0.947   4.142 -0.2518  0.9642 -1.6978
   13MOL   C212 5276   3.359   0.501   4.128  0.1385 -0.1322 -0.4310
   13MOL   C213 5277   3.469   0.509   4.016  0.0080  0.9597 -0.3096
   13MOL   C214 5278   3.418   0.408   3.903  0.3817 -0.3838 -0.5641
   13MOL   C215 5279   3.375   0.476   3.766  0.0109 -0.3256 -0.1342
   13MOL   C216 5280   3.262   0.591   3.779 -0.2450  0.2500  0.8926
   13MOL   C217 5281   3.497   0.528   3.698 -0.6035 -0.4382 -0.2834
   13MOL   C218 5282   3.312   0.371   3.680 -0.0312  0.5028 -0.2126
   13MOL   H219 5283   3.361   0.400   4.169 -1.2498  0.1793  0.4461
   13MOL   H220 5284   3.261   0.510   4.081 -0.2981  1.3738  0.7125
   13MOL   H221 5285   3.469   0.609   3.972  2.3806  1.2492  0.3018
   13MOL   H222 5286   3.338   0.347   3.945  1.3513 -1.2507  0.0535
   13MOL   H223 5287   3.499   0.338   3.887  2.8266  1.3114  3.5836
   13MOL   H224 5288   3.211   0.616   3.686  2.1180 -2.5513 -1.2559
   13MOL   H225 5289   3.321   0.677   3.810  0.5535 -0.1537  0.5428
   13MOL   H226 5290   3.187   0.566   3.853  0.1550  0.1100  1.2520
   13MOL   H227 5291   3.566   0.454   3.656  0.3370 -0.2010  0.8167
   13MOL   H228 5292   3.459   0.595   3.621 -1.2589 -1.2013 -0.6299
   13MOL   H229 5293   3.545   0.600   3.764 -0.5786 -1.8314  1.2503
   13MOL   H230 5294   3.304   0.396   3.574  1.0546 -0.4165 -0.5210
   13MOL   H231 5295   3.205   0.361   3.698 -0.0476 -0.9410 -0.9993
   13MOL   H232 5296   3.354   0.271   3.694 -0.0405  0.2936 -1.5889
   13MOL   C233 5297   3.606   0.453   4.076 -0.2188  0.5225 -0.9557
   13MOL   C234 5298   3.743   0.448   4.003  0.3444  0.0930  0.4124
   13MOL   C235 5299   3.781   0.592   3.970 -0.3331 -0.7522  0.0869
   13MOL   C236 5300   3.898   0.621   3.866 -0.2752 -0.3856 -0.8817
   13MOL   C237 5301   4.039   0.612   3.929 -0.4848 -0.0198 -0.3633
   13MOL   C238 5302   3.888   0.530   3.738 -0.2782  0.3132 -0.1427
   13MOL   C239 5303   3.888   0.763   3.810  0.2908  0.8815 -0.4519
   13MOL   H240 5304   3.576   0.354   4.109 -0.0873  0.7191 -0.2337
   13MOL   H241 5305   3.627   0.507   4.168  0.9047 -1.1705 -0.2061
   13MOL   H242 5306   3.724   0.390   3.912 -0.5303 -2.2921  2.0719
   13MOL   H243 5307   3.697   0.654   3.939  1.0721  1.0767 -0.1308
   13MOL   H244 5308   3.805   0.636   4.066 -1.7122 -1.8911  0.9754
   13MOL   H245 5309   4.078   0.511   3.918 -0.3021 -0.0343  0.3925
   13MOL   H246 5310   4.044   0.630   4.037 -1.0024  0.0889 -0.3526
   13MOL   H247 5311   4.118   0.671   3.884 -1.0666 -0.0656 -1.4614
   13MOL   H248 5312   3.971   0.548   3.671 -0.6656 -0.7032 -0.9158
   13MOL   H249 5313   3.883   0.421   3.750  0.3794  0.1846 -1.0355
   13MOL   H250 5314   3.795   0.550   3.685  0.5137  2.6317 -0.6911
   13MOL   H251 5315   3.954   0.777   3.725  1.0395 -3.6152 -0.6946
   13MOL   H252 5316   3.787   0.788   3.776  0.2125 -0.4344 -1.1923
   13MOL   H253 5317   3.919   0.838   3.883  2.4590 -0.0171 -0.4208
   13MOL   C254 5318   3.854   0.366   4.074 -0.2337 -0.6986  0.6950
   13MOL   C255 5319   3.818   0.216   4.105 -1.0534 -0.1698  0.5077
   13MOL   C256 5320   3.948   0.134   4.140  0.5314 -1.0292  0.0150
   13MOL   C257 5321   4.029   0.149   4.264 -0.5451 -0.8177 -0.2140
   13MOL   C258 5322   3.936   0.180   4.387 -0.4339  0.2558  0.3319
   13MOL   C259 5323   4.138   0.261   4.253 -0.6393  0.7698  0.1338
   13MOL   C260 5324   4.115   0.022   4.295  0.3224  0.4915  0.0964
   13MOL   H261 5325   3.895   0.412   4.164 -0.1082 -0.3840  0.4799
   13MOL   H262 5326   3.939   0.358   4.006 -0.1538 -1.1510  0.8479
   13MOL   H263 5327   3.748   0.215   4.189 -1.9687  0.3657 -0.2319
   13MOL   H264 5328   3.902   0.038   4.163  0.9394 -0.8658  1.5913
   13MOL   H265 5329   4.017   0.122   4.057  0.8090  4.0684 -0.6705
   13MOL   H266 5330   3.858   0.106   4.408 -0.9864  0.5921 -0.5157
   13MOL   H267 5331   3.879   0.272   4.373 -2.4146 -1.0072 -0.1585
   13MOL   H268 5332   3.999   0.183   4.476 -0.3566 -1.4453  0.3456
   13MOL   H269 5333   4.096   0.352   4.211 -2.6008 -0.6077 -0.9641
   13MOL   H270 5334   4.208   0.238   4.173 -2.6028 -0.4509 -1.2513
   13MOL   H271 5335   4.187   0.273   4.350 -3.4523  0.7275  1.6021
   13MOL   H272 5336   4.163   0.022   4.392 -2.2155 -0.1421  1.4017
   13MOL   H273 5337   4.052   7.701   4.279  1.2830 -0.1940  0.0112
   13MOL   H274 5338   4.198   0.014   4.225  0.1189 -1.9886  0.1039
   13MOL   C275 5339   3.756   0.140   3.983 -0.3991  0.4321  0.5019
   13MOL   C276 5340   3.682   0.004   4.008 -0.2596  0.1649  0.3831
   13MOL   C277 5341   3.553   0.023   4.100 -0.2969  0.1618  0.2074
   13MOL   C278 5342   3.522   7.688   4.212 -1.0469 -0.2122  0.2049
   13MOL   C279 5343   3.499   7.543   4.164 -0.5558  0.1903 -0.0230
   13MOL   C280 5344   3.632   7.685   4.318 -0.4634  0.3052  0.3325
   13MOL   C281 5345   3.389   7.727   4.278 -0.2293  0.4029  0.2588
   13MOL   H282 5346   3.686   0.197   3.923 -1.6042 -2.1366 -0.6277
   13MOL   H283 5347   3.840   0.138   3.912 -1.4070  1.1128 -0.7296
   13MOL   H284 5348   3.748   7.701   4.062  0.3378 -0.1529 -0.7478
   13MOL   H285 5349   3.471   0.035   4.029 -0.7001  1.8998  0.9531
   13MOL   H286 5350   3.560   0.116   4.156  1.8729  0.6581 -0.8058
   13MOL   H287 5351   3.449   7.481   4.238  0.5565 -1.1610 -0.3790
   13MOL   H288 5352   3.440   7.541   4.073  1.0697  0.9510 -1.1259
   13MOL   H289 5353   3.591   7.496   4.128 -0.9995  0.4564 -1.5454
   13MOL   H290 5354   3.731   7.657   4.282 -0.9721  1.5430 -2.0939
   13MOL   H291 5355   3.613   7.621   4.405  1.0799 -0.8763 -0.1614
   13MOL   H292 5356   3.637   0.013   4.373  0.5411  1.0201 -0.9608
   13MOL   H293 5357   3.386   0.068   4.301 -1.9281  0.1538  1.3429
   13MOL   H294 5358   3.356   7.678   4.369 -0.1989  0.7650  0.4675
   13MOL   H295 5359   3.310   7.715   4.203  0.8091  0.8079 -0.9158
   13MOL   C296 5360   3.645   7.715   3.866  0.0191 -0.5574 -0.7192
   13MOL   C297 5361   3.755   7.679   3.771  0.6468 -0.7996  0.6806
   13MOL   C298 5362   3.701   7.678   3.625 -0.5766  0.2019 -0.9294
   13MOL   C299 5363   3.718   0.034   3.543  0.1099 -0.2822 -0.3180
   13MOL   C300 5364   3.647   0.000   3.407  0.0348 -0.1047 -0.5131
   13MOL   C301 5365   3.649   0.154   3.599 -0.3510 -0.5162 -0.1066
   13MOL   C302 5366   3.862   0.070   3.518 -0.0651 -0.1800 -0.0094
   13MOL   H303 5367   3.569   0.009   3.815 -0.5477  0.0243  0.7876
   13MOL   H304 5368   3.583   7.627   3.888 -2.4688  1.6649  1.4972
   13MOL   H305 5369   3.828   7.760   3.762 -2.8533  2.3875 -0.3258
   13MOL   H306 5370   3.596   7.650   3.632 -0.9614  1.6934 -0.4495
   13MOL   H307 5371   3.753   7.594   3.580 -0.8879 -1.4712  1.6926
   13MOL   H308 5372   3.687   7.677   3.358  1.7090 -0.5254  1.5353
   13MOL   H309 5373   3.541   7.744   3.415  0.6627 -3.0143  0.4193
   13MOL   H310 5374   3.657   0.086   3.340  3.7671  1.6534  2.1532
   13MOL   H311 5375   3.546   0.126   3.623  0.1302 -1.0650  1.4005
   13MOL   H312 5376   3.700   0.192   3.688 -1.1611  0.1255  0.0980
   13MOL   H313 5377   3.654   0.238   3.529 -0.3423 -0.9078 -0.5772
   13MOL   H314 5378   3.926   0.101   3.601  0.3584 -1.4724  0.1514
   13MOL   H315 5379   3.914   7.766   3.453  1.2120  2.1273 -1.5666
   13MOL   H316 5380   3.859   0.160   3.456  0.4819 -0.3922 -0.3473
   13MOL   C317 5381   3.824   7.550   3.816 -0.1005  0.0102 -0.1349
   13MOL   C318 5382   3.976   7.554   3.830 -0.4125 -0.1042  0.0105
   13MOL   C319 5383   4.031   7.410   3.874  0.4829  0.2136  0.1344
   13MOL   C320 5384   4.044   7.371   4.028 -0.2799 -0.5883 -0.3836
   13MOL   C321 5385   4.160   7.428   4.099  0.2876  0.0054  0.4752
   13MOL   C322 5386   4.053   7.217   4.033  0.0792 -0.2542  0.7348
   13MOL   C323 5387   3.925   7.413   4.105  0.1520 -0.4044 -0.5978
   13MOL   H324 5388   3.780   7.530   3.914 -1.8726 -0.8647 -1.0817
   13MOL   H325 5389   3.788   7.470   3.752 -0.3281  0.1626 -0.1999
   13MOL   H326 5390   4.007   7.626   3.906  2.5005 -1.1685 -0.0819
   13MOL   H327 5391   4.137   7.399   3.852  0.3780  1.0991 -0.8527
   13MOL   H328 5392   3.970   7.336   3.822 -0.2924  1.0536 -0.1695
   13MOL   H329 5393   4.171   7.410   4.206 -1.7337  0.4616  0.7782
   13MOL   H330 5394   4.159   7.536   4.087  1.2515 -0.4228 -4.5942
   13MOL   H331 5395   4.246   7.388   4.047  1.2662  2.0153  0.5031
   13MOL   H332 5396   3.969   7.169   3.983  1.8802 -2.4753 -0.2732
   13MOL   H333 5397   4.139   7.185   3.974  0.9874 -0.3527  2.1052
   13MOL   H334 5398   4.068   7.181   4.134 -0.8132 -1.5221  0.4182
   13MOL   H335 5399   3.908   7.521   4.109  1.6290 -0.0873 -2.5623
   13MOL   H336 5400   3.917   7.387   4.211  0.0429 -0.4504 -0.6170
   13MOL   H337 5401   3.832   7.379   4.058  1.5108 -3.2050 -1.3388
   13MOL   C338 5402   4.043   7.594   3.696 -0.3310 -0.4537  0.1387
   13MOL   C339 5403   4.192   7.647   3.696 -0.2779  0.2425 -0.0168
   13MOL   C340 5404   4.204   0.024   3.751  0.3517 -0.0287  0.1859
   13MOL   C341 5405   4.327   0.059   3.849 -0.1994 -0.1394 -0.2173
   13MOL   C342 5406   4.314   7.747   3.976 -0.5440  0.3556 -0.4879
   13MOL   C343 5407   4.463   0.030   3.774  0.0614 -0.1062  0.4135
   13MOL   C344 5408   4.319   0.211   3.881 -0.0587 -0.4586  0.1692
   13MOL   H345 5409   3.993   7.667   3.632  2.5912  0.9986 -0.5845
   13MOL   H346 5410   4.034   7.498   3.644 -2.0400 -0.2522  0.0309
   13MOL   H347 5411   4.240   7.582   3.769 -1.8092 -0.2567  0.5637
   13MOL   H348 5412   4.112   0.051   3.802  1.1170 -0.0552  1.6028
   13MOL   H349 5413   4.216   0.088   3.664  2.6868  0.1979  0.6356
   13MOL   H350 5414   4.222   0.017   4.023 -1.6143  1.4476 -3.3024
   13MOL   H351 5415   4.300   7.639   3.969 -2.1096  0.4956  0.2170
   13MOL   H352 5416   4.398   7.764   4.044 -0.4150  0.9260 -0.7814
   13MOL   H353 5417   4.465   0.075   3.675 -0.5993 -1.1052 -0.0706
   13MOL   H354 5418   4.552   0.070   3.822  2.1288 -3.7434 -0.1925
   13MOL   H355 5419   4.484   7.689   3.768  0.5523  0.0210 -0.1270
   13MOL   H356 5420   4.325   0.263   3.786 -0.6226 -1.9815 -0.7257
   13MOL   H357 5421   4.220   0.237   3.918  1.5554  1.3705  3.4126
   13MOL   H358 5422   4.391   0.257   3.948 -0.2760 -1.5309  1.1617
   13MOL   C359 5423   4.254   7.626   3.560 -0.5267  0.1578  0.4938
   13MOL   C360 5424   4.291   7.476   3.523 -0.4308 -0.5616 -0.5867
   13MOL   C361 5425   4.422   7.431   3.602 -0.3777 -0.1768  1.1495
   13MOL   C362 5426   4.441   7.277   3.626  0.4461  0.0908 -0.3609
   13MOL   C363 5427   4.547   7.227   3.530 -0.4224  0.2344 -0.1811
   13MOL   C364 5428   4.308   7.196   3.612 -0.8254  0.7173 -0.1872
   13MOL   C365 5429   4.489   7.259   3.778  0.3670  0.5139 -0.2977
   13MOL   H366 5430   4.344   7.688   3.560 -1.3634  1.3822  0.5597
   13MOL   H367 5431   4.176   7.659   3.492 -0.1898 -1.9308 -0.9656
   13MOL   H368 5432   4.202   7.422   3.557 -0.8381 -0.5980 -1.7151
   13MOL   H369 5433   4.510   7.473   3.552 -2.0499 -0.8458 -2.5857
   13MOL   H370 5434   4.433   7.485   3.695 -2.2633 -1.2846  2.0377
   13MOL   H371 5435   4.518   7.244   3.426  0.1906  1.6152 -0.1452
   13MOL   H372 5436   4.638   7.284   3.551 -1.2167  0.5681  2.4380
   13MOL   H373 5437   4.564   7.122   3.551  2.7444  1.0678  1.6991
   13MOL   H374 5438   4.245   7.209   3.525 -2.5092 -0.8021  0.7848
   13MOL   H375 5439   4.236   7.230   3.687 -0.7787  0.4667 -0.0276
   13MOL   H376 5440   4.338   7.093   3.631  0.4083  0.7698 -1.7504
   13MOL   H377 5441   4.581   7.316   3.790  1.0448 -0.6048 -0.0335
   13MOL   H378 5442   4.513   7.153   3.786 -0.5239  0.2736 -0.7918
   13MOL   H379 5443   4.408   7.285   3.846 -2.5073 -3.4981 -2.0168
   13MOL   C380 5444   4.286   7.435   3.374  0.2272 -0.0053 -0.3782
   13MOL   C381 5445   4.172   7.496   3.285  0.0356  0.6421 -0.2407
   13MOL   C382 5446   4.126   7.392   3.177 -0.2655 -0.3495  0.5744
   13MOL   C383 5447   3.992   7.308   3.209  0.2335  0.5607 -0.0134
   13MOL   C384 5448   3.865   7.396   3.232  0.3118  0.0007 -0.1212
   13MOL   C385 5449   4.020   7.241   3.349 -0.7684  0.7232  0.3733
   13MOL   C386 5450   3.966   7.205   3.097  0.0268 -0.1411  0.0384
   13MOL   H387 5451   4.293   7.327   3.363  0.0790 -0.0711  0.1830
   13MOL   H388 5452   4.382   7.471   3.336 -0.3319  1.9489 -0.0042
   13MOL   H389 5453   4.091   7.509   3.356 -0.1184  0.3570 -0.3627
   13MOL   H390 5454   4.107   7.437   3.079  0.8772 -1.6883 -0.2703
   13MOL   H391 5455   4.203   7.318   3.158  1.4779  1.8001 -1.1258
   13MOL   H392 5456   3.797   7.323   3.276  0.1174  0.6227  0.6297
   13MOL   H393 5457   3.877   7.473   3.308  0.2393  1.4436 -1.5438
   13MOL   H394 5458   3.820   7.441   3.143  2.3951  2.3154 -0.0712
   13MOL   H395 5459   4.110   7.180   3.343 -1.8560 -0.8336 -0.5313
   13MOL   H396 5460   3.935   7.183   3.386 -0.1175 -0.3286  0.2329
   13MOL   H397 5461   4.029   7.317   3.426 -1.4184 -0.3706  1.5645
   13MOL   H398 5462   4.057   7.147   3.084 -0.1519 -0.4126  0.0107
   13MOL   H399 5463   3.943   7.257   3.004 -1.2434  0.2064  0.5379
   13MOL   H400 5464   3.882   7.142   3.122 -1.9829  1.3531 -2.7097
   13MOL   C401 5465   4.222   7.632   3.223  0.7784 -0.7056 -0.6295
   13MOL   C402 5466   4.112   7.721   3.157  0.2014  0.2192  0.4129
   13MOL   C403 5467   4.160   0.089   3.113 -0.5003  0.1636  0.5435
   13MOL   C404 5468   4.059   0.191   3.049  0.8598  0.2488 -0.1501
   13MOL   C405 5469   3.978   0.126   2.938  0.7638  0.0775 -0.2337
   13MOL   C406 5470   4.128   0.312   2.989  0.0689 -0.7541  0.1206
   13MOL   C407 5471   3.963   0.239   3.166 -0.2351 -0.0069  0.4072
   13MOL   H408 5472   4.286   7.690   3.290 -1.5901  0.9212  0.2829
   13MOL   H409 5473   4.291   7.608   3.142  2.2144  1.5893 -0.1247
   13MOL   H410 5474   4.066   7.663   3.077 -0.6557  0.4232  0.7529
   13MOL   H411 5475   4.237   0.094   3.036  2.0787 -0.2290  3.0460
   13MOL   H412 5476   4.222   0.139   3.187  0.1034 -1.0374  0.8539
   13MOL   H413 5477   3.908   0.199   2.897 -0.9822 -0.5128  1.5807
   13MOL   H414 5478   3.915   0.044   2.975  0.3512  1.0468  1.2175
   13MOL   H415 5479   4.037   0.092   2.853 -1.6724  0.3458 -2.0903
   13MOL   H416 5480   4.067   0.386   2.938  0.4663 -1.6724 -1.7400
   13MOL   H417 5481   4.192   0.273   2.910  1.9437  2.3732  0.0449
   13MOL   H418 5482   4.182   0.351   3.075 -0.3533 -1.4001  0.6871
   13MOL   H419 5483   3.880   0.292   3.118  0.1926 -1.7953 -2.4189
   13MOL   H420 5484   3.923   0.153   3.218  0.2521 -0.3763  0.1649
   13MOL   H421 5485   4.000   0.305   3.244  2.1422 -0.9094  0.0715
   13MOL   H422 5486   4.028   7.726   3.226  0.7054  1.3463  0.9451
   14MOL     C1 5487   7.714   6.490   4.068  0.1937 -0.5399  0.5016
   14MOL     C2 5488   0.075   6.454   4.159 -0.0277  0.3328 -0.1081
   14MOL     C3 5489   0.042   6.472   4.310 -0.0295  0.2353  0.2259
   14MOL     C4 5490   0.087   6.377   4.420  0.3180 -0.0885  0.2620
   14MOL     C5 5491   0.038   6.440   4.555  0.3703  0.7563 -0.3012
   14MOL     C6 5492   0.038   6.229   4.401  0.5464 -0.5611 -0.3029
   14MOL     C7 5493   0.242   6.377   4.432  0.5661 -0.3390 -0.1477
   14MOL     H8 5494   7.626   6.430   4.092 -0.7205  0.2651 -0.7479
   14MOL     H9 5495   7.692   6.596   4.078 -1.9442 -0.8670 -0.3695
   14MOL    H10 5496   0.081   6.346   4.143 -2.1162  0.1199  0.2813
   14MOL    H11 5497   7.704   6.493   4.332 -0.4854 -0.7467 -0.9725
   14MOL    H12 5498   0.090   6.564   4.345 -0.1939 -0.3461  2.0473
   14MOL    H13 5499   0.046   6.548   4.568 -1.3733  0.6203  2.2286
   14MOL    H14 5500   0.086   6.388   4.638 -0.7360  0.8431  0.3920
   14MOL    H15 5501   7.697   6.434   4.571  0.5391  2.4113  1.6016
   14MOL    H16 5502   7.696   6.213   4.399  0.6876 -1.5411 -0.6322
   14MOL    H17 5503   0.079   6.195   4.305  1.2628 -0.2053 -0.1271
   14MOL    H18 5504   0.070   6.173   4.489  1.0840 -0.6797 -0.5672
   14MOL    H19 5505   0.277   6.313   4.513  0.6578  0.2957  0.3137
   14MOL    H20 5506   0.291   6.474   4.431 -0.1355  0.0213 -0.8634
   14MOL    H21 5507   0.273   6.323   4.342  1.8094 -0.8140  0.5573
   14MOL    H22 5508   7.735   6.472   3.962 -1.0762 -1.6969  0.4211
   14MOL    C23 5509   0.212   6.526   4.127  0.3179 -0.0271 -0.3829
   14MOL    C24 5510   0.274   6.473   3.984  0.4773 -0.7589 -0.1849
   14MOL    C25 5511   0.336   6.334   4.002 -0.1112 -1.0088 -1.0009
   14MOL    C26 5512   0.319   6.233   3.883  0.1794  0.6668 -0.4468
   14MOL    C27 5513   0.392   6.280   3.758 -0.2343  0.2109  0.4091
   14MOL    C28 5514   0.382   6.106   3.926  0.5922  0.0552  0.5751
   14MOL    C29 5515   0.164   6.208   3.866 -0.4039  0.1527 -0.3756
   14MOL    H30 5516   0.182   6.631   4.123  0.6571  0.0127 -1.9055
   14MOL    H31 5517   0.284   6.519   4.208  0.1070 -1.7045 -0.3137
   14MOL    H32 5518   0.190   6.467   3.915  0.6998  0.2052 -0.5498
   14MOL    H33 5519   0.294   6.293   4.094  0.1228  1.3263  0.1677
   14MOL    H34 5520   0.438   6.342   4.040 -0.7893 -0.5114  0.7158
   14MOL    H35 5521   0.492   6.313   3.785 -0.1272  0.6353 -0.4667
   14MOL    H36 5522   0.401   6.199   3.685  0.0364  1.0970 -0.5563
   14MOL    H37 5523   0.351   6.371   3.713  1.6499  0.9332  0.1057
   14MOL    H38 5524   0.488   6.126   3.943 -0.0889  3.0457  1.5619
   14MOL    H39 5525   0.332   6.053   4.007 -1.6513  0.8427 -0.2398
   14MOL    H40 5526   0.361   6.040   3.842  0.1167 -0.6838  1.2681
   14MOL    H41 5527   0.151   6.105   3.836 -0.5860  0.4272 -1.2393
   14MOL    H42 5528   0.120   6.268   3.786 -0.7461 -1.8978 -1.7435
   14MOL    H43 5529   0.112   6.221   3.961  2.4197 -0.4002  1.3105
   14MOL    C44 5530   0.363   6.588   3.937 -0.6565 -0.2004  0.0119
   14MOL    C45 5531   0.291   6.703   3.861  0.1212 -0.0497 -0.5636
   14MOL    C46 5532   0.262   6.665   3.713  0.5166  0.1683  0.0319
   14MOL    C47 5533   0.130   6.723   3.649 -0.0927  0.7777 -0.1147
   14MOL    C48 5534   0.127   6.670   3.506 -0.2824 -0.2430 -0.1994
   14MOL    C49 5535   0.137   6.875   3.652  0.1167  0.8469 -0.0140
   14MOL    C50 5536   0.005   6.663   3.721 -0.7593 -0.0641  0.4848
   14MOL    H51 5537   0.423   6.624   4.020 -0.2271 -1.7185  0.3726
   14MOL    H52 5538   0.442   6.539   3.879 -0.5437  1.0211 -0.8742
   14MOL    H53 5539   0.200   6.720   3.920  0.6654 -0.9846  0.5552
   14MOL    H54 5540   0.263   6.558   3.689  0.6381  0.0218  0.6716
   14MOL    H55 5541   0.350   6.698   3.658  0.3954  0.8249  0.2364
   14MOL    H56 5542   0.033   6.698   3.458 -0.7030 -0.6230  0.3995
   14MOL    H57 5543   0.123   6.561   3.516 -1.4941 -0.0096  2.0220
   14MOL    H58 5544   0.210   6.702   3.443  0.0632 -0.1936  0.2782
   14MOL    H59 5545   0.132   6.907   3.756 -0.3008  0.7697 -0.0078
   14MOL    H60 5546   0.226   6.915   3.604 -1.1409  2.1734 -1.2863
   14MOL    H61 5547   0.052   6.914   3.595 -1.3743 -0.4078  1.2917
   14MOL    H62 5548   7.676   6.683   3.671 -2.0866 -1.7139  2.2683
   14MOL    H63 5549   0.019   6.555   3.718 -2.4831 -0.3260  1.1408
   14MOL    H64 5550   7.755   6.694   3.824 -4.0690  0.2014 -0.0422
   14MOL    C65 5551   0.386   6.825   3.868  0.6068 -0.0729 -0.9180
   14MOL    C66 5552   0.390   6.899   4.002 -0.0368  0.0180 -0.3157
   14MOL    C67 5553   0.274   7.003   4.016 -0.3183  0.0088 -0.0564
   14MOL    C68 5554   0.285   7.143   3.954  0.2305 -0.5308  0.2127
   14MOL    C69 5555   0.141   7.205   3.956  0.5088 -0.0743 -0.4394
   14MOL    C70 5556   0.372   7.232   4.032  0.0358 -0.6304 -0.1410
   14MOL    C71 5557   0.321   7.154   3.808  0.3115 -0.0200 -0.3994
   14MOL    H72 5558   0.485   6.800   3.828  0.6565 -0.4470 -0.5638
   14MOL    H73 5559   0.355   6.892   3.788  2.1909  2.9945  0.9480
   14MOL    H74 5560   0.378   6.819   4.075 -2.9073  1.1954  0.5619
   14MOL    H75 5561   0.255   7.013   4.123  1.7181 -0.8447  0.4048
   14MOL    H76 5562   0.184   6.954   3.978 -1.4801 -0.1469  2.7412
   14MOL    H77 5563   0.109   7.217   4.059 -1.0215  2.5323 -1.1768
   14MOL    H78 5564   0.134   7.310   3.925 -1.7948 -0.5117 -1.4346
   14MOL    H79 5565   0.068   7.151   3.896  1.6935 -1.9912 -0.1731
   14MOL    H80 5566   0.360   7.219   4.139  1.3238  2.7272  0.4891
   14MOL    H81 5567   0.345   7.337   4.022  0.0492 -0.7435 -1.3871
   14MOL    H82 5568   0.478   7.221   4.008  0.3332 -2.0518  1.6796
   14MOL    H83 5569   0.424   7.124   3.790  0.8119  0.6472  1.2186
   14MOL    H84 5570   0.307   7.257   3.774 -0.9255 -0.3581 -0.9498
   14MOL    H85 5571   0.256   7.090   3.748  0.2753  0.6059 -1.0444
   14MOL    C86 5572   0.534   6.949   4.044 -0.2418 -0.4314 -0.2891
   14MOL    C87 5573   0.636   6.850   4.099  0.1256 -0.4359  0.7472
   14MOL    C88 5574   0.705   6.868   4.239 -0.3625  0.1721 -0.0620
   14MOL    C89 5575   0.609   6.860   4.367 -0.6002 -0.6744  0.4241
   14MOL    C90 5576   0.576   6.715   4.398  0.3867 -0.5214 -0.2207
   14MOL    C91 5577   0.480   6.945   4.362  0.6379 -0.0090 -0.6618
   14MOL    C92 5578   0.690   6.924   4.482  0.0922 -0.2853 -0.5114
   14MOL    H93 5579   0.518   7.033   4.111 -0.4665 -0.1549 -0.6865
   14MOL    H94 5580   0.570   7.007   3.959 -1.1517  1.1302  0.3662
   14MOL    H95 5581   0.598   6.748   4.101 -0.5696 -0.2754 -1.8498
   14MOL    H96 5582   0.766   6.958   4.241  1.1357 -0.8354  0.4326
   14MOL    H97 5583   0.782   6.791   4.249  0.5345  1.2041  1.1003
   14MOL    H98 5584   0.525   6.696   4.492 -2.4354  0.7110 -1.4407
   14MOL    H99 5585   0.656   6.641   4.387  0.6472  0.0870 -2.8825
   14MOL   H100 5586   0.492   6.701   4.330 -0.7821  0.6944  0.9457
   14MOL   H101 5587   0.506   7.046   4.330  1.2473  0.2349  0.6019
   14MOL   H102 5588   0.405   6.902   4.296  0.0090  1.4008 -0.8903
   14MOL   H103 5589   0.441   6.952   4.463  2.5374 -2.9072  0.3342
   14MOL   H104 5590   0.687   7.033   4.488  1.1790 -0.2311 -1.0176
   14MOL   H105 5591   0.647   6.900   4.580 -0.3107  0.7720 -0.4173
   14MOL   H106 5592   0.796   6.901   4.482  0.2598  0.4594  0.1732
   14MOL   C107 5593   0.747   6.838   3.993 -0.4898  0.4386  0.5180
   14MOL   C108 5594   0.848   6.724   3.995  0.2603 -0.4834  0.3297
   14MOL   C109 5595   0.784   6.588   3.951 -0.1138  0.1840  0.3226
   14MOL   C110 5596   0.820   6.454   4.020  0.3727  0.1063  0.0793
   14MOL   C111 5597   0.967   6.443   4.045 -0.7912  0.9601 -0.5410
   14MOL   C112 5598   0.763   6.335   3.942 -0.3329  0.4348  0.2906
   14MOL   C113 5599   0.749   6.451   4.155 -0.5905  0.1195 -0.0918
   14MOL   H114 5600   0.813   6.924   4.009  0.8743 -0.5096  0.0547
   14MOL   H115 5601   0.707   6.847   3.892  1.3338 -1.3772 -0.3915
   14MOL   H116 5602   0.882   6.718   4.098 -1.0996 -2.1451  0.6870
   14MOL   H117 5603   0.676   6.590   3.970 -0.2438 -1.7764 -0.0318
   14MOL   H118 5604   0.786   6.572   3.843 -0.0694  1.1269  0.1825
   14MOL   H119 5605   0.976   6.352   4.103 -2.7591  0.9127 -0.2776
   14MOL   H120 5606   1.030   6.444   3.955 -1.0331 -0.2085 -0.7216
   14MOL   H121 5607   1.007   6.523   4.107 -1.6117  1.1179 -0.2092
   14MOL   H122 5608   0.816   6.333   3.847  0.1078 -1.5269  0.5359
   14MOL   H123 5609   0.654   6.339   3.939 -0.3143 -0.1715 -1.4611
   14MOL   H124 5610   0.785   6.247   4.004 -1.9242  0.7738  1.3713
   14MOL   H125 5611   0.640   6.446   4.146 -0.6004  1.5144 -0.8929
   14MOL   H126 5612   0.775   6.546   4.200 -0.7691 -0.1469  0.5801
   14MOL   H127 5613   0.778   6.374   4.227  0.6824  0.6050 -0.0882
   14MOL   C128 5614   0.967   6.763   3.901 -0.0825 -0.2665 -0.0307
   14MOL   C129 5615   1.081   6.860   3.956  0.7463  0.5396 -0.7049
   14MOL   C130 5616   1.161   6.795   4.075  0.9497  0.2896 -0.4212
   14MOL   C131 5617   1.210   6.890   4.190  0.2447  0.0765 -0.2343
   14MOL   C132 5618   1.286   6.808   4.294 -0.1018 -0.0449 -0.1674
   14MOL   C133 5619   1.082   6.941   4.270 -0.2586 -0.2123  0.5449
   14MOL   C134 5620   1.295   7.004   4.142  0.2875 -0.3944 -0.5020
   14MOL   H135 5621   0.928   6.806   3.809 -1.0392  1.3539  1.1048
   14MOL   H136 5622   1.016   6.670   3.871 -3.7606 -1.3221 -3.0921
   14MOL   H137 5623   1.036   6.951   3.996  0.8985  0.5402 -0.5355
   14MOL   H138 5624   1.090   6.723   4.115 -0.0131  2.4343  1.8437
   14MOL   H139 5625   1.238   6.727   4.039  0.5314 -0.0152 -0.7513
   14MOL   H140 5626   1.247   6.712   4.328  0.3771 -0.8907 -1.9469
   14MOL   H141 5627   1.303   6.867   4.384 -1.5726  0.6420 -0.3389
   14MOL   H142 5628   1.383   6.779   4.253 -0.0311  0.4955 -0.3819
   14MOL   H143 5629   1.116   6.990   4.361 -0.0083  0.0969  0.2875
   14MOL   H144 5630   1.025   6.857   4.308 -3.0884  0.9898 -0.8935
   14MOL   H145 5631   1.014   6.999   4.208  1.4911 -0.9991 -2.2372
   14MOL   H146 5632   1.309   7.086   4.213  0.6755  0.2158 -1.2798
   14MOL   H147 5633   1.392   6.959   4.120  2.3503  3.2699  0.6493
   14MOL   H148 5634   1.255   7.050   4.052  0.9816  0.7760 -0.2285
   14MOL   C149 5635   1.182   6.897   3.840  0.2686  0.3683 -0.2587
   14MOL   C150 5636   1.118   6.949   3.709 -0.0663  0.4308 -0.2217
   14MOL   C151 5637   1.022   7.068   3.727 -0.4544 -0.8631  0.8767
   14MOL   C152 5638   0.919   7.111   3.619  0.4366 -0.0021  0.7169
   14MOL   C153 5639   0.966   7.229   3.537  0.2505 -0.4104  0.2057
   14MOL   C154 5640   0.800   7.173   3.698 -0.1071 -0.1919 -0.0003
   14MOL   C155 5641   0.861   6.996   3.537 -0.0817 -0.1348 -0.4086
   14MOL   H156 5642   1.226   6.803   3.808 -0.6821  0.1399 -0.9020
   14MOL   H157 5643   1.277   6.944   3.864 -0.2844  0.4901  1.8659
   14MOL   H158 5644   1.054   6.871   3.666 -1.3415  1.5104 -0.3137
   14MOL   H159 5645   1.085   7.154   3.748 -0.8189 -0.3039 -0.2930
   14MOL   H160 5646   0.976   7.045   3.823 -0.8058  1.2659  1.2311
   14MOL   H161 5647   1.041   7.205   3.462  1.5374  1.9876  0.6762
   14MOL   H162 5648   0.888   7.276   3.477  0.1274 -0.6439  0.1812
   14MOL   H163 5649   1.014   7.309   3.592  1.2822 -0.5676 -0.4490
   14MOL   H164 5650   0.724   7.235   3.650  0.1635  1.0480  1.1424
   14MOL   H165 5651   0.840   7.232   3.780  1.6727 -2.2447  0.6787
   14MOL   H166 5652   0.737   7.100   3.748  0.5628 -0.3353  0.6472
   14MOL   H167 5653   0.765   7.023   3.493 -0.5974 -1.6489 -0.2311
   14MOL   H168 5654   0.929   6.965   3.458  0.5983  2.3020 -0.8287
   14MOL   H169 5655   0.847   6.909   3.601  2.5563 -0.3686 -0.0929
   14MOL   C170 5656   1.228   6.983   3.603  0.6233 -0.3395  0.4381
   14MOL   C171 5657   1.324   6.882   3.554  0.4763 -0.1708  0.5124
   14MOL   C172 5658   1.433   6.945   3.465 -0.5530 -0.0063  0.3654
   14MOL   C173 5659   1.570   6.984   3.541 -0.0884  0.3337 -0.2201
   14MOL   C174 5660   1.669   7.043   3.449  0.4508 -0.0077 -0.0656
   14MOL   C175 5661   1.629   6.854   3.613 -0.1326 -0.9093  0.9810
   14MOL   C176 5662   1.540   7.074   3.662 -0.3439 -0.2488 -0.8432
   14MOL   H177 5663   1.275   7.075   3.637 -1.0062  0.3499  0.9040
   14MOL   H178 5664   1.178   7.019   3.513 -1.2277 -3.8342 -0.0324
   14MOL   H179 5665   1.367   6.845   3.647 -0.4990  2.5426  2.1033
   14MOL   H180 5666   1.461   6.862   3.400 -0.1828 -1.9604  2.9679
   14MOL   H181 5667   1.386   7.023   3.405 -0.1121 -1.1963 -1.5795
   14MOL   H182 5668   1.636   7.146   3.431 -1.0278 -0.4590 -0.0567
   14MOL   H183 5669   1.767   7.059   3.493 -0.1642 -3.1017  2.6378
   14MOL   H184 5670   1.669   6.999   3.350 -0.6682 -1.5281  0.5930
   14MOL   H185 5671   1.564   6.804   3.685 -1.6353 -1.5095 -0.7456
   14MOL   H186 5672   1.645   6.778   3.536  0.6720  0.6502 -0.4347
   14MOL   H187 5673   1.729   6.870   3.654 -0.4946  0.0197  1.5094
   14MOL   H188 5674   1.633   7.098   3.712  0.8035 -2.8214 -1.6838
   14MOL   H189 5675   1.481   7.158   3.623  1.8751  1.8412  0.1846
   14MOL   H190 5676   1.482   7.032   3.744  2.7075  1.9500  2.5698
   14MOL   C191 5677   1.248   6.768   3.479  0.2333 -0.2140  0.5637
   14MOL   C192 5678   1.314   6.631   3.481  1.0104  0.3467  0.0252
   14MOL   C193 5679   1.251   6.549   3.373  0.0087 -0.1386  0.9195
   14MOL   C194 5680   1.318   6.544   3.228 -0.4953 -0.1826 -0.0452
   14MOL   C195 5681   1.205   6.480   3.136 -0.2532  0.0590 -0.0108
   14MOL   C196 5682   1.447   6.462   3.227 -0.3677  0.0759  0.1963
   14MOL   C197 5683   1.333   6.681   3.167  0.1942 -0.3392  0.1361
   14MOL   H198 5684   1.145   6.754   3.513 -0.4388 -1.4119 -1.8374
   14MOL   H199 5685   1.218   6.799   3.379 -0.0463  0.9348  0.9886
   14MOL   H200 5686   1.420   6.649   3.462  1.0323 -0.2011 -0.3942
   14MOL   H201 5687   1.146   6.573   3.355  0.3993  1.6239  0.9398
   14MOL   H202 5688   1.246   6.446   3.408  0.5320 -0.7245 -0.6755
   14MOL   H203 5689   1.212   6.372   3.152  2.6892  0.0650 -1.0715
   14MOL   H204 5690   1.101   6.511   3.147 -0.4438  0.3610 -2.4417
   14MOL   H205 5691   1.225   6.471   3.030 -0.2305 -0.9441  0.0720
   14MOL   H206 5692   1.492   6.441   3.130 -0.5549 -0.6434  0.2639
   14MOL   H207 5693   1.523   6.517   3.283 -1.8132  1.0898  1.2172
   14MOL   H208 5694   1.431   6.365   3.275 -3.3299 -0.0389 -0.8669
   14MOL   H209 5695   1.372   6.678   3.065  1.4229  2.6060  0.4581
   14MOL   H210 5696   1.236   6.729   3.154 -0.7691 -2.1173  0.5520
   14MOL   H211 5697   1.407   6.736   3.224 -0.2432  1.6623 -1.1631
   14MOL   C212 5698   1.301   6.555   3.617  0.1615 -0.2714 -0.4421
   14MOL   C213 5699   1.404   6.450   3.645 -0.2181  0.6083 -0.1956
   14MOL   C214 5700   1.358   6.353   3.759 -0.9100  0.3002 -0.1525
   14MOL   C215 5701   1.278   6.229   3.721 -0.8927 -0.0748 -0.5447
   14MOL   C216 5702   1.147   6.250   3.645  0.4208  0.4900 -0.1779
   14MOL   C217 5703   1.368   6.127   3.636  0.5085  0.6171 -0.0896
   14MOL   C218 5704   1.231   6.163   3.853  0.2507 -0.1382 -0.1681
   14MOL   H219 5705   1.301   6.622   3.703 -0.9094 -0.1097 -0.5624
   14MOL   H220 5706   1.201   6.511   3.617  0.0417 -0.0208 -2.6801
   14MOL   H221 5707   1.411   6.400   3.549  0.5365  1.6290 -0.6800
   14MOL   H222 5708   1.307   6.399   3.844 -0.7337 -1.5252  0.9664
   14MOL   H223 5709   1.448   6.319   3.810 -0.0886  0.7955 -1.2482
   14MOL   H224 5710   1.179   6.283   3.546 -0.1348  0.5835 -0.3294
   14MOL   H225 5711   1.074   6.319   3.686 -1.4980 -1.1839 -0.7071
   14MOL   H226 5712   1.095   6.155   3.629  1.0849  0.4240 -2.0967
   14MOL   H227 5713   1.306   6.044   3.603 -4.5981  3.3266  2.0863
   14MOL   H228 5714   1.391   6.178   3.542 -1.6909  0.7502 -0.5709
   14MOL   H229 5715   1.460   6.094   3.684 -0.5805 -1.8108  0.4034
   14MOL   H230 5716   1.160   6.230   3.901  0.4332  0.2727 -0.4604
   14MOL   H231 5717   1.315   6.149   3.921 -0.6141  1.7920  1.3435
   14MOL   H232 5718   1.188   6.064   3.839  1.1751 -0.9722  2.6472
   14MOL   C233 5719   1.542   6.510   3.669  0.3505  0.3861 -0.5783
   14MOL   C234 5720   1.661   6.409   3.654 -0.7874  0.5505  0.0993
   14MOL   C235 5721   1.760   6.472   3.548  0.3032  0.3160  0.1981
   14MOL   C236 5722   1.836   6.381   3.454  0.1598 -0.1982  0.6090
   14MOL   C237 5723   1.951   6.310   3.527  0.3665 -0.3655  0.1743
   14MOL   C238 5724   1.754   6.271   3.382  0.3221 -0.1860  0.2166
   14MOL   C239 5725   1.906   6.466   3.339 -0.1802  0.5228 -0.2440
   14MOL   H240 5726   1.536   6.566   3.763 -0.6724 -0.0962 -0.3397
   14MOL   H241 5727   1.557   6.599   3.608  1.1754  0.2038 -0.6474
   14MOL   H242 5728   1.599   6.330   3.611  1.4014 -0.7597 -0.7325
   14MOL   H243 5729   1.696   6.533   3.484  1.1803  0.0903 -0.9206
   14MOL   H244 5730   1.840   6.534   3.587  0.8179 -0.8162  0.9818
   14MOL   H245 5731   2.016   6.251   3.462  0.8368 -1.5029  1.6555
   14MOL   H246 5732   1.902   6.231   3.583 -0.0074  0.8441  1.5701
   14MOL   H247 5733   2.006   6.376   3.593 -0.7157  1.4113 -0.6621
   14MOL   H248 5734   1.810   6.216   3.306  3.7506  0.9401  1.8374
   14MOL   H249 5735   1.735   6.190   3.453 -2.5611 -0.2985 -0.6209
   14MOL   H250 5736   1.656   6.297   3.342  1.2627  3.7107  0.3064
   14MOL   H251 5737   1.830   6.514   3.278 -1.0889 -0.4264  0.1300
   14MOL   H252 5738   1.972   6.545   3.376  1.7755 -0.9507 -0.4785
   14MOL   H253 5739   1.964   6.408   3.267  1.1420 -1.5126  2.3688
   14MOL   C254 5740   1.720   6.359   3.796  0.5313 -0.5064 -1.1708
   14MOL   C255 5741   1.850   6.407   3.874  0.1707  0.4933  1.0779
   14MOL   C256 5742   1.872   6.311   4.002  0.0761 -0.2060 -1.0398
   14MOL   C257 5743   1.952   6.178   3.982 -0.3046  0.5952 -0.8253
   14MOL   C258 5744   2.099   6.211   3.945 -0.2978 -0.2711 -0.0080
   14MOL   C259 5745   1.898   6.079   3.877 -0.4160  0.2248 -0.5672
   14MOL   C260 5746   1.948   6.095   4.118 -0.1201 -0.3386 -0.5020
   14MOL   H261 5747   1.717   6.250   3.791  2.1067 -0.7034  1.4977
   14MOL   H262 5748   1.641   6.377   3.870  0.2630  0.1570 -1.6193
   14MOL   H263 5749   1.938   6.404   3.811 -1.0476 -0.5062 -0.6371
   14MOL   H264 5750   1.920   6.379   4.073 -1.3272 -0.5993  0.3304
   14MOL   H265 5751   1.774   6.295   4.048 -0.2558  0.4994 -1.5010
   14MOL   H266 5752   2.147   6.285   4.009 -0.8842  0.5533 -0.5089
   14MOL   H267 5753   2.100   6.242   3.841  0.7876 -0.7701 -0.1534
   14MOL   H268 5754   2.159   6.122   3.963  0.5390  0.7269  2.3780
   14MOL   H269 5755   1.807   6.029   3.911 -0.4280  1.4471  1.2846
   14MOL   H270 5756   1.970   6.000   3.854 -0.5426 -0.6375  1.8373
   14MOL   H271 5757   1.864   6.116   3.781 -2.6330 -0.2786 -0.0053
   14MOL   H272 5758   2.001   6.001   4.110  1.1708  0.2338  1.1635
   14MOL   H273 5759   1.993   6.159   4.194 -1.7822  0.0789  0.1449
   14MOL   H274 5760   1.847   6.081   4.156 -0.5655  0.3435 -1.3887
   14MOL   C275 5761   1.827   6.554   3.925 -0.2720  0.6955 -0.7408
   14MOL   C276 5762   1.950   6.641   3.957 -0.2316 -0.5570  0.0277
   14MOL   C277 5763   2.019   6.696   3.824 -0.9167  0.4178  0.8139
   14MOL   C278 5764   2.175   6.698   3.828  0.1355  0.4199  0.4519
   14MOL   C279 5765   2.221   6.829   3.894  0.8520  0.3546  0.3939
   14MOL   C280 5766   2.246   6.575   3.893  0.4022 -0.6485  0.3859
   14MOL   C281 5767   2.231   6.701   3.683  0.0734 -0.1010  0.2055
   14MOL   H282 5768   1.754   6.598   3.857 -2.5893 -1.5971  0.1265
   14MOL   H283 5769   1.773   6.528   4.017  0.5081 -1.2576 -0.7985
   14MOL   H284 5770   2.022   6.588   4.019 -0.2949  1.0172  1.4506
   14MOL   H285 5771   1.985   6.793   3.789  1.1052  0.4004 -1.3036
   14MOL   H286 5772   1.990   6.626   3.744  3.9629  0.3268 -1.0447
   14MOL   H287 5773   2.203   6.826   4.002  1.1237 -2.8328  0.4081
   14MOL   H288 5774   2.330   6.826   3.885  0.8341 -0.1111  0.2939
   14MOL   H289 5775   2.179   6.914   3.841 -2.7065 -1.5602 -0.0094
   14MOL   H290 5776   2.201   6.480   3.867 -0.1895  0.1218 -1.5043
   14MOL   H291 5777   2.250   6.594   4.001 -0.9104  1.3252  0.1146
   14MOL   H292 5778   2.352   6.566   3.874  0.6125  2.0723  0.0032
   14MOL   H293 5779   2.170   6.772   3.626 -3.6538 -1.9584  1.6816
   14MOL   H294 5780   2.212   6.605   3.635 -2.0243  1.0124 -1.2525
   14MOL   H295 5781   2.336   6.727   3.670 -0.0807 -0.2446 -1.3843
   14MOL   C296 5782   1.908   6.758   4.046  0.2026 -1.1077  0.0667
   14MOL   C297 5783   1.884   6.750   4.200  0.0528  0.6236 -0.2985
   14MOL   C298 5784   1.741   6.712   4.246 -0.6595  0.3908 -0.5533
   14MOL   C299 5785   1.733   6.618   4.367  0.1495 -0.1422  0.6191
   14MOL   C300 5786   1.817   6.668   4.490  0.9202 -0.4395 -0.2202
   14MOL   C301 5787   1.584   6.609   4.409 -0.0085  0.1040 -0.2488
   14MOL   C302 5788   1.780   6.477   4.324  0.1932 -0.4236 -0.4761
   14MOL   H303 5789   1.825   6.820   4.012 -0.3252 -1.1203  1.2830
   14MOL   H304 5790   1.982   6.837   4.031  1.2487 -2.2515 -0.9222
   14MOL   H305 5791   1.943   6.661   4.225  0.4536  1.3414  1.4027
   14MOL   H306 5792   1.685   6.674   4.161 -1.8321  2.3569 -0.7050
   14MOL   H307 5793   1.679   6.799   4.268 -1.2560 -0.2915  0.4893
   14MOL   H308 5794   1.926   6.674   4.487  0.9661 -0.4043  0.9469
   14MOL   H309 5795   1.787   6.763   4.533  0.3298 -1.1312  0.9493
   14MOL   H310 5796   1.814   6.605   4.580 -0.2394 -0.0242  0.0396
   14MOL   H311 5797   1.524   6.601   4.318  1.3608 -0.3444 -1.1371
   14MOL   H312 5798   1.564   6.526   4.476 -0.5529 -1.2230 -2.0070
   14MOL   H313 5799   1.562   6.702   4.461  1.4749 -1.3631  3.1307
   14MOL   H314 5800   1.723   6.398   4.373 -2.0102  0.6493 -1.2558
   14MOL   H315 5801   1.783   6.453   4.218  1.2399  1.0403 -0.7972
   14MOL   H316 5802   1.884   6.465   4.354  0.0897 -0.8698 -0.2938
   14MOL   C317 5803   1.961   6.860   4.265  0.0820  1.0336  0.3669
   14MOL   C318 5804   1.938   7.014   4.229 -0.0403  0.2799 -0.4392
   14MOL   C319 5805   1.805   7.072   4.296 -0.0483 -0.1399  0.1086
   14MOL   C320 5806   1.704   7.144   4.209  0.9709  0.0675  0.3575
   14MOL   C321 5807   1.565   7.179   4.291 -0.0131 -0.1374 -0.0410
   14MOL   C322 5808   1.670   7.057   4.086 -0.1263  0.6981  0.1884
   14MOL   C323 5809   1.771   7.283   4.171 -0.3272  0.0490  0.6320
   14MOL   H324 5810   1.942   6.848   4.371  1.6071 -0.1083  0.5259
   14MOL   H325 5811   2.065   6.828   4.253 -0.5541 -0.6220 -0.8559
   14MOL   H326 5812   1.938   7.033   4.122 -1.1032 -0.0236 -0.4892
   14MOL   H327 5813   1.831   7.137   4.379  0.2093  0.2089 -0.2427
   14MOL   H328 5814   1.760   6.995   4.359 -1.1473  0.5650  0.2065
   14MOL   H329 5815   1.483   7.226   4.237 -0.9693  0.8950  2.2492
   14MOL   H330 5816   1.585   7.247   4.373 -2.1929  2.1637 -1.3616
   14MOL   H331 5817   1.521   7.093   4.343 -0.3947 -0.5333 -0.9990
   14MOL   H332 5818   1.654   6.952   4.113 -1.9979  1.5766  2.7437
   14MOL   H333 5819   1.577   7.087   4.037  0.6039  1.0932 -0.9593
   14MOL   H334 5820   1.748   7.051   4.011 -0.8776 -0.2326 -0.5411
   14MOL   H335 5821   1.689   7.346   4.137 -1.0649 -1.5963 -0.6277
   14MOL   H336 5822   1.852   7.285   4.098  0.5936 -1.9900  1.5597
   14MOL   H337 5823   1.819   7.334   4.255 -2.6520  0.4815  1.7283
   14MOL   C338 5824   2.059   7.105   4.284  0.0512  0.5037 -0.1537
   14MOL   C339 5825   2.190   7.095   4.204 -0.4265  0.2222  0.4975
   14MOL   C340 5826   2.322   7.133   4.277 -0.2832  0.5628 -0.1856
   14MOL   C341 5827   2.421   7.038   4.335  0.5282  0.4861 -0.1275
   14MOL   C342 5828   2.362   6.963   4.452  0.2282  0.4722 -0.9331
   14MOL   C343 5829   2.480   6.935   4.233 -0.2799 -0.3287 -0.1292
   14MOL   C344 5830   2.541   7.115   4.391  0.2524 -0.3076  0.6680
   14MOL   H345 5831   2.083   7.092   4.389 -1.0867 -2.3009 -0.1758
   14MOL   H346 5832   2.034   7.210   4.271  2.0950  0.8228 -1.7064
   14MOL   H347 5833   2.201   6.987   4.196 -0.0192  0.1745  1.6744
   14MOL   H348 5834   2.302   7.211   4.350  1.9577  0.7237  0.3163
   14MOL   H349 5835   2.381   7.185   4.202 -1.6159  1.4474 -0.6318
   14MOL   H350 5836   2.286   6.896   4.414  0.5321 -0.1450 -0.4661
   14MOL   H351 5837   2.436   6.904   4.506  0.5381 -0.1122 -1.9878
   14MOL   H352 5838   2.304   7.018   4.526  1.2316  0.4633 -0.1185
   14MOL   H353 5839   2.512   6.976   4.138 -1.0905  3.2368  1.0630
   14MOL   H354 5840   2.577   6.895   4.265 -0.1309  0.8105  0.9004
   14MOL   H355 5841   2.414   6.853   4.205 -1.5374  0.5612  0.1598
   14MOL   H356 5842   2.604   7.046   4.447 -0.2447 -0.3046  1.2414
   14MOL   H357 5843   2.602   7.166   4.317  0.3997  0.1360  1.0851
   14MOL   H358 5844   2.508   7.190   4.464  1.4956  1.9270 -0.9962
   14MOL   C359 5845   2.192   7.142   4.050 -0.3364 -0.1811  0.5557
   14MOL   C360 5846   2.159   7.279   3.990  0.2414 -0.5481 -0.8756
   14MOL   C361 5847   2.172   7.290   3.835 -0.2137 -0.3613  0.1984
   14MOL   C362 5848   2.038   7.303   3.756 -0.8101 -0.6553  0.3013
   14MOL   C363 5849   1.954   7.176   3.779 -0.9542 -0.7096 -0.8093
   14MOL   C364 5850   2.083   7.305   3.612  0.7870  0.3672  0.0753
   14MOL   C365 5851   1.948   7.429   3.786  0.1695 -0.4736 -0.3853
   14MOL   H366 5852   2.110   7.084   4.008 -0.2539  0.0596  0.0561
   14MOL   H367 5853   2.288   7.104   4.017 -1.0315 -2.2929  0.8514
   14MOL   H368 5854   2.057   7.295   4.022  1.0008 -1.1655  1.9986
   14MOL   H369 5855   2.250   7.358   3.801 -0.9098  0.3924  0.1130
   14MOL   H370 5856   2.212   7.191   3.810 -1.1180 -0.8076  0.4900
   14MOL   H371 5857   1.900   7.163   3.873 -1.6830  0.3631 -1.0613
   14MOL   H372 5858   1.878   7.165   3.702 -0.9700  0.6649 -1.0013
   14MOL   H373 5859   2.003   7.082   3.757 -0.4584 -0.8683  0.8699
   14MOL   H374 5860   1.997   7.284   3.550 -0.2845  1.0007  1.3322
   14MOL   H375 5861   2.150   7.221   3.597  0.9968  0.1681  1.9916
   14MOL   H376 5862   2.132   7.399   3.585 -0.8354  1.1212 -0.2621
   14MOL   H377 5863   2.001   7.523   3.767  0.3101 -0.2672  0.9966
   14MOL   H378 5864   1.895   7.428   3.881 -0.4735 -0.9951 -0.7499
   14MOL   H379 5865   1.868   7.438   3.712  0.2568 -2.4796 -0.7484
   14MOL   C380 5866   2.235   7.393   4.064  0.4789 -0.0963  0.1509
   14MOL   C381 5867   2.203   7.540   4.040 -0.2998  0.7586 -0.3348
   14MOL   C382 5868   2.313   7.634   4.090 -0.1476 -0.8447  0.3805
   14MOL   C383 5869   2.426   7.679   3.988 -0.5522 -0.0468 -0.8708
   14MOL   C384 5870   2.363   0.005   3.885  0.0180  0.1296  0.8850
   14MOL   C385 5871   2.499   7.557   3.921  0.9875 -0.0234 -0.3469
   14MOL   C386 5872   2.535   7.761   4.059  0.2691  0.1209 -0.2002
   14MOL   H387 5873   2.338   7.365   4.042  0.7147  1.7627 -1.1461
   14MOL   H388 5874   2.232   7.376   4.172  1.3868  1.3814  0.4246
   14MOL   H389 5875   2.205   7.557   3.932  0.8583 -0.1973 -0.4718
   14MOL   H390 5876   2.264   7.721   4.132  2.7554  1.1386 -0.1271
   14MOL   H391 5877   2.372   7.586   4.168  0.4230 -0.4464  0.2019
   14MOL   H392 5878   2.295   7.714   3.822  2.3830  0.5286 -2.2029
   14MOL   H393 5879   2.309   0.088   3.930 -1.4527  0.1037 -0.7457
   14MOL   H394 5880   2.426   0.050   3.808  1.1743 -2.3140  0.3764
   14MOL   H395 5881   2.441   7.489   3.859 -0.0132  0.2361  0.3059
   14MOL   H396 5882   2.536   7.482   3.990  0.1385  0.6212  0.8150
   14MOL   H397 5883   2.579   7.595   3.856  0.5060  2.6954  0.6012
   14MOL   H398 5884   2.591   7.707   4.135 -0.3110 -1.8957 -1.1685
   14MOL   H399 5885   2.493   0.084   4.106 -2.8690 -2.0486  1.3248
   14MOL   H400 5886   2.604   0.030   3.982 -2.5247 -0.2806 -2.9987
   14MOL   C401 5887   2.059   7.582   4.096 -0.1252  0.4756  0.4997
   14MOL   C402 5888   2.042   7.561   4.247  0.4701  0.0818 -0.1341
   14MOL   C403 5889   1.907   7.614   4.300  0.8182  0.4296 -0.2394
   14MOL   C404 5890   1.881   7.619   4.455  0.1250 -0.2642  0.1429
   14MOL   C405 5891   1.748   7.690   4.484  0.3271  1.0235  0.4365
   14MOL   C406 5892   1.987   7.699   4.529  0.0148 -0.0177 -0.4840
   14MOL   C407 5893   1.871   7.471   4.501 -0.0331  0.3048  0.2348
   14MOL   H408 5894   2.051   7.687   4.067  1.0854 -0.0428 -1.8962
   14MOL   H409 5895   1.978   7.532   4.041 -0.7707  2.0172  0.0196
   14MOL   H410 5896   2.039   7.454   4.264  2.1040 -0.2822 -1.8870
   14MOL   H411 5897   1.823   7.562   4.254  0.7603  0.0388  0.2965
   14MOL   H412 5898   1.903   7.714   4.257 -2.2559 -0.3595 -1.9341
   14MOL   H413 5899   1.662   7.635   4.444  2.5711 -2.3248 -0.0169
   14MOL   H414 5900   1.734   0.028   4.454 -1.7597  1.0469  1.3394
   14MOL   H415 5901   1.727   7.700   4.590 -0.7357  2.0391  0.1372
   14MOL   H416 5902   1.970   0.040   4.516 -0.3472 -0.2457 -2.0727
   14MOL   H417 5903   2.088   7.674   4.498 -0.0636  0.5587 -1.2247
   14MOL   H418 5904   1.970   7.681   4.635 -1.5835  2.7040 -0.2394
   14MOL   H419 5905   1.836   7.472   4.605 -0.7609 -0.1155  0.0035
   14MOL   H420 5906   1.807   7.397   4.453 -0.6875 -0.7604  2.6784
   14MOL   H421 5907   1.970   7.427   4.502 -0.5936 -1.0187 -0.9397
   14MOL   H422 5908   2.132   7.598   4.297  0.5628 -0.3904  0.0470
   15MOL     C1 5909   0.028   5.346   2.041 -0.0918 -0.1894  0.0682
   15MOL     C2 5910   0.043   5.317   2.191  0.2139 -0.2412  1.0482
   15MOL     C3 5911   7.765   5.442   2.269 -0.1564 -0.3162 -0.3045
   15MOL     C4 5912   7.620   5.443   2.331 -0.6281 -0.4571 -0.5804
   15MOL     C5 5913   7.509   5.415   2.225  0.0790  0.1302 -0.0560
   15MOL     C6 5914   7.613   5.351   2.462  0.3744 -0.2722  0.1689
   15MOL     C7 5915   7.599   5.590   2.379  0.1288 -0.5507 -0.2554
   15MOL     H8 5916   7.766   5.262   1.977 -2.4839 -0.9684  2.0695
   15MOL     H9 5917   7.741   5.437   2.011  1.2900  0.8047  0.5930
   15MOL    H10 5918   7.751   5.233   2.229 -0.4352 -0.4235 -0.3307
   15MOL    H11 5919   0.024   5.533   2.214  1.2792 -0.9211 -0.6735
   15MOL    H12 5920   0.060   5.453   2.360 -1.3683  1.1335  0.3542
   15MOL    H13 5921   7.532   5.320   2.177 -0.0233  0.6000 -1.0308
   15MOL    H14 5922   7.510   5.481   2.139 -1.4520 -1.0909 -1.0201
   15MOL    H15 5923   7.408   5.401   2.262  0.1661 -0.2895  0.0255
   15MOL    H16 5924   7.704   5.375   2.518  0.6009 -0.6425 -0.0359
   15MOL    H17 5925   7.530   5.374   2.529 -0.6995 -0.0447 -1.2148
   15MOL    H18 5926   7.603   5.253   2.415  1.1470  0.4677 -1.5828
   15MOL    H19 5927   7.676   5.621   2.449  0.5686  1.8912 -1.7734
   15MOL    H20 5928   7.515   5.601   2.448  1.2071 -2.8141  1.4792
   15MOL    H21 5929   7.598   5.663   2.299 -0.4717  1.3209  1.4207
   15MOL    H22 5930   0.132   5.361   2.013 -0.2639 -0.1937 -0.5744
   15MOL    C23 5931   0.187   5.278   2.212  0.6491 -0.0073 -0.2565
   15MOL    C24 5932   0.223   5.205   2.345  0.2273  0.0839  0.0741
   15MOL    C25 5933   0.364   5.258   2.392  0.1475 -0.6494  0.1297
   15MOL    C26 5934   0.375   5.406   2.451 -0.2228 -0.1847 -0.8056
   15MOL    C27 5935   0.345   5.524   2.356  0.9043 -0.1607  0.4744
   15MOL    C28 5936   0.284   5.423   2.578 -0.7324 -0.5334 -0.3413
   15MOL    C29 5937   0.525   5.432   2.492 -0.7999 -0.1658 -0.0319
   15MOL    H30 5938   0.203   5.193   2.146  0.3716 -0.1988 -0.0807
   15MOL    H31 5939   0.261   5.354   2.186  0.0409 -0.1186 -2.3873
   15MOL    H32 5940   0.156   5.240   2.424 -0.9764 -3.6309  0.7716
   15MOL    H33 5941   0.442   5.239   2.318 -1.4618 -1.0765 -1.5030
   15MOL    H34 5942   0.405   5.196   2.472 -2.1644 -0.5671  1.4282
   15MOL    H35 5943   0.246   5.516   2.312  2.0447 -2.0490 -1.8612
   15MOL    H36 5944   0.366   5.622   2.398  0.6878  0.7974 -1.5942
   15MOL    H37 5945   0.415   5.511   2.273  0.5751 -0.4750  0.2473
   15MOL    H38 5946   0.184   5.439   2.539 -0.7381  2.5925  0.8449
   15MOL    H39 5947   0.289   5.334   2.641  1.2166  0.9636  1.7380
   15MOL    H40 5948   0.302   5.515   2.635 -0.5247 -0.7105 -0.1158
   15MOL    H41 5949   0.570   5.356   2.556  0.0175  1.1387  0.9799
   15MOL    H42 5950   0.521   5.525   2.549 -0.2371 -0.4333  0.4450
   15MOL    H43 5951   0.594   5.447   2.409  1.3064 -0.5480  1.6081
   15MOL    C44 5952   0.216   5.053   2.348  0.0273 -0.1889 -0.3234
   15MOL    C45 5953   0.194   4.991   2.488  0.2014  0.1535  0.3932
   15MOL    C46 5954   0.229   4.839   2.479 -0.1161  0.7130  0.0404
   15MOL    C47 5955   0.367   4.779   2.516  0.3640  0.2172  0.3317
   15MOL    C48 5956   0.383   4.795   2.672  0.6978 -0.1440 -0.0715
   15MOL    C49 5957   0.478   4.865   2.457  0.1499 -0.0799  0.1282
   15MOL    C50 5958   0.365   4.637   2.452 -0.4777  0.3198 -0.5576
   15MOL    H51 5959   0.140   5.020   2.277  1.0076 -1.6571 -0.7349
   15MOL    H52 5960   0.308   5.018   2.299 -1.1662 -1.4669 -1.7086
   15MOL    H53 5961   0.264   5.036   2.558  1.0757 -0.6093  0.0133
   15MOL    H54 5962   0.204   4.821   2.374 -2.3839 -0.6295  0.7984
   15MOL    H55 5963   0.156   4.773   2.526  0.3763 -0.0620 -0.2621
   15MOL    H56 5964   0.307   4.749   2.735  1.1583  0.2187  0.7576
   15MOL    H57 5965   0.370   4.902   2.692  1.6763  0.3062 -1.7318
   15MOL    H58 5966   0.480   4.750   2.693  1.8190  1.5996 -1.3945
   15MOL    H59 5967   0.490   4.956   2.517  3.2002 -1.1438  1.2155
   15MOL    H60 5968   0.574   4.813   2.454  0.1597 -0.3549  3.6398
   15MOL    H61 5969   0.456   4.900   2.355 -2.5130  0.2157  0.7622
   15MOL    H62 5970   0.311   4.560   2.508  0.1292  1.2316  1.3527
   15MOL    H63 5971   0.328   4.641   2.350  1.0161 -0.3292 -1.1434
   15MOL    H64 5972   0.463   4.590   2.444 -0.2271  0.3114  1.9701
   15MOL    C65 5973   0.044   5.012   2.534  0.5591  0.1401  0.0701
   15MOL    C66 5974   7.764   4.956   2.671  0.3861 -0.3651  0.4760
   15MOL    C67 5975   7.605   4.954   2.677  0.0058 -0.0639 -0.3187
   15MOL    C68 5976   7.507   4.885   2.583  0.4188  0.2711  0.0576
   15MOL    C69 5977   7.369   4.871   2.645 -0.0858 -0.3835 -0.1801
   15MOL    C70 5978   7.484   4.961   2.449 -0.5389  0.0460 -0.5128
   15MOL    C71 5979   7.567   4.752   2.549  0.4241 -0.3196 -0.2691
   15MOL    H72 5980   0.023   5.119   2.543  1.4958  0.3111  0.2715
   15MOL    H73 5981   7.750   4.971   2.453  0.2840 -0.0095  0.3442
   15MOL    H74 5982   0.032   4.853   2.678  0.1080 -0.3963  1.5188
   15MOL    H75 5983   7.565   5.053   2.700  0.9831  0.4776 -0.8790
   15MOL    H76 5984   7.594   4.900   2.771 -1.4303  1.0170  0.1493
   15MOL    H77 5985   7.299   4.817   2.580 -0.8854  2.2568 -1.5919
   15MOL    H78 5986   7.370   4.814   2.738  1.8696  0.6749  0.4862
   15MOL    H79 5987   7.318   4.964   2.670 -3.3872 -1.7638 -1.4539
   15MOL    H80 5988   7.387   4.927   2.412 -0.7473 -0.1052  0.1582
   15MOL    H81 5989   7.554   4.933   2.371  0.9720 -1.9956  1.5045
   15MOL    H82 5990   7.484   5.067   2.476 -1.5142 -0.1363  0.2220
   15MOL    H83 5991   7.663   4.767   2.499 -0.1169 -0.9060 -1.4768
   15MOL    H84 5992   7.498   4.704   2.480 -1.7467  2.7897 -0.3420
   15MOL    H85 5993   7.574   4.689   2.638  0.2483  0.2257  0.1375
   15MOL    C86 5994   0.059   5.027   2.799 -0.1459 -0.2237 -0.3743
   15MOL    C87 5995   0.042   4.972   2.943 -0.0169 -0.5532  0.5395
   15MOL    C88 5996   0.062   5.090   3.045  0.1383  0.0033  0.3043
   15MOL    C89 5997   0.199   5.167   3.064 -0.7427 -0.0988  0.7795
   15MOL    C90 5998   0.212   5.266   2.946  0.0651  0.6660 -0.0502
   15MOL    C91 5999   0.315   5.074   3.071 -1.0749 -0.8145  0.2214
   15MOL    C92 6000   0.191   5.248   3.197 -0.5832 -0.3995  0.2501
   15MOL    H93 6001   0.019   5.128   2.793 -1.8961 -0.6556  2.6872
   15MOL    H94 6002   0.165   5.032   2.774 -0.6470  0.4072 -2.4301
   15MOL    H95 6003   7.700   4.962   2.955 -0.3268 -0.2912 -1.8244
   15MOL    H96 6004   0.021   5.046   3.135 -0.5916  0.3976  0.1668
   15MOL    H97 6005   7.747   5.161   3.026 -0.3184 -0.6046 -0.0325
   15MOL    H98 6006   0.300   5.331   2.953  1.4558 -1.2985  1.5864
   15MOL    H99 6007   0.123   5.320   2.914  0.3338  0.5336 -1.0265
   15MOL   H100 6008   0.239   5.207   2.859 -2.0610  0.1419 -0.3670
   15MOL   H101 6009   0.401   5.135   3.100 -0.7546 -1.1542 -0.0080
   15MOL   H102 6010   0.301   4.998   3.148 -0.6568 -2.4805 -1.3091
   15MOL   H103 6011   0.350   5.030   2.977 -1.0603  0.5729 -0.4376
   15MOL   H104 6012   0.153   5.184   3.276  0.3180 -0.0700  0.9665
   15MOL   H105 6013   0.288   5.292   3.221 -0.2632  0.8917 -3.1577
   15MOL   H106 6014   0.127   5.337   3.194 -1.7827 -1.2166  1.3361
   15MOL   C107 6015   0.101   4.831   2.971 -0.5599 -0.4201  0.6101
   15MOL   C108 6016   0.044   4.759   3.091  0.0412  0.1443 -0.3020
   15MOL   C109 6017   7.679   4.686   3.049  0.1228  0.1090 -0.9912
   15MOL   C110 6018   7.553   4.691   3.141 -0.1431  0.5974  0.9295
   15MOL   C111 6019   7.576   4.614   3.277 -0.1297 -0.5217 -0.5607
   15MOL   C112 6020   7.432   4.625   3.059  0.6188 -0.0740  0.0504
   15MOL   C113 6021   7.513   4.840   3.173 -0.0517 -0.4696 -0.7668
   15MOL   H114 6022   0.210   4.830   2.982 -0.4802 -0.7188 -0.1221
   15MOL   H115 6023   0.083   4.767   2.884 -2.7190 -2.3130  2.3873
   15MOL   H116 6024   0.011   4.839   3.157  2.0691  1.5972 -0.9904
   15MOL   H117 6025   7.645   4.722   2.952 -2.8056 -1.1655 -0.4816
   15MOL   H118 6026   7.700   4.582   3.023 -0.7467  0.3772 -2.8966
   15MOL   H119 6027   7.657   4.669   3.324  0.9001 -2.9740  0.5861
   15MOL   H120 6028   7.487   4.622   3.340  0.3545 -0.3557  0.1098
   15MOL   H121 6029   7.599   4.508   3.269 -0.2893 -0.6890  1.0110
   15MOL   H122 6030   7.343   4.644   3.119  0.7147  0.0437  0.1571
   15MOL   H123 6031   7.441   4.517   3.067  0.9857 -0.1363 -1.1618
   15MOL   H124 6032   7.431   4.672   2.961 -0.1518 -1.9659 -0.8534
   15MOL   H125 6033   7.505   4.909   3.089 -0.0624 -0.1199 -0.4833
   15MOL   H126 6034   7.587   4.879   3.243 -1.3752  0.4843  0.1448
   15MOL   H127 6035   7.416   4.832   3.223  0.9754 -0.8432  1.2384
   15MOL   C128 6036   0.135   4.656   3.159  0.1772  0.2127  0.0307
   15MOL   C129 6037   0.259   4.695   3.249 -0.3345 -0.1860 -0.2167
   15MOL   C130 6038   0.213   4.803   3.348 -0.8439  0.0663 -0.0710
   15MOL   C131 6039   0.316   4.857   3.446  0.3075 -0.5661 -0.7072
   15MOL   C132 6040   0.459   4.858   3.393 -0.9151  0.1192  0.4387
   15MOL   C133 6041   0.315   4.781   3.585  0.4182  0.0788 -0.4471
   15MOL   C134 6042   0.281   4.998   3.484  0.2755  0.6682  0.3957
   15MOL   H135 6043   0.165   4.587   3.080  0.2199 -0.7179  0.8552
   15MOL   H136 6044   0.073   4.600   3.229 -0.6647  1.2483  0.1369
   15MOL   H137 6045   0.336   4.744   3.190 -2.5761  2.8926 -0.7164
   15MOL   H138 6046   0.178   4.890   3.293 -1.4101 -0.0144  0.1556
   15MOL   H139 6047   0.126   4.773   3.407  0.7384 -1.0514  1.7582
   15MOL   H140 6048   0.508   4.762   3.374 -2.6052 -0.6641 -0.0114
   15MOL   H141 6049   0.533   4.907   3.457  0.9197 -0.5815 -1.0834
   15MOL   H142 6050   0.471   4.910   3.299  0.1769  1.6712  1.4030
   15MOL   H143 6051   0.394   4.820   3.649  0.8174  1.2963 -1.6609
   15MOL   H144 6052   0.314   4.673   3.574  0.9110 -0.1159  1.3005
   15MOL   H145 6053   0.221   4.800   3.637  1.2083  1.4826  0.5171
   15MOL   H146 6054   0.177   5.001   3.517 -0.2834  0.6463 -1.2931
   15MOL   H147 6055   0.338   5.041   3.566  0.3583 -0.8363  1.1484
   15MOL   H148 6056   0.288   5.063   3.396  1.9836 -0.5171 -0.3681
   15MOL   C149 6057   0.309   4.568   3.321  0.1162  0.0248 -0.0304
   15MOL   C150 6058   0.358   4.450   3.236  0.5465  0.2654 -0.6063
   15MOL   C151 6059   0.487   4.501   3.172  0.3847  0.2624  0.3174
   15MOL   C152 6060   0.522   4.474   3.019  0.8384  0.0855  0.6252
   15MOL   C153 6061   0.671   4.515   3.005 -0.0547 -0.1233  0.9293
   15MOL   C154 6062   0.442   4.555   2.909 -0.1431 -0.4165  0.2617
   15MOL   C155 6063   0.512   4.320   2.994 -0.5321  0.4618 -0.8512
   15MOL   H156 6064   0.228   4.533   3.385  1.2060  1.2531  2.0906
   15MOL   H157 6065   0.388   4.602   3.388  0.2248  1.0375 -0.6471
   15MOL   H158 6066   0.283   4.416   3.165 -0.3721  2.3713 -0.6857
   15MOL   H159 6067   0.569   4.462   3.232 -0.3770  0.9459  1.8358
   15MOL   H160 6068   0.506   4.608   3.186  1.9149  0.0331  0.1189
   15MOL   H161 6069   0.704   4.495   2.904 -2.5438 -2.4962  0.5383
   15MOL   H162 6070   0.681   4.621   3.027  1.1295 -0.2749  1.1615
   15MOL   H163 6071   0.732   4.461   3.077  0.4639 -0.7370  0.0373
   15MOL   H164 6072   0.454   4.660   2.937  1.7981 -1.2362  2.7405
   15MOL   H165 6073   0.340   4.517   2.903 -1.0659  1.9411  0.4551
   15MOL   H166 6074   0.481   4.533   2.809  1.5084  1.6852  0.3950
   15MOL   H167 6075   0.408   4.290   3.006 -0.2632 -0.5481 -0.9238
   15MOL   H168 6076   0.535   4.299   2.890  2.5670 -0.8499  0.0223
   15MOL   H169 6077   0.576   4.265   3.064 -0.8850  0.6896 -0.3454
   15MOL   C170 6078   0.385   4.328   3.332 -0.5923  0.1624  0.0264
   15MOL   C171 6079   0.269   4.260   3.406  0.2673 -0.0047 -0.2194
   15MOL   C172 6080   0.262   4.305   3.554 -0.5239  0.1580  0.1447
   15MOL   C173 6081   0.130   4.310   3.639  0.0250 -0.3927 -1.1286
   15MOL   C174 6082   0.158   4.412   3.753  0.3134  0.0145  0.1103
   15MOL   C175 6083   0.094   4.172   3.706  0.4716 -0.2710  0.2144
   15MOL   C176 6084   0.016   4.361   3.554 -0.5543 -0.1513  0.3369
   15MOL   H177 6085   0.451   4.369   3.409 -1.2717  3.4652 -1.0716
   15MOL   H178 6086   0.444   4.255   3.277 -1.4092  1.2462 -2.3671
   15MOL   H179 6087   0.181   4.286   3.348 -0.4850  0.7129  1.2251
   15MOL   H180 6088   0.348   4.283   3.617  1.4600  2.9039 -1.4299
   15MOL   H181 6089   0.287   4.411   3.544 -1.2441  0.4657  1.6025
   15MOL   H182 6090   0.251   4.379   3.798  0.0343 -0.3349  0.4356
   15MOL   H183 6091   0.168   4.515   3.720  1.2056 -0.3055 -0.6523
   15MOL   H184 6092   0.080   4.403   3.828 -0.1044  0.2784 -0.2897
   15MOL   H185 6093   7.764   4.170   3.758  1.4718 -0.6778  2.0884
   15MOL   H186 6094   0.091   4.105   3.620 -1.8918 -1.1900  0.9732
   15MOL   H187 6095   0.165   4.148   3.785  0.9852  2.1205  0.5379
   15MOL   H188 6096   7.682   4.350   3.597 -2.1704 -0.2238 -3.2093
   15MOL   H189 6097   0.037   4.465   3.530  0.4882 -0.6363 -0.8801
   15MOL   H190 6098   7.766   4.304   3.463 -0.8371  0.7914 -0.2142
   15MOL   C191 6099   0.285   4.107   3.404  0.4881  0.3320  0.4347
   15MOL   C192 6100   0.238   4.043   3.269 -0.7443  0.0571 -0.1676
   15MOL   C193 6101   0.079   4.049   3.257 -0.5125  0.1021  0.5011
   15MOL   C194 6102   0.015   4.095   3.129  0.0849  0.5107  0.2975
   15MOL   C195 6103   0.071   4.026   3.006 -1.0022 -0.1692  0.4068
   15MOL   C196 6104   0.039   4.257   3.110  0.1958 -0.3027  0.1982
   15MOL   C197 6105   7.634   4.076   3.144 -0.2759 -0.3786 -0.0439
   15MOL   H198 6106   0.394   4.101   3.414  0.6153  2.2785  0.4438
   15MOL   H199 6107   0.240   4.069   3.496 -2.5883  0.1803 -1.0805
   15MOL   H200 6108   0.281   4.095   3.183  0.2747  0.0427  0.3357
   15MOL   H201 6109   0.040   4.106   3.341 -1.2005  0.5192 -0.0946
   15MOL   H202 6110   0.041   3.950   3.282  1.3250 -0.8559 -0.4177
   15MOL   H203 6111   0.180   4.021   3.003 -0.9536  1.1629 -0.6996
   15MOL   H204 6112   0.037   3.923   2.998  0.2891 -0.5527 -0.3833
   15MOL   H205 6113   0.026   4.071   2.917 -1.2295 -0.3961  0.4073
   15MOL   H206 6114   0.001   4.312   3.196 -3.5963 -2.4863  0.0347
   15MOL   H207 6115   0.142   4.293   3.105 -0.0130  0.0199 -3.2102
   15MOL   H208 6116   7.738   4.295   3.032  0.3492  2.3657  1.2992
   15MOL   H209 6117   7.559   4.100   3.068 -2.4139 -0.4739  1.9633
   15MOL   H210 6118   7.607   3.973   3.169 -3.5683 -0.2169 -2.5086
   15MOL   H211 6119   7.612   4.141   3.229 -1.6002 -0.6782 -0.1436
   15MOL   C212 6120   0.293   3.901   3.253 -0.1231 -0.9016 -0.3542
   15MOL   C213 6121   0.446   3.869   3.274 -0.5666 -0.4215 -0.4926
   15MOL   C214 6122   0.532   3.931   3.155  0.3595  0.4346  0.3629
   15MOL   C215 6123   0.676   3.957   3.169 -0.0636  0.8462 -0.1247
   15MOL   C216 6124   0.730   4.008   3.031 -0.0440 -0.0320  0.7017
   15MOL   C217 6125   0.708   4.056   3.283  0.3374 -0.1097 -0.1402
   15MOL   C218 6126   0.746   3.828   3.201 -0.6659 -0.7171  0.2273
   15MOL   H219 6127   0.245   3.845   3.333 -0.0925  0.0104  0.3080
   15MOL   H220 6128   0.267   3.847   3.162 -0.2270 -0.5500 -0.5353
   15MOL   H221 6129   0.470   3.914   3.371 -1.8519  0.0922 -0.3959
   15MOL   H222 6130   0.487   4.025   3.122  0.4473  0.3744  0.0790
   15MOL   H223 6131   0.518   3.865   3.070 -2.0709  1.2542  0.0849
   15MOL   H224 6132   0.801   4.091   3.039  1.4833 -1.2553 -0.0473
   15MOL   H225 6133   0.646   4.044   2.971  0.0288 -1.8220 -0.5215
   15MOL   H226 6134   0.782   3.931   2.975  0.5775  0.3791  0.7060
   15MOL   H227 6135   0.674   4.018   3.380  2.3769 -1.0572  0.2306
   15MOL   H228 6136   0.815   4.072   3.295  0.3790  1.5927 -2.4281
   15MOL   H229 6137   0.666   4.156   3.271  0.1595 -0.4080 -2.1611
   15MOL   H230 6138   0.733   3.801   3.306  3.0769 -0.1242  0.9258
   15MOL   H231 6139   0.853   3.849   3.191 -0.5244 -1.0998  0.8334
   15MOL   H232 6140   0.717   3.750   3.130 -2.4054  0.0630  0.0773
   15MOL   C233 6141   0.458   3.709   3.289  0.1971 -0.1854 -0.0212
   15MOL   C234 6142   0.442   3.650   3.438  0.1158 -0.1349 -0.2207
   15MOL   C235 6143   0.296   3.594   3.447 -0.3043 -0.4495 -0.2065
   15MOL   C236 6144   0.221   3.644   3.574  0.1324  0.4377 -0.2394
   15MOL   C237 6145   0.308   3.611   3.701 -0.0564 -0.0709  0.3278
   15MOL   C238 6146   0.188   3.795   3.572  0.1008  0.1011  0.1433
   15MOL   C239 6147   0.081   3.574   3.577 -0.3063  0.3689  0.3178
   15MOL   H240 6148   0.554   3.680   3.246 -1.2167  0.5730 -3.8675
   15MOL   H241 6149   0.396   3.649   3.223 -0.4694  0.6176 -0.1400
   15MOL   H242 6150   0.456   3.734   3.506  0.0640 -0.6622  0.4496
   15MOL   H243 6151   0.237   3.618   3.359 -1.0024 -2.1030 -0.2046
   15MOL   H244 6152   0.304   3.486   3.447  1.4898 -0.3384 -0.5970
   15MOL   H245 6153   0.395   3.676   3.706  1.4011 -1.8025 -1.5695
   15MOL   H246 6154   0.335   3.505   3.711 -0.3259 -0.2696 -0.9010
   15MOL   H247 6155   0.254   3.647   3.788  0.0899  1.8215 -0.3579
   15MOL   H248 6156   0.169   3.834   3.672 -0.8324  0.5427 -0.2032
   15MOL   H249 6157   0.270   3.859   3.539 -0.0683  0.0732 -0.3428
   15MOL   H250 6158   0.106   3.832   3.511  0.5516  4.9624  2.2965
   15MOL   H251 6159   0.106   3.468   3.584  0.5240  0.6381  1.5436
   15MOL   H252 6160   0.017   3.601   3.661  0.0621  1.2107  0.3347
   15MOL   H253 6161   0.036   3.597   3.480 -1.5854 -1.2155  0.5075
   15MOL   C254 6162   0.547   3.534   3.455 -0.0326 -0.4881 -0.4086
   15MOL   C255 6163   0.691   3.566   3.478 -0.3027  0.9271  0.2474
   15MOL   C256 6164   0.775   3.445   3.521 -0.4402 -0.2369  0.8133
   15MOL   C257 6165   0.792   3.322   3.426 -0.7213  0.4902 -0.5302
   15MOL   C258 6166   0.670   3.229   3.416  0.2486  1.0191  0.0886
   15MOL   C259 6167   0.915   3.242   3.483  0.4313 -0.5051 -0.7786
   15MOL   C260 6168   0.830   3.376   3.289  0.2470  0.4209 -0.6295
   15MOL   H261 6169   0.532   3.481   3.361 -2.4875 -0.5248 -0.0203
   15MOL   H262 6170   0.520   3.479   3.546 -0.0027  1.0591  0.5584
   15MOL   H263 6171   0.734   3.588   3.380  0.3996 -1.7438 -0.0894
   15MOL   H264 6172   0.874   3.482   3.546 -0.5495  1.7044 -1.4021
   15MOL   H265 6173   0.735   3.400   3.612 -1.1409  2.8819  2.1029
   15MOL   H266 6174   0.687   3.160   3.333  2.1523 -0.2880  1.5215
   15MOL   H267 6175   0.581   3.285   3.391 -0.1599  1.6337  2.7510
   15MOL   H268 6176   0.648   3.170   3.505 -0.1831  0.2289 -0.5374
   15MOL   H269 6177   0.993   3.315   3.504 -0.8122  0.7110 -0.3058
   15MOL   H270 6178   0.937   3.168   3.405  0.0967 -1.5207  0.0793
   15MOL   H271 6179   0.880   3.186   3.570 -3.4886  2.2686 -0.4813
   15MOL   H272 6180   0.743   3.423   3.245 -0.0768 -0.3556 -0.8158
   15MOL   H273 6181   0.903   3.457   3.296  1.1237 -0.2572 -1.8348
   15MOL   H274 6182   0.873   3.307   3.216 -2.2152 -1.5524 -0.2722
   15MOL   C275 6183   0.715   3.691   3.566 -0.1660 -0.2055  0.6647
   15MOL   C276 6184   0.859   3.740   3.609  0.0789 -0.5815 -0.6244
   15MOL   C277 6185   0.968   3.754   3.498 -1.0997 -0.5130 -0.5565
   15MOL   C278 6186   1.118   3.735   3.532  0.4470  0.3248  0.5775
   15MOL   C279 6187   1.170   3.832   3.640  0.2736  0.3261 -0.0897
   15MOL   C280 6188   1.162   3.594   3.556  0.3894 -0.3552  0.4353
   15MOL   C281 6189   1.182   3.767   3.395  0.7134  0.0720 -0.4130
   15MOL   H282 6190   0.660   3.774   3.521 -1.2083 -1.6659 -0.8096
   15MOL   H283 6191   0.662   3.664   3.658 -0.5781 -0.9362  0.2166
   15MOL   H284 6192   0.890   3.658   3.673 -0.3125 -1.2014 -1.2205
   15MOL   H285 6193   0.954   3.842   3.436  0.1694 -1.1688 -1.7903
   15MOL   H286 6194   0.941   3.682   3.421 -2.3030 -0.2396 -0.3980
   15MOL   H287 6195   1.276   3.848   3.624  0.4328 -1.5888 -1.1531
   15MOL   H288 6196   1.126   3.928   3.613  0.0206 -0.2236 -1.6854
   15MOL   H289 6197   1.152   3.807   3.745  2.1503 -0.5477  0.0505
   15MOL   H290 6198   1.112   3.559   3.647 -2.1673  0.3309 -0.6701
   15MOL   H291 6199   1.268   3.575   3.573  0.2926  0.0052  1.4589
   15MOL   H292 6200   1.128   3.526   3.477  1.1153 -0.2646  0.0466
   15MOL   H293 6201   1.175   3.874   3.377  0.3971  0.2935  0.9551
   15MOL   H294 6202   1.140   3.704   3.316  0.4564 -1.1804  0.7023
   15MOL   H295 6203   1.289   3.743   3.397  1.0281  1.5147  0.2692
   15MOL   C296 6204   0.838   3.864   3.697 -0.6819  0.4658 -0.0907
   15MOL   C297 6205   0.781   3.837   3.839 -0.0899 -0.1754 -0.2377
   15MOL   C298 6206   0.709   3.966   3.894  0.2196  0.3467 -0.0315
   15MOL   C299 6207   0.549   3.968   3.892  0.7353  0.5680 -0.0206
   15MOL   C300 6208   0.477   3.857   3.970 -0.0921  0.5335 -0.1777
   15MOL   C301 6209   0.503   4.110   3.938  0.4864  0.4439  0.0226
   15MOL   C302 6210   0.503   3.959   3.743 -0.7541 -0.0407 -0.0560
   15MOL   H303 6211   0.772   3.936   3.648 -0.9791  0.2813  0.0324
   15MOL   H304 6212   0.929   3.921   3.714 -0.6302  0.5445 -0.6397
   15MOL   H305 6213   0.704   3.760   3.841  0.4314 -0.6821  1.1948
   15MOL   H306 6214   0.747   4.062   3.860  0.2915  0.5131  0.5121
   15MOL   H307 6215   0.725   3.972   4.002 -0.4696 -2.3357  0.2534
   15MOL   H308 6216   0.505   3.757   3.935  1.9365  1.1770 -0.4563
   15MOL   H309 6217   0.491   3.857   4.078 -1.3170 -1.8696  0.0239
   15MOL   H310 6218   0.369   3.859   3.956 -0.1546  1.2043  0.3982
   15MOL   H311 6219   0.499   4.104   4.047 -2.1707 -1.9452 -0.1404
   15MOL   H312 6220   0.581   4.178   3.905  2.0644 -0.6317  1.4447
   15MOL   H313 6221   0.402   4.141   3.912  0.7485  2.8140  1.7372
   15MOL   H314 6222   0.550   3.881   3.683  1.4269  2.0096 -1.0437
   15MOL   H315 6223   0.396   3.941   3.732 -1.3896  2.2432  2.0584
   15MOL   H316 6224   0.521   4.048   3.684  0.2047 -0.4559 -0.4013
   15MOL   C317 6225   0.887   3.780   3.942 -0.2068  0.4214  0.0625
   15MOL   C318 6226   0.845   3.736   4.087 -0.9131 -0.1667 -0.8021
   15MOL   C319 6227   0.885   3.586   4.110 -0.0878 -0.1300  0.4588
   15MOL   C320 6228   0.811   3.466   4.051 -0.5809 -0.2351 -0.0099
   15MOL   C321 6229   0.857   3.426   3.905 -0.2981 -0.0492 -0.0559
   15MOL   C322 6230   0.658   3.481   4.056 -0.6215 -0.0105  0.6058
   15MOL   C323 6231   0.855   3.339   4.137 -0.1365 -1.0272 -0.3455
   15MOL   H324 6232   0.919   3.695   3.882  0.6665 -0.7785  2.1651
   15MOL   H325 6233   0.969   3.852   3.941  0.8351 -0.5399  4.3830
   15MOL   H326 6234   0.738   3.751   4.100 -0.8575  0.2340 -0.8075
   15MOL   H327 6235   0.886   3.582   4.219  0.1120 -1.4301  0.4087
   15MOL   H328 6236   0.992   3.568   4.097 -0.1926  0.0545 -0.7013
   15MOL   H329 6237   0.964   3.406   3.911  0.0102  0.6764 -2.5984
   15MOL   H330 6238   0.831   3.505   3.833 -0.8689 -1.4721 -1.4417
   15MOL   H331 6239   0.812   3.336   3.865  2.0548 -0.4726 -1.8362
   15MOL   H332 6240   0.625   3.406   3.984  3.0336 -0.1060 -1.0801
   15MOL   H333 6241   0.611   3.457   4.152 -1.5756 -2.6374 -0.4838
   15MOL   H334 6242   0.628   3.581   4.024 -0.6272  0.3743  1.7869
   15MOL   H335 6243   0.962   3.317   4.143  0.1964 -0.1747 -2.8423
   15MOL   H336 6244   0.797   3.253   4.108  0.1564 -0.9747 -1.0859
   15MOL   H337 6245   0.832   3.353   4.243 -2.3152 -2.1935 -0.6547
   15MOL   C338 6246   0.914   3.834   4.184  0.4954 -0.1541 -0.0287
   15MOL   C339 6247   0.857   3.837   4.326 -0.3981  0.2093 -0.3960
   15MOL   C340 6248   0.725   3.914   4.333 -0.0379  0.1505  0.5060
   15MOL   C341 6249   0.626   3.880   4.443  0.2659  0.0641 -0.0336
   15MOL   C342 6250   0.500   3.972   4.412  0.0763 -0.1077  0.3120
   15MOL   C343 6251   0.591   3.734   4.439 -0.1544 -0.2875  0.3344
   15MOL   C344 6252   0.667   3.915   4.584  0.8299 -0.2619 -0.7995
   15MOL   H345 6253   0.919   3.934   4.140  0.4494 -0.5010 -0.8358
   15MOL   H346 6254   1.020   3.813   4.203  1.1245  2.2737 -0.6359
   15MOL   H347 6255   0.849   3.733   4.356  0.1483 -0.4203 -2.3681
   15MOL   H348 6256   0.676   3.893   4.239  3.3660  0.1274 -1.3600
   15MOL   H349 6257   0.742   4.021   4.340 -2.0702  0.4872  0.3365
   15MOL   H350 6258   0.418   3.944   4.477 -0.2047  0.1537  0.0732
   15MOL   H351 6259   0.526   4.078   4.408 -1.3660  0.2455  0.1157
   15MOL   H352 6260   0.470   3.948   4.310 -0.9270 -1.1216  0.8480
   15MOL   H353 6261   0.680   3.671   4.452 -0.2490 -0.0939  2.0304
   15MOL   H354 6262   0.507   3.702   4.500 -0.9047 -0.4148 -0.7644
   15MOL   H355 6263   0.569   3.705   4.337 -1.8555  1.0594  0.3005
   15MOL   H356 6264   0.602   3.883   4.665  1.7889 -0.3603 -0.0489
   15MOL   H357 6265   0.762   3.868   4.610  0.3690 -0.9658 -0.3948
   15MOL   H358 6266   0.685   4.023   4.590  0.8581 -0.3372  0.6776
   15MOL   C359 6267   0.965   3.913   4.407 -0.0162  0.8190 -0.4732
   15MOL   C360 6268   1.105   3.852   4.441  0.4058  0.1368 -0.1535
   15MOL   C361 6269   1.217   3.884   4.336 -0.0969  0.0196 -0.4330
   15MOL   C362 6270   1.336   3.969   4.375  0.0612  0.2520  0.2496
   15MOL   C363 6271   1.448   3.983   4.265  0.1156 -0.8562 -0.5973
   15MOL   C364 6272   1.390   3.914   4.506 -0.0738  0.3781  0.0503
   15MOL   C365 6273   1.290   4.110   4.406 -0.0259 -0.5054  0.1675
   15MOL   H366 6274   0.928   3.956   4.500 -1.8480 -0.8437 -0.4004
   15MOL   H367 6275   0.995   4.004   4.354  2.5764 -0.1947 -0.8282
   15MOL   H368 6276   1.123   3.911   4.531 -0.3564 -3.2288  2.3287
   15MOL   H369 6277   1.258   3.788   4.305  0.2109  0.0954 -0.2587
   15MOL   H370 6278   1.176   3.931   4.246 -1.7367 -0.5533  0.0140
   15MOL   H371 6279   1.483   3.884   4.236  0.4337 -0.5546 -1.2580
   15MOL   H372 6280   1.411   4.037   4.178 -1.6683 -1.0861 -0.0102
   15MOL   H373 6281   1.526   4.047   4.306 -1.2259  0.9409 -0.7917
   15MOL   H374 6282   1.487   3.959   4.528 -0.1410  0.5850 -0.0728
   15MOL   H375 6283   1.414   3.809   4.491  1.1939  0.5257  0.9265
   15MOL   H376 6284   1.326   3.914   4.594 -0.4493 -1.1676 -0.2012
   15MOL   H377 6285   1.262   4.150   4.309 -0.3985 -1.5663 -0.1709
   15MOL   H378 6286   1.368   4.180   4.437 -0.1450 -0.5929  0.6753
   15MOL   H379 6287   1.200   4.110   4.469 -0.6106 -0.7659 -0.6604
   15MOL   C380 6288   1.092   3.700   4.487  0.4262  0.0391 -0.1226
   15MOL   C381 6289   1.013   3.677   4.619 -0.0425  0.6357  0.0070
   15MOL   C382 6290   1.095   3.720   4.748 -0.2510 -0.1477  0.2823
   15MOL   C383 6291   1.019   3.715   4.888 -0.5615  0.1097 -0.1203
   15MOL   C384 6292   0.880   3.787   4.893 -0.1584 -0.0635 -0.4003
   15MOL   C385 6293   1.103   3.792   4.987 -0.2401 -0.1399 -0.0997
   15MOL   C386 6294   1.018   3.571   4.943 -0.9676  0.2426 -0.0014
   15MOL   H387 6295   1.195   3.669   4.505 -0.3471 -1.7012  1.4841
   15MOL   H388 6296   1.049   3.649   4.400  0.6479 -0.3102 -0.0260
   15MOL   H389 6297   0.918   3.730   4.612  0.5067  1.4422 -1.7279
   15MOL   H390 6298   1.190   3.668   4.757  0.2839  0.8998  0.7793
   15MOL   H391 6299   1.118   3.826   4.734 -0.5173 -0.0875  0.2872
   15MOL   H392 6300   0.834   3.796   4.992  0.3665  1.1670 -0.2469
   15MOL   H393 6301   0.898   3.884   4.846 -1.9659  0.2943 -0.3908
   15MOL   H394 6302   0.821   3.725   4.826 -1.7200 -1.5352  2.2448
   15MOL   H395 6303   1.210   3.775   4.982  0.0274  1.2650  0.6548
   15MOL   H396 6304   1.076   3.769   5.090  0.4889  0.0239  0.1287
   15MOL   H397 6305   1.102   3.899   4.966  2.3098  0.4311  2.4492
   15MOL   H398 6306   0.941   3.550   5.018  0.1078 -1.7651  0.5887
   15MOL   H399 6307   1.111   3.532   4.986 -1.0321  2.7688  2.5379
   15MOL   H400 6308   0.999   3.498   4.864  1.5648  2.7589 -3.0411
   15MOL   C401 6309   0.963   3.532   4.613  0.3247  0.3153  0.1443
   15MOL   C402 6310   1.068   3.421   4.619  0.5817  1.0663  0.0767
   15MOL   C403 6311   1.004   3.280   4.596  0.1265  0.5618  0.2132
   15MOL   C404 6312   1.101   3.162   4.590 -0.0165 -0.0397  0.0040
   15MOL   C405 6313   1.146   3.128   4.449 -0.0695 -0.7605 -0.3121
   15MOL   C406 6314   1.022   3.044   4.646 -0.1774 -0.0849 -0.5315
   15MOL   C407 6315   1.215   3.180   4.683 -0.5352 -0.0707 -0.1872
   15MOL   H408 6316   0.888   3.528   4.692  1.0603  0.9129  0.8898
   15MOL   H409 6317   0.901   3.525   4.524  1.1688 -0.2561 -0.4020
   15MOL   H410 6318   1.136   3.434   4.535  1.1585  1.0098  0.5358
   15MOL   H411 6319   0.960   3.293   4.497  1.3842 -1.8654 -0.7301
   15MOL   H412 6320   0.919   3.262   4.662 -0.5562 -0.9831 -1.0230
   15MOL   H413 6321   1.191   3.212   4.397  0.8492 -0.7340  0.5059
   15MOL   H414 6322   1.071   3.074   4.392 -1.9316  1.1031  0.3591
   15MOL   H415 6323   1.230   3.058   4.459  0.8236  0.4165  0.6910
   15MOL   H416 6324   1.092   2.961   4.659  1.6111  1.3028 -0.9884
   15MOL   H417 6325   0.936   3.021   4.584 -0.8600 -1.9038  1.0511
   15MOL   H418 6326   0.987   3.062   4.747  0.5855 -1.2316 -0.0553
   15MOL   H419 6327   1.177   3.182   4.785 -0.9954 -1.1196 -0.3352
   15MOL   H420 6328   1.291   3.102   4.682 -0.0541  0.3865  0.0006
   15MOL   H421 6329   1.274   3.271   4.668 -1.3444  0.9544  2.5055
   15MOL   H422 6330   1.121   3.420   4.714  0.5855 -0.1510  0.0668
   16MOL     C1 6331   6.403   7.659   7.384  0.0390 -0.1460  0.3227
   16MOL     C2 6332   6.534   7.585   7.348  0.7644  0.5429  0.3037
   16MOL     C3 6333   6.589   7.641   7.215  0.4800  0.0280  0.2753
   16MOL     C4 6334   6.743   7.667   7.202 -0.0792  0.1401 -0.3466
   16MOL     C5 6335   6.777   0.018   7.301  0.0721  0.0388  0.1299
   16MOL     C6 6336   6.830   7.547   7.225 -0.2963 -0.5693 -0.6072
   16MOL     C7 6337   6.767   7.716   7.060 -0.0548  0.0480 -0.1892
   16MOL     H8 6338   6.435   7.759   7.413  2.1161 -0.6643 -0.1164
   16MOL     H9 6339   6.339   7.659   7.296 -1.1566  0.6559  1.1740
   16MOL    H10 6340   6.600   7.612   7.430  2.9504 -1.7385 -0.6228
   16MOL    H11 6341   6.531   7.732   7.199  0.7024  0.2058  0.4744
   16MOL    H12 6342   6.557   7.584   7.128  1.5478  2.0229 -1.4892
   16MOL    H13 6343   6.878   0.057   7.288 -0.7666  1.7227 -1.7743
   16MOL    H14 6344   6.769   7.759   7.406  0.7913  1.1797  0.4722
   16MOL    H15 6345   6.699   0.095   7.299 -0.8909 -0.9525 -1.8711
   16MOL    H16 6346   6.812   7.456   7.168 -2.1020  1.1561 -2.8671
   16MOL    H17 6347   6.936   7.574   7.220 -0.2835 -0.7804 -1.4193
   16MOL    H18 6348   6.808   7.530   7.331  0.2603  1.5922 -0.1044
   16MOL    H19 6349   6.711   0.040   7.038 -1.4414 -0.6627  0.3939
   16MOL    H20 6350   6.741   7.640   6.986 -0.2140  1.0476 -1.1614
   16MOL    H21 6351   6.875   7.730   7.053  0.2698 -1.6493  0.9039
   16MOL    H22 6352   6.344   7.622   7.469 -1.1804 -0.8916 -0.8305
   16MOL    C23 6353   6.522   7.430   7.340  0.1051  0.1850  0.6752
   16MOL    C24 6354   6.495   7.360   7.477  0.3048  0.4394  0.6028
   16MOL    C25 6355   6.615   7.366   7.571 -0.3282 -0.3830  0.0811
   16MOL    C26 6356   6.586   7.395   7.724 -0.4385 -0.5332  0.4193
   16MOL    C27 6357   6.717   7.400   0.042 -0.4552  0.3618  0.3052
   16MOL    C28 6358   6.508   7.524   7.748 -0.1152  0.6057  0.1091
   16MOL    C29 6359   6.503   7.287   0.017  0.5337 -0.5250 -0.5175
   16MOL    H30 6360   6.439   7.409   7.272  0.9375 -2.0631  0.2922
   16MOL    H31 6361   6.611   7.389   7.290 -1.0814  1.3506 -2.5628
   16MOL    H32 6362   6.410   7.408   7.525 -1.3132 -2.6932  0.9397
   16MOL    H33 6363   6.688   7.442   7.540 -1.2979  0.6058  0.1799
   16MOL    H34 6364   6.669   7.272   7.565 -0.2992 -0.5349  2.5393
   16MOL    H35 6365   6.787   7.462   7.751  0.1768  0.6892  1.4197
   16MOL    H36 6366   6.707   7.459   0.133  0.5558  1.1292 -0.0735
   16MOL    H37 6367   6.766   7.303   0.054 -3.3493 -1.3595 -1.2490
   16MOL    H38 6368   6.487   7.535   0.088  0.9432  1.6058  0.2265
   16MOL    H39 6369   6.556   7.619   7.722 -0.8506  0.4870 -1.8082
   16MOL    H40 6370   6.406   7.512   7.710  0.0642  0.6365 -0.3929
   16MOL    H41 6371   6.531   7.183   0.004 -0.0137 -0.9848  1.7708
   16MOL    H42 6372   6.397   7.290   7.761  0.7414  0.0682 -1.4874
   16MOL    H43 6373   6.507   7.285   0.126  1.8306  0.6300 -0.5164
   16MOL    C44 6374   6.451   7.211   7.454 -0.1804  0.0337  0.2910
   16MOL    C45 6375   6.319   7.177   7.375  0.0284  0.7835  0.0946
   16MOL    C46 6376   6.191   7.229   7.442  0.5718  0.5264  0.3108
   16MOL    C47 6377   6.079   7.301   7.354  0.4572 -0.1187 -0.3509
   16MOL    C48 6378   6.047   7.221   7.225 -0.3912 -1.1627 -0.7473
   16MOL    C49 6379   6.121   7.438   7.312  0.6152 -0.4185 -0.3660
   16MOL    C50 6380   5.952   7.293   7.437 -0.5649 -0.0665 -0.5614
   16MOL    H51 6381   6.533   7.151   7.414 -0.9683 -1.8775  1.5067
   16MOL    H52 6382   6.434   7.179   7.556  1.8057 -1.3426  0.2203
   16MOL    H53 6383   6.322   7.228   7.279  1.7755  0.8358  0.1618
   16MOL    H54 6384   6.219   7.300   7.520  1.5824  1.3172 -0.7557
   16MOL    H55 6385   6.132   7.152   7.493 -1.0444 -0.4219 -2.8971
   16MOL    H56 6386   5.987   7.276   7.152  0.3337 -3.2978 -3.0203
   16MOL    H57 6387   5.987   7.130   7.236  0.2048 -1.2203  2.5653
   16MOL    H58 6388   6.134   7.197   7.165  1.4824 -0.1276  1.4791
   16MOL    H59 6389   6.142   7.505   7.395  0.3703  0.6921 -1.1862
   16MOL    H60 6390   6.216   7.443   7.259  0.5851 -0.8278 -0.4560
   16MOL    H61 6391   6.039   7.496   7.269  1.7441  1.9852  0.6301
   16MOL    H62 6392   5.935   7.191   7.470 -0.1791  0.3949  1.0737
   16MOL    H63 6393   5.966   7.366   7.517  0.1885 -2.3621  1.4234
   16MOL    H64 6394   5.860   7.326   7.388 -1.1293  0.3989  0.7886
   16MOL    C65 6395   6.303   7.024   7.339 -0.0323  0.5028  0.5101
   16MOL    C66 6396   6.413   6.941   7.263 -0.1495 -0.0830 -0.4917
   16MOL    C67 6397   6.438   6.989   7.114 -0.3124  0.0510 -0.6668
   16MOL    C68 6398   6.581   7.011   7.058  0.5310 -0.0470  0.9008
   16MOL    C69 6399   6.666   6.888   7.088 -0.5995  0.5278 -0.1572
   16MOL    C70 6400   6.580   7.057   6.910  0.3143 -0.1224 -0.0858
   16MOL    C71 6401   6.649   7.129   7.125  0.8085 -0.3906 -0.2147
   16MOL    H72 6402   6.281   6.975   7.434 -0.8746  0.9188  0.5380
   16MOL    H73 6403   6.206   7.013   7.290 -0.8341 -1.4640  2.4759
   16MOL    H74 6404   6.503   6.955   7.323  0.2363 -0.9338 -0.8582
   16MOL    H75 6405   6.382   7.081   7.098  0.3650  0.6361  0.2972
   16MOL    H76 6406   6.399   6.919   7.040 -3.5382 -0.6530  1.5409
   16MOL    H77 6407   6.764   6.889   7.040  0.5031 -1.8369  1.9366
   16MOL    H78 6408   6.689   6.888   7.194 -1.9557  0.1435  0.1506
   16MOL    H79 6409   6.607   6.802   7.058 -1.5410  1.3685 -0.7397
   16MOL    H80 6410   6.511   7.141   6.901  0.9168  0.2099 -1.6356
   16MOL    H81 6411   6.534   6.981   6.847  0.2929  0.8752 -1.2739
   16MOL    H82 6412   6.682   7.070   6.876  0.2218  1.6797  0.2583
   16MOL    H83 6413   6.580   7.212   7.105 -0.9591 -2.3648 -2.7586
   16MOL    H84 6414   6.741   7.148   7.070 -1.4109  1.1813 -3.5503
   16MOL    H85 6415   6.669   7.118   7.231  0.1478 -0.2494 -0.0739
   16MOL    C86 6416   6.376   6.789   7.262  0.3214 -0.0567 -1.1374
   16MOL    C87 6417   6.397   6.714   7.401 -0.3697  0.7312  0.1253
   16MOL    C88 6418   6.546   6.691   7.433 -0.0520  0.7243  0.2431
   16MOL    C89 6419   6.594   6.738   7.580  0.3469 -0.2015  0.0015
   16MOL    C90 6420   6.581   6.886   7.620  0.3141 -0.2325  0.0645
   16MOL    C91 6421   6.743   6.695   7.601  0.1169 -0.0961  0.3934
   16MOL    C92 6422   6.519   6.651   7.689 -0.2104  0.2525  0.2233
   16MOL    H93 6423   6.439   6.737   7.190  0.2709 -1.0732 -0.4607
   16MOL    H94 6424   6.276   6.782   7.220 -0.5956  1.1887  0.7634
   16MOL    H95 6425   6.359   6.782   7.477 -0.4277  0.6049  0.2096
   16MOL    H96 6426   6.608   6.740   7.359  0.8455 -0.0822  0.4423
   16MOL    H97 6427   6.572   6.586   7.418 -1.0370  0.5763 -0.4179
   16MOL    H98 6428   6.479   6.916   7.601  0.2290 -1.1186 -0.8822
   16MOL    H99 6429   6.651   6.941   7.557 -1.0532  0.7746 -0.5918
   16MOL   H100 6430   6.608   6.908   7.724  0.0633 -0.4946  0.1859
   16MOL   H101 6431   6.811   6.732   7.526 -0.3551  0.6490  0.3315
   16MOL   H102 6432   6.776   6.728   7.700  0.1137  1.9541 -0.2798
   16MOL   H103 6433   6.756   6.588   7.587  1.5466  0.3787 -2.1755
   16MOL   H104 6434   6.412   6.675   7.697 -0.2094  0.2429  0.2668
   16MOL   H105 6435   6.535   6.545   7.674  1.2527  0.4680  0.2440
   16MOL   H106 6436   6.577   6.670   0.014  2.9527 -0.2343 -1.6633
   16MOL   C107 6437   6.325   6.580   7.406  0.1836 -0.0590 -0.1534
   16MOL   C108 6438   6.167   6.585   7.414 -0.6689  0.5467  0.3028
   16MOL   C109 6439   6.116   6.447   7.365 -0.3797 -0.0901 -0.1131
   16MOL   C110 6440   6.087   6.431   7.212  0.2111 -0.3456 -0.0655
   16MOL   C111 6441   5.952   6.503   7.171  0.2707 -0.7034  0.7333
   16MOL   C112 6442   6.048   6.289   7.190 -0.4219 -0.3825  0.5771
   16MOL   C113 6443   6.202   6.455   7.122 -0.4114  0.3961  0.2226
   16MOL   H114 6444   6.364   6.524   7.492  0.1613  2.3964  1.5082
   16MOL   H115 6445   6.361   6.513   7.328 -2.7241  0.2125 -1.7931
   16MOL   H116 6446   6.127   6.661   7.346  1.3216  0.1932 -1.3319
   16MOL   H117 6447   6.168   6.368   7.420  0.6196  0.9447  0.4509
   16MOL   H118 6448   6.021   6.428   7.416 -0.5926  1.0289 -0.0800
   16MOL   H119 6449   5.942   6.609   7.192 -0.8527  0.2389 -3.9929
   16MOL   H120 6450   5.926   6.490   7.066  1.7307 -0.4386  0.3198
   16MOL   H121 6451   5.872   6.458   7.230  0.2767  1.3582  2.3846
   16MOL   H122 6452   6.036   6.264   7.084 -2.2400 -1.7458  1.0789
   16MOL   H123 6453   5.959   6.253   7.242 -1.6949  1.8182  0.0065
   16MOL   H124 6454   6.133   6.224   7.210 -2.0368 -2.5348  0.7028
   16MOL   H125 6455   6.296   6.402   7.135 -0.0672  0.7672 -0.6854
   16MOL   H126 6456   6.222   6.562   7.123  2.0840 -0.0398 -0.1617
   16MOL   H127 6457   6.170   6.437   7.019  0.2093 -0.9669  0.2487
   16MOL   C128 6458   6.125   6.599   7.562  0.3833 -0.1468  0.0017
   16MOL   C129 6459   6.004   6.693   7.611  0.2183  0.4323  0.4017
   16MOL   C130 6460   5.870   6.642   7.540 -0.0688 -0.1634  0.2501
   16MOL   C131 6461   5.764   6.742   7.490  0.3988  0.4849  0.1488
   16MOL   C132 6462   5.673   6.673   7.394  0.0739  0.2239  0.6394
   16MOL   C133 6463   5.834   6.863   7.414 -0.1108  0.3872 -0.1608
   16MOL   C134 6464   5.681   6.787   7.616 -0.3524  0.3200 -0.0618
   16MOL   H135 6465   6.216   6.626   7.615 -0.7424  1.4836  1.1577
   16MOL   H136 6466   6.104   6.500   7.603  1.0530 -0.0603  0.5562
   16MOL   H137 6467   6.038   6.792   7.580 -0.9695  1.6328  2.8818
   16MOL   H138 6468   5.909   6.599   7.448  1.4864  1.0965  0.2900
   16MOL   H139 6469   5.834   6.550   7.584 -0.4624 -0.6933 -1.1450
   16MOL   H140 6470   5.587   6.731   7.362  0.2385  0.8375  1.3085
   16MOL   H141 6471   5.634   6.577   7.427 -1.7285  0.9373  0.6242
   16MOL   H142 6472   5.728   6.645   7.304 -1.2841  0.3998 -0.2603
   16MOL   H143 6473   5.888   6.923   7.487 -0.1690  1.6828 -1.1485
   16MOL   H144 6474   5.763   6.931   7.366 -1.4314  1.2565  2.8976
   16MOL   H145 6475   5.901   6.825   7.336 -0.2931  0.2886 -0.2696
   16MOL   H146 6476   5.736   6.863   7.671  0.2429  0.5048 -0.9030
   16MOL   H147 6477   5.587   6.833   7.585 -0.7473  0.1382  0.8474
   16MOL   H148 6478   5.671   6.709   7.691  0.5243 -1.1408 -1.4417
   16MOL   C149 6479   5.987   6.679   7.765  0.4194  0.1071 -0.2347
   16MOL   C150 6480   6.082   6.755   0.090  0.4708 -0.0464  0.0538
   16MOL   C151 6481   6.043   6.904   0.097  0.4273 -0.3320  0.0316
   16MOL   C152 6482   6.145   7.017   0.098 -1.3653  1.4057  0.9665
   16MOL   C153 6483   6.070   7.151   0.076 -0.6137 -0.5798  0.0320
   16MOL   C154 6484   6.242   7.009   7.743  0.0194  0.6322  0.6268
   16MOL   C155 6485   6.230   7.031   0.230  0.0899  0.1269 -0.1046
   16MOL   H156 6486   5.983   6.572   0.017 -1.0045  0.1520 -0.2357
   16MOL   H157 6487   5.885   6.708   0.026  0.1246 -0.4484 -0.7340
   16MOL   H158 6488   6.184   6.748   0.053  1.3603 -0.3440  2.4640
   16MOL   H159 6489   5.977   6.917   0.183 -0.0989  0.6672 -0.5293
   16MOL   H160 6490   5.971   6.931   0.020  0.4693  0.3547  0.2300
   16MOL   H161 6491   6.013   7.149   7.749 -1.7462  2.6471  0.5913
   16MOL   H162 6492   6.003   7.166   0.160 -1.8596 -0.6929 -0.9254
   16MOL   H163 6493   6.134   7.239   0.077 -0.4998 -0.6709  0.7277
   16MOL   H164 6494   6.307   6.923   7.757  0.8877  0.8913 -1.6632
   16MOL   H165 6495   6.306   7.094   7.721 -0.7506  1.0181 -0.1599
   16MOL   H166 6496   6.182   6.984   7.656 -1.8095  0.7668  1.8070
   16MOL   H167 6497   6.280   6.939   0.258  0.4120  1.0654  2.4945
   16MOL   H168 6498   6.299   7.115   0.217  0.0855  0.0276 -0.8498
   16MOL   H169 6499   6.163   7.062   0.309  0.8915 -0.9917  1.0289
   16MOL   C170 6500   6.089   6.687   0.231 -0.3762 -0.5801  0.4147
   16MOL   C171 6501   6.126   6.537   0.250  0.0874 -0.4806 -0.4160
   16MOL   C172 6502   6.098   6.492   0.395  0.5937 -0.0525  0.0352
   16MOL   C173 6503   5.977   6.402   0.419 -0.7819 -0.3633 -0.1633
   16MOL   C174 6504   5.984   6.269   0.338 -0.3428  0.3307  0.0603
   16MOL   C175 6505   5.853   6.480   0.374 -0.3352 -0.3040 -0.0832
   16MOL   C176 6506   5.967   6.375   0.569 -0.3686  0.6679 -0.0527
   16MOL   H177 6507   5.988   6.706   0.265 -0.1197 -1.9870  2.0411
   16MOL   H178 6508   6.143   6.747   0.304  0.6474 -0.0142 -0.7865
   16MOL   H179 6509   6.075   6.471   0.180 -0.3970 -2.4008  1.6988
   16MOL   H180 6510   6.181   6.429   0.429 -0.5705 -1.9705 -0.6481
   16MOL   H181 6511   6.100   6.574   0.467 -1.6079  0.3901 -0.3884
   16MOL   H182 6512   5.901   6.206   0.368  1.0368 -1.0086  1.1359
   16MOL   H183 6513   5.988   6.279   0.230 -0.9464 -0.0659  0.0029
   16MOL   H184 6514   6.075   6.212   0.356 -0.0575  1.1028  1.1630
   16MOL   H185 6515   5.864   6.513   0.270  1.9191 -1.2372 -0.1784
   16MOL   H186 6516   5.774   6.406   0.374  1.2851 -2.0771  0.8423
   16MOL   H187 6517   5.824   6.564   0.437  0.5969  1.6460 -2.1401
   16MOL   H188 6518   5.939   6.465   0.624  3.0885  1.2070  0.9401
   16MOL   H189 6519   5.901   6.290   0.586  2.3793 -1.4845  0.0549
   16MOL   H190 6520   6.059   6.350   0.620  0.2762  0.3386 -1.3556
   16MOL   C191 6521   6.277   6.518   0.224  0.1134  0.1982 -0.6001
   16MOL   C192 6522   6.333   6.374   0.204 -0.3994 -0.0930  0.1871
   16MOL   C193 6523   6.486   6.370   0.210 -0.3314 -1.0200 -0.2725
   16MOL   C194 6524   6.548   6.300   0.338 -0.3921  0.3814 -0.4301
   16MOL   C195 6525   6.491   6.349   0.469 -0.0674 -0.5216  0.5075
   16MOL   C196 6526   6.698   6.333   0.335  0.1671 -0.4943  0.3333
   16MOL   C197 6527   6.542   6.141   0.345  0.7316  0.6575 -0.7340
   16MOL   H198 6528   6.301   6.584   0.140 -2.9744 -0.1415 -1.7858
   16MOL   H199 6529   6.327   6.568   0.308  1.9631  0.6587 -1.9481
   16MOL   H200 6530   6.298   6.303   0.278  3.0656 -1.8602  0.2109
   16MOL   H201 6531   6.510   6.476   0.202  0.1327 -1.1072 -0.0113
   16MOL   H202 6532   6.523   6.322   0.119  2.4528 -0.6149  0.6135
   16MOL   H203 6533   6.475   6.457   0.476  0.1563 -0.5745  2.1443
   16MOL   H204 6534   6.390   6.311   0.486 -1.1258  1.7119 -0.4682
   16MOL   H205 6535   6.559   6.326   0.551 -0.6396  0.2680  1.2148
   16MOL   H206 6536   6.740   6.303   0.239 -0.7955 -2.1086  0.4039
   16MOL   H207 6537   6.727   6.436   0.353 -1.0050  0.0830 -1.0065
   16MOL   H208 6538   6.755   6.268   0.402  0.4889  1.7536  2.3130
   16MOL   H209 6539   6.613   6.098   0.275  0.0787  0.3170 -1.1937
   16MOL   H210 6540   6.567   6.095   0.440  0.7970  0.5225 -0.8171
   16MOL   H211 6541   6.443   6.100   0.325 -0.4464  2.8188  0.4930
   16MOL   C212 6542   6.291   6.324   0.070  0.2000  0.4486  0.4289
   16MOL   C213 6543   6.312   6.171   0.040  0.4000  0.5102 -0.0973
   16MOL   C214 6544   6.306   6.148   7.651  0.4699 -0.1455  0.7319
   16MOL   C215 6545   6.440   6.117   7.572  0.2908 -0.1807 -0.4205
   16MOL   C216 6546   6.415   6.080   7.431  0.0174  0.1977  0.3039
   16MOL   C217 6547   6.531   6.240   7.567  0.5120  0.4360 -0.4165
   16MOL   C218 6548   6.511   5.998   7.633  0.6633 -0.0375  0.1526
   16MOL   H219 6549   6.184   6.337   0.051 -0.8086 -1.9186  3.9247
   16MOL   H220 6550   6.338   6.387   7.761  2.0420 -1.8722 -0.4285
   16MOL   H221 6551   6.414   6.148   0.068 -0.2680 -1.6582  0.6823
   16MOL   H222 6552   6.255   6.220   7.588  0.2864 -0.9365 -0.0360
   16MOL   H223 6553   6.251   6.054   7.637  0.9633  0.0488 -3.1471
   16MOL   H224 6554   6.330   6.012   7.421 -0.2675  0.9654 -3.2927
   16MOL   H225 6555   6.491   6.024   7.376 -1.6816  0.2833 -2.2002
   16MOL   H226 6556   6.384   6.171   7.379  0.7771 -0.3232 -1.0751
   16MOL   H227 6557   6.607   6.245   7.489 -0.3706  0.8679 -1.2558
   16MOL   H228 6558   6.469   6.329   7.565 -1.9934 -1.2492 -0.5665
   16MOL   H229 6559   6.578   6.254   7.664 -2.1729 -0.4277  1.0608
   16MOL   H230 6560   6.443   5.913   7.635  0.0210  0.4643 -0.1309
   16MOL   H231 6561   6.554   6.029   7.728  0.4957  1.7819 -0.3526
   16MOL   H232 6562   6.594   5.964   7.571  0.2088  0.6934 -0.8702
   16MOL   C233 6563   6.214   6.085   0.126  0.9499 -0.6684  0.3251
   16MOL   C234 6564   6.231   5.921   0.122  0.8750 -0.6143 -0.0291
   16MOL   C235 6565   6.334   5.896   0.232  0.3548  0.2784 -0.5191
   16MOL   C236 6566   6.397   5.750   0.251 -0.3530 -0.6462 -0.7176
   16MOL   C237 6567   6.428   5.694   0.114 -0.6127 -0.7400  0.3002
   16MOL   C238 6568   6.526   5.763   0.334 -0.2737 -0.3878  0.2295
   16MOL   C239 6569   6.303   5.659   0.333 -0.3005  0.5403  0.6734
   16MOL   H240 6570   6.120   6.117   0.080  0.2754  0.5224  2.4373
   16MOL   H241 6571   6.214   6.112   0.231  4.4510 -1.0476  0.4541
   16MOL   H242 6572   6.278   5.908   0.025  2.0755  1.7688  0.1849
   16MOL   H243 6573   6.424   5.952   0.207  0.6466  0.8562  1.7299
   16MOL   H244 6574   6.318   5.929   0.335  2.4508 -1.0769  0.2637
   16MOL   H245 6575   6.342   5.668   0.052  0.9848 -1.2415 -1.8099
   16MOL   H246 6576   6.489   5.603   0.109  2.1870  1.0478  0.8936
   16MOL   H247 6577   6.492   5.761   0.056 -0.8507 -0.2799  0.5751
   16MOL   H248 6578   6.508   5.805   0.433  0.4415  2.5951 -0.8469
   16MOL   H249 6579   6.577   5.667   0.336 -0.1219 -0.3442 -0.9921
   16MOL   H250 6580   6.598   5.831   0.289  1.6017 -1.8708  0.8899
   16MOL   H251 6581   6.342   5.557   0.326  0.8554  1.0444 -0.4703
   16MOL   H252 6582   6.285   5.693   0.436 -3.2323 -1.1435  0.7613
   16MOL   H253 6583   6.203   5.656   0.292  0.3153 -0.4117 -0.7857
   16MOL   C254 6584   6.097   5.836   0.148 -0.6562 -0.0265 -0.0430
   16MOL   C255 6585   5.966   5.893   0.098  0.4121  0.0971  0.5810
   16MOL   C256 6586   5.850   5.789   0.153 -0.3232  0.6943 -0.2013
   16MOL   C257 6587   5.781   5.806   0.303 -0.2809  0.5731  0.7875
   16MOL   C258 6588   5.729   5.944   0.317 -0.2246  0.4319 -0.2908
   16MOL   C259 6589   5.878   5.762   0.411 -0.0793  0.4230  0.0255
   16MOL   C260 6590   5.658   5.714   0.305 -0.8884 -0.1062  0.2114
   16MOL   H261 6591   6.077   5.837   0.255  3.5926 -0.0899  0.8649
   16MOL   H262 6592   6.109   5.733   0.114  1.4725  0.2494 -0.2372
   16MOL   H263 6593   5.952   5.994   0.134 -2.1668 -1.6589  4.9767
   16MOL   H264 6594   5.766   5.796   0.084  0.4606  0.8252 -1.1606
   16MOL   H265 6595   5.884   5.687   0.133  0.6258  1.7259 -4.4284
   16MOL   H266 6596   5.817   6.002   0.346 -0.4665  0.6011  0.1069
   16MOL   H267 6597   5.653   5.956   0.395 -1.6669  0.4568 -1.6746
   16MOL   H268 6598   5.701   5.994   0.224  1.5142  1.3810 -0.3361
   16MOL   H269 6599   5.940   5.675   0.391 -2.9594 -1.9056  0.7661
   16MOL   H270 6600   5.815   5.730   0.494  1.3757 -3.1621 -0.1536
   16MOL   H271 6601   5.935   5.844   0.454  1.7846  0.3045 -2.1271
   16MOL   H272 6602   5.581   5.745   0.235 -2.0709 -2.7555  0.3140
   16MOL   H273 6603   5.691   5.613   0.281  0.4552  0.1205  1.0085
   16MOL   H274 6604   5.621   5.711   0.408 -2.6090  0.5805 -0.3818
   16MOL   C275 6605   5.969   5.894   7.707 -0.0089  0.4169 -0.4366
   16MOL   C276 6606   5.863   5.980   7.621  0.5232 -0.1753 -0.5234
   16MOL   C277 6607   5.881   6.129   7.657 -0.7917  0.3997  0.1460
   16MOL   C278 6608   5.754   6.220   7.654 -0.6023 -0.0997  0.5612
   16MOL   C279 6609   5.772   6.334   7.755  1.2543  0.3415  0.0898
   16MOL   C280 6610   5.727   6.269   7.512 -0.8107 -0.2105  0.2500
   16MOL   C281 6611   5.623   6.143   7.688 -0.2167 -0.2023  0.0716
   16MOL   H282 6612   6.065   5.940   7.682 -0.3568  2.2197  1.4505
   16MOL   H283 6613   5.968   5.789   7.676  1.3396 -0.1451  1.3160
   16MOL   H284 6614   5.766   5.948   7.658 -0.5523  2.0831 -1.2926
   16MOL   H285 6615   5.966   6.162   7.597 -2.0737  3.2473 -0.1766
   16MOL   H286 6616   5.917   6.143   7.759 -1.4237 -0.7466  0.5436
   16MOL   H287 6617   5.871   6.375   7.738  0.6136  1.5354 -0.8246
   16MOL   H288 6618   5.688   6.403   7.747  1.5721  0.6686 -0.4381
   16MOL   H289 6619   5.779   6.301   0.093  1.5959  0.3062  0.0545
   16MOL   H290 6620   5.813   6.318   7.465  0.1552 -2.2847 -0.2092
   16MOL   H291 6621   5.647   6.343   7.513 -1.4635 -0.9236  1.3435
   16MOL   H292 6622   5.695   6.192   7.443 -0.0257 -0.2322 -0.1022
   16MOL   H293 6623   5.539   6.213   7.686  0.0964  0.2512  1.7097
   16MOL   H294 6624   5.613   6.089   0.016  0.7617 -0.2627  0.1431
   16MOL   H295 6625   5.596   6.070   7.612 -1.5676  1.7906 -1.4006
   16MOL   C296 6626   5.893   5.959   7.467  0.9004 -0.4251  0.2690
   16MOL   C297 6627   5.946   5.823   7.409  0.3114  0.0997 -0.0563
   16MOL   C298 6628   6.098   5.799   7.421 -0.2538  0.7335  0.1378
   16MOL   C299 6629   6.159   5.649   7.430  0.2366 -0.2772 -0.2469
   16MOL   C300 6630   6.188   5.583   7.292  0.2120  0.2532  0.1196
   16MOL   C301 6631   6.303   5.648   7.486 -0.5249 -0.0561  0.5436
   16MOL   C302 6632   6.074   5.554   7.512 -0.0125  0.3361 -0.7151
   16MOL   H303 6633   5.968   6.032   7.436 -1.8712  2.9726  1.1883
   16MOL   H304 6634   5.802   5.992   7.416 -1.6153  0.3163  4.9599
   16MOL   H305 6635   5.888   5.749   7.464 -0.9008  1.1912  0.1730
   16MOL   H306 6636   6.130   5.846   7.514  1.1936 -2.0468  1.1401
   16MOL   H307 6637   6.146   5.854   7.340 -2.2502  2.4141  0.0824
   16MOL   H308 6638   6.250   5.654   7.237 -1.4201  0.2171 -1.8008
   16MOL   H309 6639   6.247   5.492   7.294 -2.0288 -1.2232  0.8251
   16MOL   H310 6640   6.097   5.560   7.238 -0.2341  1.1032  0.4990
   16MOL   H311 6641   6.310   5.682   7.590  1.8882 -1.9473  1.0443
   16MOL   H312 6642   6.348   5.549   7.478 -1.0230 -0.3550  1.3507
   16MOL   H313 6643   6.382   5.698   7.429 -0.3324 -1.7951 -0.7500
   16MOL   H314 6644   5.973   5.542   7.474 -0.5282 -1.0145  1.0007
   16MOL   H315 6645   6.117   5.458   7.539 -1.1166 -0.8343 -3.0716
   16MOL   H316 6646   6.064   5.607   7.607 -0.4279 -1.6088  0.3427
   16MOL   C317 6647   5.908   5.826   7.258  0.4489 -0.1261 -0.2192
   16MOL   C318 6648   5.762   5.795   7.211  0.4463  0.0686  0.3511
   16MOL   C319 6649   5.746   5.826   7.061 -0.1351  0.5079  0.0922
   16MOL   C320 6650   5.643   5.937   7.028  0.0078  0.1510  0.3801
   16MOL   C321 6651   5.629   5.956   6.875  0.7650  0.7173  0.0894
   16MOL   C322 6652   5.697   6.072   7.080  0.2985 -0.1447 -0.1076
   16MOL   C323 6653   5.506   5.915   7.081  0.3971 -0.1416 -0.1468
   16MOL   H324 6654   5.935   5.916   7.201  1.0008  0.7622  1.4265
   16MOL   H325 6655   5.973   5.749   7.216 -1.2142 -1.2708 -0.7270
   16MOL   H326 6656   5.699   5.863   7.267 -1.2498  0.7913 -2.3220
   16MOL   H327 6657   5.724   5.732   7.011 -2.2098  0.9949  0.0493
   16MOL   H328 6658   5.840   5.843   7.008  0.4777 -1.2784  0.5700
   16MOL   H329 6659   5.697   6.027   6.829  0.9533  0.7399  0.3994
   16MOL   H330 6660   5.541   6.018   6.859  0.6842  0.4453 -0.5285
   16MOL   H331 6661   5.609   5.868   6.814 -0.2988  1.6641 -0.9318
   16MOL   H332 6662   5.679   6.062   7.187  1.2116  0.2645  0.0874
   16MOL   H333 6663   5.800   6.080   7.047  0.3906  1.0810  0.4510
   16MOL   H334 6664   5.647   6.163   7.046 -0.4901  0.0940  1.6208
   16MOL   H335 6665   5.511   5.909   7.190  0.1168 -1.2419 -0.1891
   16MOL   H336 6666   5.465   5.816   7.060 -0.0199  0.1157 -0.5642
   16MOL   H337 6667   5.428   5.982   7.045  0.5841  0.1530 -0.0013
   16MOL   C338 6668   5.726   5.653   7.248 -0.1514  0.4458 -0.3157
   16MOL   C339 6669   5.577   5.596   7.259  0.0038 -0.6878  0.0795
   16MOL   C340 6670   5.549   5.503   7.381 -0.5130 -0.0994  0.6912
   16MOL   C341 6671   5.520   5.580   7.512  0.5164 -0.3070  0.3519
   16MOL   C342 6672   5.616   5.695   7.547  0.6343 -0.6372  0.5512
   16MOL   C343 6673   5.377   5.635   7.513  0.4003 -0.2525  0.5104
   16MOL   C344 6674   5.520   5.476   7.627 -0.2611  0.0716  0.3639
   16MOL   H345 6675   5.761   5.616   7.344  1.3334 -2.2883 -1.8508
   16MOL   H346 6676   5.783   5.588   7.182  1.7904  1.3334  0.4318
   16MOL   H347 6677   5.512   5.682   7.276  2.1712  0.8542  0.7974
   16MOL   H348 6678   5.633   5.434   7.390  0.0031 -0.3355 -4.3980
   16MOL   H349 6679   5.462   5.440   7.364  0.5215 -1.3956  0.0436
   16MOL   H350 6680   5.713   5.650   7.567  1.3549  1.0144  0.7959
   16MOL   H351 6681   5.628   5.775   7.475  3.0537 -0.6271  0.9365
   16MOL   H352 6682   5.582   5.739   7.641  0.5723 -1.8566  1.1119
   16MOL   H353 6683   5.304   5.558   7.489 -0.6448  0.9643 -0.2807
   16MOL   H354 6684   5.352   5.674   7.612 -0.2944  0.0436  0.2175
   16MOL   H355 6685   5.379   5.714   7.439 -3.3417 -1.1939 -0.7019
   16MOL   H356 6686   5.600   5.499   7.697 -0.7935  0.3765  0.8780
   16MOL   H357 6687   5.432   5.474   7.692  0.1541  2.6144  1.0648
   16MOL   H358 6688   5.541   5.376   7.590 -0.8079  0.2963 -0.6040
   16MOL   C359 6689   5.533   5.527   7.128 -0.2772 -0.5185 -0.0976
   16MOL   C360 6690   5.390   5.472   7.107 -0.3224  0.0529 -0.2233
   16MOL   C361 6691   5.364   5.425   6.960  0.3623 -0.6810  0.5245
   16MOL   C362 6692   5.473   5.345   6.880  0.0309 -0.0871 -0.0622
   16MOL   C363 6693   5.524   5.220   6.957 -0.5399  0.4729 -0.2557
   16MOL   C364 6694   5.600   5.429   6.829 -0.1166  0.2895 -0.4466
   16MOL   C365 6695   5.408   5.296   6.755  0.2943  0.6870 -0.1439
   16MOL   H366 6696   5.603   5.444   7.127 -0.1030 -0.3685 -1.1628
   16MOL   H367 6697   5.555   5.598   7.048  0.0290  2.4843  2.5634
   16MOL   H368 6698   5.389   5.387   7.176 -0.5495  0.1536 -0.1038
   16MOL   H369 6699   5.270   5.370   6.955  0.4915 -0.7874 -1.0618
   16MOL   H370 6700   5.350   5.509   6.892  0.5257 -0.7303  0.4294
   16MOL   H371 6701   5.575   5.239   7.052 -1.3164  1.3060  0.0030
   16MOL   H372 6702   5.427   5.179   6.986  1.0345 -2.9021  0.4633
   16MOL   H373 6703   5.576   5.145   6.897  0.0764  2.7249 -2.6374
   16MOL   H374 6704   5.569   5.504   6.756 -0.8200  0.4803  0.0407
   16MOL   H375 6705   5.667   5.373   6.763 -0.9290 -0.8754 -0.3051
   16MOL   H376 6706   5.661   5.483   6.901 -0.4623  0.1686 -0.0638
   16MOL   H377 6707   5.331   5.222   6.780  0.2126  0.5328 -0.8623
   16MOL   H378 6708   5.479   5.243   6.692 -0.8481 -0.7119 -0.3020
   16MOL   H379 6709   5.356   5.377   6.704  0.7792 -0.1901 -2.0715
   16MOL   C380 6710   5.281   5.575   7.153  0.4126 -0.4619 -0.0985
   16MOL   C381 6711   5.131   5.519   7.143  0.9935 -0.4380  0.2286
   16MOL   C382 6712   5.045   5.633   7.204  1.1607  0.3829 -0.1042
   16MOL   C383 6713   4.967   5.720   7.111 -0.0369  0.4325 -0.3467
   16MOL   C384 6714   5.071   5.817   7.046  0.0372 -0.2517  0.1543
   16MOL   C385 6715   4.889   5.829   7.196 -0.9161  0.0485 -1.0749
   16MOL   C386 6716   4.881   5.645   7.006  0.2075  0.6294  0.1014
   16MOL   H387 6717   5.300   5.670   7.102  0.8270  0.7888  2.2977
   16MOL   H388 6718   5.310   5.589   7.257 -0.5673 -1.6821  0.3473
   16MOL   H389 6719   5.112   5.514   7.036  1.0419 -3.3502  0.3200
   16MOL   H390 6720   4.978   5.590   7.279  0.6601 -0.8397 -1.2196
   16MOL   H391 6721   5.102   5.693   7.274  0.2362 -1.0536  1.9337
   16MOL   H392 6722   5.131   5.756   6.977  2.3387  1.6070  0.4730
   16MOL   H393 6723   5.023   5.898   6.991  0.8139  1.4245  1.9323
   16MOL   H394 6724   5.133   5.858   7.124  1.6412 -2.3587  0.0389
   16MOL   H395 6725   4.951   5.864   7.278 -0.3985 -1.2953 -0.8772
   16MOL   H396 6726   4.807   5.780   7.249  0.7054  1.4236  2.9074
   16MOL   H397 6727   4.845   5.916   7.148 -1.5406  0.5520  0.3786
   16MOL   H398 6728   4.841   5.723   6.942  0.5359  0.4472 -0.3314
   16MOL   H399 6729   4.797   5.593   7.051  0.5123  0.7612  0.8258
   16MOL   H400 6730   4.930   5.566   6.947 -0.9914  0.9594 -1.3653
   16MOL   C401 6731   5.118   5.378   7.201 -0.0599  0.4744  0.4447
   16MOL   C402 6732   4.977   5.314   7.190  0.6512 -0.2245 -0.2940
   16MOL   C403 6733   4.971   5.170   7.239  0.6922 -0.2423  0.2960
   16MOL   C404 6734   4.830   5.117   7.277 -0.6444 -0.7136 -0.3257
   16MOL   C405 6735   4.835   4.966   7.314  0.8141 -0.2306  0.4463
   16MOL   C406 6736   4.736   5.126   7.155  0.2981  0.9343  1.1084
   16MOL   C407 6737   4.774   5.190   7.391 -0.0072  0.4796 -0.3581
   16MOL   H408 6738   5.186   5.313   7.146  2.3477  0.3585  3.4177
   16MOL   H409 6739   5.163   5.388   7.300  1.5151  1.8200 -0.3937
   16MOL   H410 6740   4.898   5.370   7.239 -0.8575 -0.7708 -2.0388
   16MOL   H411 6741   5.022   5.179   7.335  1.3620 -1.4422  0.0575
   16MOL   H412 6742   5.027   5.109   7.169  0.4027  0.6544 -0.7247
   16MOL   H413 6743   4.900   4.967   7.402 -0.7567  0.5302  1.6267
   16MOL   H414 6744   4.882   4.899   7.242  0.4899 -0.0634  0.0804
   16MOL   H415 6745   4.739   4.922   7.339 -0.7903  1.2111 -2.8043
   16MOL   H416 6746   4.750   5.221   7.104 -0.7624  0.9001  0.7455
   16MOL   H417 6747   4.632   5.108   7.182  0.2375 -0.4867 -0.0114
   16MOL   H418 6748   4.759   5.059   7.072  1.7005  3.5915 -0.7320
   16MOL   H419 6749   4.747   5.294   7.372 -0.6591  0.4471  0.3691
   16MOL   H420 6750   4.679   5.153   7.430 -1.1753  0.6636 -2.8978
   16MOL   H421 6751   4.855   5.195   7.464 -0.8022  2.0114  0.4558
   16MOL   H422 6752   4.952   5.308   7.083  2.5677  0.0962 -0.7745
   17MOL     C1 6753   2.014   2.623   3.842  0.3355  0.9828 -0.4105
   17MOL     C2 6754   2.046   2.492   3.766 -0.0275 -0.0895 -0.6709
   17MOL     C3 6755   1.923   2.435   3.687  0.4528  0.2979  0.1692
   17MOL     C4 6756   1.963   2.366   3.554 -0.8336 -0.2612  0.2127
   17MOL     C5 6757   2.037   2.233   3.568 -0.3833  0.0832  0.7545
   17MOL     C6 6758   1.831   2.331   3.470  1.3218  0.1252 -0.5021
   17MOL     C7 6759   2.037   2.461   3.459 -0.0211  0.0535  0.0503
   17MOL     H8 6760   2.102   2.663   3.893 -0.6761  3.3040 -0.4302
   17MOL     H9 6761   1.972   2.705   3.784 -1.8794  0.5439  0.5350
   17MOL    H10 6762   2.128   2.513   3.697 -1.2906 -0.6844 -2.3720
   17MOL    H11 6763   1.847   2.512   3.682 -1.5458 -1.5083  1.7204
   17MOL    H12 6764   1.870   2.359   3.744 -1.0463 -0.7983 -2.5685
   17MOL    H13 6765   2.065   2.187   3.473 -2.1720 -1.1095  0.7831
   17MOL    H14 6766   1.977   2.167   3.630  1.2501 -2.5475 -0.3866
   17MOL    H15 6767   2.132   2.246   3.619 -0.7913 -0.9690  1.7987
   17MOL    H16 6768   1.847   2.308   3.365  1.8029  1.6832 -0.7891
   17MOL    H17 6769   1.792   2.239   3.514  1.3881  0.5925  0.5639
   17MOL    H18 6770   1.753   2.405   3.487  1.2141 -0.3321  1.1103
   17MOL    H19 6771   1.983   2.554   3.443  0.6060  0.1969 -1.2880
   17MOL    H20 6772   2.052   2.416   3.361  1.5953 -0.2964  0.4537
   17MOL    H21 6773   2.142   2.478   3.483  0.0146  1.4153 -1.0039
   17MOL    H22 6774   1.942   2.607   3.922  1.4031  0.4953  0.4671
   17MOL    C23 6775   2.096   2.392   3.868 -0.2435  0.2178  0.0080
   17MOL    C24 6776   2.247   2.408   3.928 -0.0062  0.3157  0.0634
   17MOL    C25 6777   2.359   2.379   3.830  0.1885  0.2511 -0.3800
   17MOL    C26 6778   2.493   2.453   3.850 -0.4827 -0.3820  0.2722
   17MOL    C27 6779   2.597   2.388   3.758 -0.3094  0.5456 -0.3090
   17MOL    C28 6780   2.474   2.604   3.808  0.1325 -0.0160 -0.0010
   17MOL    C29 6781   2.544   2.442   3.993 -0.0203  0.1543 -0.5051
   17MOL    H30 6782   2.018   2.410   3.942  1.7246 -1.7240  2.6257
   17MOL    H31 6783   2.078   2.288   3.840  0.3898 -0.4561  2.0291
   17MOL    H32 6784   2.248   2.507   3.973  0.1471  0.9973 -1.3854
   17MOL    H33 6785   2.321   2.387   3.728  0.4508  1.4417 -0.3961
   17MOL    H34 6786   2.378   2.272   3.827  0.6554  0.3705 -2.8965
   17MOL    H35 6787   2.680   2.459   3.758 -1.7771  2.3072  1.2831
   17MOL    H36 6788   2.632   2.301   3.815  0.4856 -0.1642 -1.8288
   17MOL    H37 6789   2.560   2.366   3.658 -1.3503 -0.0707  0.2028
   17MOL    H38 6790   2.433   2.629   3.710  0.0678  2.1738  0.5635
   17MOL    H39 6791   2.404   2.651   3.877 -1.1463 -0.8371 -0.7307
   17MOL    H40 6792   2.564   2.666   3.814 -0.4105  0.7750  0.0838
   17MOL    H41 6793   2.552   2.335   4.011 -3.2414  0.1248  1.1413
   17MOL    H42 6794   2.472   2.485   4.063 -0.3638  1.3039 -1.5427
   17MOL    H43 6795   2.641   2.489   4.005  0.1664 -0.2101 -0.5869
   17MOL    C44 6796   2.250   2.307   4.048 -0.1186  0.6928  0.3712
   17MOL    C45 6797   2.161   2.336   4.170  0.9761  0.0041 -0.1484
   17MOL    C46 6798   2.213   2.453   4.258 -0.3105 -0.0845 -0.0644
   17MOL    C47 6799   2.123   2.553   4.325  0.1544 -0.3978 -0.3572
   17MOL    C48 6800   2.027   2.617   4.223  0.6086  0.3142 -0.1001
   17MOL    C49 6801   2.208   2.666   4.390  0.0060  0.4293 -0.5482
   17MOL    C50 6802   2.043   2.480   4.438  0.2385 -0.4059 -0.2933
   17MOL    H51 6803   2.221   2.209   4.009 -0.6389  1.5237 -1.3859
   17MOL    H52 6804   2.352   2.294   4.085 -0.6557 -1.3082  1.2484
   17MOL    H53 6805   2.057   2.351   4.138  0.7422 -2.4982 -0.6786
   17MOL    H54 6806   2.265   2.518   4.188 -0.0552 -0.8587 -0.5981
   17MOL    H55 6807   2.297   2.425   4.321 -0.2577 -1.8779 -0.9053
   17MOL    H56 6808   1.961   2.693   4.265  1.0031  1.9267 -2.3246
   17MOL    H57 6809   1.961   2.539   4.184 -2.3003  2.3809  0.5672
   17MOL    H58 6810   2.079   2.663   4.139  0.0454 -0.7713 -1.0482
   17MOL    H59 6811   2.145   2.716   4.463  1.1521 -0.1591  0.8865
   17MOL    H60 6812   2.298   2.630   4.441 -1.6187 -0.3558  1.8270
   17MOL    H61 6813   2.242   2.735   4.313  0.7035  1.3092  0.5291
   17MOL    H62 6814   2.102   2.422   4.509 -2.2548 -1.2723  1.1662
   17MOL    H63 6815   1.982   2.552   4.494  1.1923 -1.0040  1.5657
   17MOL    H64 6816   1.968   2.425   4.381 -0.9009  0.7038  0.0954
   17MOL    C65 6817   2.144   2.204   4.263 -0.8021  0.0491  0.0141
   17MOL    C66 6818   2.046   2.103   4.209  1.0720  0.3056  0.2201
   17MOL    C67 6819   1.900   2.149   4.227  0.8571 -0.7363  0.4275
   17MOL    C68 6820   1.787   2.092   4.133  0.0499  0.0232 -0.6893
   17MOL    C69 6821   1.780   1.937   4.130  0.0974  0.3412 -0.1146
   17MOL    C70 6822   1.650   2.143   4.184  0.1587 -0.6067 -0.4530
   17MOL    C71 6823   1.808   2.148   3.992 -0.0946  0.0496  0.1694
   17MOL    H72 6824   2.243   2.162   4.285 -0.6632  1.5091  2.3937
   17MOL    H73 6825   2.117   2.227   4.366  0.4548 -0.2338  0.4214
   17MOL    H74 6826   2.057   2.087   4.102  0.8717 -1.2067  0.4069
   17MOL    H75 6827   1.887   2.256   4.214  0.4646 -0.7988  0.3064
   17MOL    H76 6828   1.879   2.133   4.333 -1.9170 -0.6756 -0.0835
   17MOL    H77 6829   1.787   1.900   4.232 -0.3781 -1.2120 -0.6364
   17MOL    H78 6830   1.696   1.901   4.072 -0.6250  1.4384  0.2200
   17MOL    H79 6831   1.868   1.899   4.079 -0.4212  1.2949 -1.7490
   17MOL    H80 6832   1.577   2.084   4.130  1.4210 -1.2122 -1.5454
   17MOL    H81 6833   1.627   2.249   4.177 -1.3662 -0.7274  2.3754
   17MOL    H82 6834   1.637   2.123   4.290 -0.4438  0.2089 -0.3722
   17MOL    H83 6835   1.900   2.103   3.954 -0.4667 -0.3811 -0.2230
   17MOL    H84 6836   1.818   2.257   3.986  0.2664 -0.0162 -0.4433
   17MOL    H85 6837   1.722   2.131   3.927 -1.5225  0.9798  1.7597
   17MOL    C86 6838   2.092   1.973   4.275  0.0134  0.1285  0.0678
   17MOL    C87 6839   2.220   1.899   4.229 -0.0122  0.2866 -0.2459
   17MOL    C88 6840   2.185   1.781   4.133 -0.5530  0.1541 -0.0429
   17MOL    C89 6841   2.236   1.789   3.985  0.2941 -0.1766 -0.1317
   17MOL    C90 6842   2.183   1.908   3.907  0.0512  0.1292  0.6875
   17MOL    C91 6843   2.196   1.664   3.911 -0.5288 -0.6704 -0.1923
   17MOL    C92 6844   2.392   1.796   3.984 -0.3934  0.8615  0.2024
   17MOL    H93 6845   2.007   1.904   4.275 -0.5880  0.8242 -2.5216
   17MOL    H94 6846   2.106   1.998   4.380 -0.6984 -0.9185  0.4273
   17MOL    H95 6847   2.285   1.964   4.170 -0.4589  0.6043 -0.3979
   17MOL    H96 6848   2.078   1.762   4.132 -1.1549  3.2058 -2.0976
   17MOL    H97 6849   2.235   1.693   4.173  0.7139  0.5666 -0.6653
   17MOL    H98 6850   2.215   2.002   3.952  1.0205 -0.0044  0.2873
   17MOL    H99 6851   2.075   1.893   3.909 -0.0948  1.0966  0.4670
   17MOL   H100 6852   2.209   1.918   3.802  1.3013  1.7658  1.1242
   17MOL   H101 6853   2.088   1.672   3.901 -0.6330  0.9467  1.9708
   17MOL   H102 6854   2.241   1.636   3.816 -0.4439 -0.3665 -0.2430
   17MOL   H103 6855   2.208   1.581   3.981 -0.7894  0.8202  1.6652
   17MOL   H104 6856   2.435   1.716   4.044  2.4012  0.5982 -2.0733
   17MOL   H105 6857   2.428   1.793   3.881 -0.3807 -1.1935  0.2393
   17MOL   H106 6858   2.427   1.890   4.026  0.8972 -0.1416  1.4236
   17MOL   C107 6859   2.299   1.848   4.349  0.2100 -0.1161  0.2611
   17MOL   C108 6860   2.369   1.952   4.438 -0.5088 -0.0061  0.0612
   17MOL   C109 6861   2.399   1.876   4.576 -0.2782  0.2322 -0.8009
   17MOL   C110 6862   2.285   1.861   4.688  0.2953 -0.0384 -0.0824
   17MOL   C111 6863   2.329   1.763   4.796  0.5112 -0.0708  0.2233
   17MOL   C112 6864   2.150   1.823   4.636  0.1806 -0.1797  0.0398
   17MOL   C113 6865   2.275   2.006   4.744 -0.3995  0.6365  0.5783
   17MOL   H114 6866   2.373   1.775   4.315  0.6397 -0.5080  2.0314
   17MOL   H115 6867   2.233   1.791   4.414  0.3325 -0.0055  0.4800
   17MOL   H116 6868   2.304   2.035   4.470 -1.6831 -0.4272 -1.2110
   17MOL   H117 6869   2.433   1.776   4.549 -0.0681 -0.0443  0.4754
   17MOL   H118 6870   2.489   1.908   4.629  0.1053 -2.7831  0.4706
   17MOL   H119 6871   2.261   1.732   4.875  2.1215  1.3167  2.1844
   17MOL   H120 6872   2.349   1.666   4.749  0.3934 -0.8631  1.7640
   17MOL   H121 6873   2.420   1.804   4.838  0.7674 -0.4992  0.0865
   17MOL   H122 6874   2.079   1.828   4.719 -0.0342 -2.2777  0.0254
   17MOL   H123 6875   2.141   1.719   4.603 -0.3299  0.1900 -0.9997
   17MOL   H124 6876   2.105   1.887   4.560  1.6190  0.6383 -0.1385
   17MOL   H125 6877   2.198   2.011   4.822  1.0326  1.5742  1.9624
   17MOL   H126 6878   2.228   2.065   4.665 -2.5538 -1.4576  0.2243
   17MOL   H127 6879   2.372   2.044   4.776 -0.8248  0.2611  2.3571
   17MOL   C128 6880   2.501   1.997   4.367  0.0101  0.0673  0.0617
   17MOL   C129 6881   2.588   2.092   4.444 -0.6765  0.5941  0.1311
   17MOL   C130 6882   2.737   2.070   4.406 -0.2150  0.8561 -0.2300
   17MOL   C131 6883   2.816   1.975   4.494  0.2541 -0.7340 -0.8174
   17MOL   C132 6884   2.962   1.954   4.452 -0.4453 -0.8900 -0.2856
   17MOL   C133 6885   2.760   1.829   4.483 -0.1314 -0.3388 -0.2591
   17MOL   C134 6886   2.807   2.001   4.647 -0.7122 -0.5511  0.7659
   17MOL   H135 6887   2.482   2.040   4.269 -1.9803 -0.3623  0.2414
   17MOL   H136 6888   2.553   1.903   4.348  0.0493 -0.2944  1.8643
   17MOL   H137 6889   2.581   2.076   4.551  2.9773 -0.2138  0.3144
   17MOL   H138 6890   2.739   2.027   4.306  0.4061 -0.1988  0.2315
   17MOL   H139 6891   2.798   2.160   4.410 -0.0614  0.7335  0.2985
   17MOL   H140 6892   2.955   1.917   4.350 -0.7304 -0.2419 -0.5069
   17MOL   H141 6893   3.005   1.886   4.526  0.3701  0.3975  0.4508
   17MOL   H142 6894   3.027   2.041   4.459 -1.9433  0.2796 -0.6399
   17MOL   H143 6895   2.772   1.791   4.381  0.6626  0.4030 -0.4507
   17MOL   H144 6896   2.654   1.820   4.506 -0.0650  1.1383  0.7059
   17MOL   H145 6897   2.822   1.768   4.548  1.3774  0.1033 -1.2491
   17MOL   H146 6898   2.838   2.105   4.656 -0.9415 -0.6338  2.7229
   17MOL   H147 6899   2.705   1.990   4.683 -1.3822 -1.7755 -1.3665
   17MOL   H148 6900   2.878   1.944   4.707  0.4369  1.3286  1.2030
   17MOL   C149 6901   2.545   2.239   4.414 -0.0483 -0.6812  0.4067
   17MOL   C150 6902   2.572   2.352   4.517  0.2589  0.5423  0.2650
   17MOL   C151 6903   2.570   2.484   4.443 -0.1404  0.7134  0.5593
   17MOL   C152 6904   2.713   2.545   4.415  0.2217 -0.4518  1.0824
   17MOL   C153 6905   2.795   2.461   4.308  0.0693 -0.1118  0.0434
   17MOL   C154 6906   2.795   2.590   4.541 -0.6565 -0.1651 -0.0194
   17MOL   C155 6907   2.683   2.674   4.335 -0.8658  0.6141  0.7798
   17MOL   H156 6908   2.437   2.243   4.400  0.3261 -0.4022 -2.6216
   17MOL   H157 6909   2.589   2.264   4.318 -0.6500 -0.9160  0.0690
   17MOL   H158 6910   2.671   2.328   4.557 -0.4933 -1.8410  0.7855
   17MOL   H159 6911   2.512   2.546   4.511 -1.4450 -2.4080  2.3912
   17MOL   H160 6912   2.513   2.482   4.351 -0.7624  0.6478  0.9466
   17MOL   H161 6913   2.827   2.366   4.350 -0.0431 -0.0695  0.2229
   17MOL   H162 6914   2.738   2.434   4.219  0.6413  1.2692 -0.7703
   17MOL   H163 6915   2.885   2.518   4.282  0.5365 -1.6736 -1.9102
   17MOL   H164 6916   2.893   2.631   4.520 -0.7421  0.9768  1.8057
   17MOL   H165 6917   2.812   2.499   4.599 -1.6712 -1.3921 -1.5890
   17MOL   H166 6918   2.748   2.664   4.605  0.1210 -1.1167  1.7003
   17MOL   H167 6919   2.618   2.744   4.387 -1.0099  0.7061  0.4737
   17MOL   H168 6920   2.771   2.731   4.303  0.2996 -1.7158 -0.2555
   17MOL   H169 6921   2.626   2.662   4.243  0.2906 -0.9915  0.2525
   17MOL   C170 6922   2.479   2.343   4.646 -0.1964 -0.6530  0.9820
   17MOL   C171 6923   2.532   2.356   4.792 -0.1443  0.1850 -0.0263
   17MOL   C172 6924   2.558   2.504   4.825  0.1581 -0.1769  0.5632
   17MOL   C173 6925   2.450   2.588   4.891  0.0799  0.1527 -0.2334
   17MOL   C174 6926   2.402   2.538   5.030  0.4054 -0.1052 -0.4210
   17MOL   C175 6927   2.327   2.615   4.797  0.2937  0.1820  0.4753
   17MOL   C176 6928   2.526   2.725   4.910  0.4585 -0.7839 -0.0916
   17MOL   H177 6929   2.423   2.249   4.646  1.7495 -1.8596 -1.3592
   17MOL   H178 6930   2.398   2.416   4.640  1.5938  1.2808  0.0191
   17MOL   H179 6931   2.451   2.331   4.859  0.9589 -0.1440  1.1993
   17MOL   H180 6932   2.641   2.514   4.895  0.1185  1.5262  0.3927
   17MOL   H181 6933   2.604   2.550   4.738 -1.0788 -1.6692 -0.9004
   17MOL   H182 6934   2.484   2.545   5.102  0.0573  1.4027 -0.1565
   17MOL   H183 6935   2.325   2.607   5.065  1.7443  2.0033 -1.5239
   17MOL   H184 6936   2.354   2.440   5.024  1.7261 -0.8877  1.2275
   17MOL   H185 6937   2.280   2.523   4.763  0.1469 -0.4138  2.2191
   17MOL   H186 6938   2.257   2.683   4.845 -3.4824  0.1435 -4.6850
   17MOL   H187 6939   2.373   2.666   4.712 -0.0191 -2.3470 -1.2664
   17MOL   H188 6940   2.596   2.725   4.993 -0.2604 -2.1051  0.5204
   17MOL   H189 6941   2.576   2.762   4.820 -1.2611 -2.5720 -1.8386
   17MOL   H190 6942   2.463   2.805   4.950  3.2985  0.4202  2.1465
   17MOL   C191 6943   2.663   2.272   4.817  0.8715  0.3998 -0.6890
   17MOL   C192 6944   2.690   2.223   4.964  0.9467 -0.2953  0.1165
   17MOL   C193 6945   2.838   2.189   4.988  0.1848  0.1702  0.0663
   17MOL   C194 6946   2.930   2.316   5.023  0.0383 -1.0519 -0.5082
   17MOL   C195 6947   2.853   2.423   5.111 -0.3247  0.0729  0.5828
   17MOL   C196 6948   2.991   2.382   4.895 -0.3292  0.3746 -0.3788
   17MOL   C197 6949   3.046   2.269   5.121 -0.1516  0.1349 -0.2311
   17MOL   H198 6950   2.664   2.182   4.756 -0.4188  1.5099 -2.3876
   17MOL   H199 6951   2.749   2.322   4.774  1.8277 -0.8872 -0.3098
   17MOL   H200 6952   2.651   2.303   5.027  0.7834 -1.5684  1.6703
   17MOL   H201 6953   2.883   2.121   4.917 -1.0640 -1.0950  0.4612
   17MOL   H202 6954   2.837   2.128   5.078  0.5211 -0.1652 -0.1583
   17MOL   H203 6955   2.815   2.388   5.207 -0.3870 -2.0971 -0.1985
   17MOL   H204 6956   2.917   2.509   5.130 -0.1822  0.0089  0.3954
   17MOL   H205 6957   2.770   2.464   5.054  0.9288  0.7922 -0.7803
   17MOL   H206 6958   3.087   2.432   4.908 -1.1451  1.9341 -0.2518
   17MOL   H207 6959   3.007   2.305   4.820 -3.1833  0.6799 -1.3797
   17MOL   H208 6960   2.916   2.451   4.856  0.2751  0.6562 -1.0569
   17MOL   H209 6961   3.007   2.249   5.221  2.2897  2.0569  1.1469
   17MOL   H210 6962   3.091   2.181   5.076  0.3575  0.8767 -1.1917
   17MOL   H211 6963   3.131   2.337   5.125  0.7525 -1.0476  1.4250
   17MOL   C212 6964   2.581   2.106   4.999  0.1366 -0.3351 -0.1623
   17MOL   C213 6965   2.555   2.087   5.151  0.0622  0.0246  0.7884
   17MOL   C214 6966   2.503   1.939   5.170  0.0536 -0.1507 -0.6001
   17MOL   C215 6967   2.604   1.826   5.202 -0.3531 -0.0372  0.4982
   17MOL   C216 6968   2.730   1.827   5.118  0.2318  0.0255 -0.2215
   17MOL   C217 6969   2.643   1.826   5.353  0.6792  0.3568  0.4947
   17MOL   C218 6970   2.538   1.690   5.178 -0.3857  0.3567 -0.7599
   17MOL   H219 6971   2.483   2.121   4.954 -0.2730  3.3520  1.7808
   17MOL   H220 6972   2.626   2.017   4.955 -2.3490 -0.1113 -3.3985
   17MOL   H221 6973   2.648   2.091   5.208  1.3685 -1.8718 -1.1252
   17MOL   H222 6974   2.422   1.913   5.101 -1.2308 -0.1036  0.8612
   17MOL   H223 6975   2.444   1.937   5.262 -1.4097  1.5734 -1.4884
   17MOL   H224 6976   2.791   1.737   5.125  1.3922  0.8307  0.0224
   17MOL   H225 6977   2.788   1.916   5.141 -2.0294  1.1675  1.2402
   17MOL   H226 6978   2.712   1.828   5.011 -1.0986  1.3188  0.0049
   17MOL   H227 6979   2.715   1.904   5.376  1.3319  0.0465 -0.4983
   17MOL   H228 6980   2.561   1.835   5.426 -1.3888 -1.3917 -1.5616
   17MOL   H229 6981   2.697   1.734   5.372 -0.1398 -0.1425  0.4299
   17MOL   H230 6982   2.514   1.673   5.073 -0.4469  0.4071 -0.7546
   17MOL   H231 6983   2.443   1.680   5.231 -0.4350 -0.8985 -1.0722
   17MOL   H232 6984   2.602   1.608   5.209 -1.3861  0.6933  2.4364
   17MOL   C233 6985   2.453   2.191   5.207  0.6743  0.5747  0.0566
   17MOL   C234 6986   2.463   2.216   5.356 -0.2699 -0.2114 -0.8560
   17MOL   C235 6987   2.580   2.309   5.385  0.7400  0.1028  0.3420
   17MOL   C236 6988   2.650   2.288   5.521 -0.0928 -0.1396  0.0564
   17MOL   C237 6989   2.769   2.394   5.532 -0.1102 -0.1083  0.2836
   17MOL   C238 6990   2.553   2.301   5.636 -0.1274  0.0692 -0.0776
   17MOL   C239 6991   2.722   2.148   5.524  0.3318  0.3074  0.0522
   17MOL   H240 6992   2.362   2.140   5.174  0.9294 -0.3381  0.7291
   17MOL   H241 6993   2.448   2.286   5.154 -1.2365  0.1374 -0.5941
   17MOL   H242 6994   2.485   2.120   5.402  0.8460 -0.2718 -1.5035
   17MOL   H243 6995   2.659   2.290   5.313  2.1287  3.0383  1.0542
   17MOL   H244 6996   2.553   2.412   5.363  0.5931 -0.1929 -0.9310
   17MOL   H245 6997   2.824   2.411   5.624  0.5840  1.3464 -0.3784
   17MOL   H246 6998   2.746   2.495   5.499  0.4944 -0.3530 -0.9179
   17MOL   H247 6999   2.849   2.359   5.467  0.6430 -0.7261  1.5252
   17MOL   H248 7000   2.493   2.392   5.634 -1.2517 -0.6760 -2.6478
   17MOL   H249 7001   2.476   2.224   5.631  1.6110 -1.9369  2.7554
   17MOL   H250 7002   2.588   2.279   5.737 -1.1384 -0.0213  0.2553
   17MOL   H251 7003   2.652   2.066   5.545 -0.1132  1.2767  2.5156
   17MOL   H252 7004   2.762   2.135   5.424 -0.6838  0.1057 -0.3388
   17MOL   H253 7005   2.804   2.127   5.593 -0.0395 -0.3973  0.2922
   17MOL   C254 7006   2.321   2.253   5.411 -0.0476 -0.3510 -0.4449
   17MOL   C255 7007   2.202   2.144   5.407  0.6306 -0.1684  0.5323
   17MOL   C256 7008   2.067   2.217   5.405 -0.7899 -0.7966 -0.1716
   17MOL   C257 7009   2.004   2.246   5.265  0.0398 -0.9230  0.4433
   17MOL   C258 7010   2.099   2.339   5.183  0.1195  0.1232 -0.6395
   17MOL   C259 7011   1.873   2.329   5.282 -0.8434  0.6838  0.8268
   17MOL   C260 7012   1.969   2.107   5.195  0.5271 -0.4003  0.1050
   17MOL   H261 7013   2.298   2.339   5.348 -0.7224 -0.6982 -0.6823
   17MOL   H262 7014   2.329   2.300   5.509  2.4757  1.6582 -1.5751
   17MOL   H263 7015   2.211   2.090   5.313  0.4864 -0.7013  0.8238
   17MOL   H264 7016   1.994   2.149   5.449  0.2981 -1.3508  0.7787
   17MOL   H265 7017   2.073   2.309   5.462 -1.3498 -0.4900 -0.5963
   17MOL   H266 7018   2.196   2.297   5.155  0.0328 -0.0684 -0.6523
   17MOL   H267 7019   2.121   2.426   5.246 -1.1061  0.8804 -1.2275
   17MOL   H268 7020   2.053   2.366   5.088  0.9044 -1.5770 -1.5143
   17MOL   H269 7021   1.834   2.366   5.187 -0.7411 -0.7867  0.1863
   17MOL   H270 7022   1.889   2.424   5.331  0.8164  0.3277  1.0033
   17MOL   H271 7023   1.794   2.278   5.337 -0.8799  0.2004  0.3345
   17MOL   H272 7024   2.060   2.051   5.173  1.2557  2.1032 -3.6541
   17MOL   H273 7025   1.901   2.043   5.251  0.8093 -1.9827 -1.3166
   17MOL   H274 7026   1.924   2.129   5.098  2.2582  0.7035 -0.4789
   17MOL   C275 7027   2.217   2.050   5.526 -0.5205 -0.4586  0.7996
   17MOL   C276 7028   2.139   1.916   5.532  0.0462 -0.2293  0.5720
   17MOL   C277 7029   2.189   1.824   5.420  0.1341 -0.2713 -0.0422
   17MOL   C278 7030   2.098   1.710   5.357 -0.8561 -0.2193 -0.0110
   17MOL   C279 7031   1.957   1.719   5.398 -0.3325  0.3668  0.5292
   17MOL   C280 7032   2.127   1.713   5.208  0.2769 -0.0622  0.6259
   17MOL   C281 7033   2.136   1.577   5.419  0.8676  0.3035 -0.1768
   17MOL   H282 7034   2.320   2.018   5.539 -0.6845 -1.5958 -0.5528
   17MOL   H283 7035   2.196   2.110   5.614  3.0454  0.8161  0.8663
   17MOL   H284 7036   2.036   1.940   5.505  0.0129  0.5905  1.3986
   17MOL   H285 7037   2.285   1.780   5.445 -0.6711 -1.0484  1.8150
   17MOL   H286 7038   2.227   1.881   5.336  0.7647 -0.2276  0.2680
   17MOL   H287 7039   1.918   1.814   5.360 -2.0837 -0.6210 -0.2084
   17MOL   H288 7040   1.899   1.632   5.367  1.5230 -0.5156 -0.5370
   17MOL   H289 7041   1.945   1.728   5.506  0.6977  0.3483  0.6514
   17MOL   H290 7042   2.233   1.713   5.181  0.4779 -0.8462  1.3801
   17MOL   H291 7043   2.074   1.783   5.143 -0.4580  1.0458  2.3947
   17MOL   H292 7044   2.099   1.613   5.175 -0.0040 -0.0447  0.8118
   17MOL   H293 7045   2.085   1.495   5.369  0.9358  1.3745 -2.0231
   17MOL   H294 7046   2.106   1.587   5.523 -2.4366 -1.2410 -0.9243
   17MOL   H295 7047   2.236   1.542   5.395  0.5631 -0.1777 -0.7450
   17MOL   C296 7048   2.149   1.846   5.670 -0.1128 -0.2247 -0.3735
   17MOL   C297 7049   2.096   1.924   5.791  0.4743  0.7661  0.4867
   17MOL   C298 7050   2.183   1.872   5.915 -0.4878  0.4625  0.2793
   17MOL   C299 7051   2.311   1.946   5.953  0.5458  0.1324  0.0457
   17MOL   C300 7052   2.281   2.073   6.013  0.1124 -0.1942  0.2004
   17MOL   C301 7053   2.390   1.851   6.047 -0.0701 -0.2519 -0.4567
   17MOL   C302 7054   2.408   1.983   5.836 -0.0264 -0.8218  0.7712
   17MOL   H303 7055   2.255   1.821   5.677 -0.9970 -4.5915 -0.9981
   17MOL   H304 7056   2.100   1.749   5.663 -2.9221  1.1283 -0.1484
   17MOL   H305 7057   2.124   2.029   5.782  0.8111  0.6852  0.5504
   17MOL   H306 7058   2.216   1.771   5.894  2.0569  1.6795 -1.9346
   17MOL   H307 7059   2.118   1.873   6.002  1.4366 -2.0029  1.8124
   17MOL   H308 7060   2.221   2.132   5.944  0.6360 -1.6239 -1.5173
   17MOL   H309 7061   2.232   2.059   6.110 -1.2471 -1.0122 -0.5801
   17MOL   H310 7062   2.371   2.124   6.046 -1.0620  0.9279  1.7441
   17MOL   H311 7063   2.446   1.772   5.998  0.3341  1.4358 -2.8281
   17MOL   H312 7064   2.456   1.896   6.121 -0.0307 -0.5948 -0.2834
   17MOL   H313 7065   2.323   1.786   6.102 -0.0952  0.2719  0.1486
   17MOL   H314 7066   2.353   2.059   5.782  0.7734 -0.2034  0.8072
   17MOL   H315 7067   2.499   2.032   5.873 -0.6631 -1.1499  2.8385
   17MOL   H316 7068   2.443   1.895   5.781 -0.2545 -0.6577  0.3694
   17MOL   C317 7069   1.941   1.904   5.800  0.2355 -0.3724 -0.7948
   17MOL   C318 7070   1.865   2.018   5.876  0.7610  0.3616  0.8148
   17MOL   C319 7071   1.808   2.121   5.772 -0.2811  0.2464  0.2464
   17MOL   C320 7072   1.806   2.277   5.794 -0.5468  0.7890  0.8217
   17MOL   C321 7073   1.695   2.328   5.712 -0.2041  0.6299  0.1768
   17MOL   C322 7074   1.933   2.354   5.750  0.3211  0.1516  0.2771
   17MOL   C323 7075   1.781   2.305   5.939  0.1539  0.0701  0.2516
   17MOL   H324 7076   1.889   1.907   5.704 -1.1648  0.9432 -0.0240
   17MOL   H325 7077   1.925   1.803   5.839 -0.3376 -0.3474 -0.9560
   17MOL   H326 7078   1.946   2.062   5.935  1.2195  2.2089 -1.1156
   17MOL   H327 7079   1.720   2.081   5.720  0.8460 -0.2467 -1.3274
   17MOL   H328 7080   1.885   2.118   5.695  1.7433 -3.4619  2.2526
   17MOL   H329 7081   1.703   2.307   5.605 -0.0637  1.0780  0.0969
   17MOL   H330 7082   1.690   2.436   5.724  2.9853  1.0380 -1.5922
   17MOL   H331 7083   1.600   2.281   5.737 -0.7644  1.1642 -0.8677
   17MOL   H332 7084   2.024   2.297   5.769 -0.1538 -0.4109  0.8960
   17MOL   H333 7085   1.925   2.377   5.643 -2.2759  1.3270  0.6855
   17MOL   H334 7086   1.937   2.451   5.800  0.4141 -0.0983  0.7555
   17MOL   H335 7087   1.788   2.411   5.964 -1.1305  0.2791 -0.2477
   17MOL   H336 7088   1.840   2.249   6.011 -0.0574  1.2895  1.3876
   17MOL   H337 7089   1.680   2.273   5.967  0.3339 -1.1616 -0.4879
   17MOL   C338 7090   1.749   1.959   5.951  0.0175 -0.4474  0.2185
   17MOL   C339 7091   1.781   1.877   6.076  1.4068 -0.2180  0.9153
   17MOL   C340 7092   1.663   1.794   6.125 -0.2388 -0.7256 -0.5124
   17MOL   C341 7093   1.624   1.667   6.043 -0.6267 -0.6682  0.4533
   17MOL   C342 7094   1.537   1.564   6.124  0.7325 -0.2828 -0.1435
   17MOL   C343 7095   1.544   1.702   5.912 -0.5286 -0.3664  0.2174
   17MOL   C344 7096   1.750   1.576   6.006 -0.3950 -0.6406 -0.7599
   17MOL   H345 7097   1.684   1.896   5.890  0.3149 -0.9583  0.4198
   17MOL   H346 7098   1.682   2.038   5.985 -0.3436 -1.0814  1.0249
   17MOL   H347 7099   1.869   1.818   6.051  1.7269  0.8191 -0.4489
   17MOL   H348 7100   1.577   1.858   6.141 -0.1975 -1.3785  2.5887
   17MOL   H349 7101   1.679   1.758   6.227 -1.9010 -2.4296 -0.8296
   17MOL   H350 7102   1.573   1.546   6.225  0.1918 -1.3859 -0.1421
   17MOL   H351 7103   1.435   1.600   6.142  1.7443  1.0496  3.1363
   17MOL   H352 7104   1.519   1.469   6.073 -2.1805  0.7668 -1.2445
   17MOL   H353 7105   1.485   1.619   5.872 -0.8788  0.3824 -0.8252
   17MOL   H354 7106   1.483   1.792   5.920 -1.8825 -1.3072  0.7475
   17MOL   H355 7107   1.612   1.713   5.828 -1.4120  3.4921 -0.0504
   17MOL   H356 7108   1.824   1.625   5.943 -0.4176  0.3636 -0.0211
   17MOL   H357 7109   1.788   1.539   6.102 -2.2337 -0.6137  0.0034
   17MOL   H358 7110   1.717   1.489   5.951  1.2787 -1.7057 -0.1169
   17MOL   C359 7111   1.833   1.979   6.177 -0.5919  0.5454 -0.6273
   17MOL   C360 7112   1.891   1.932   6.313 -0.0145 -0.1545  0.0648
   17MOL   C361 7113   1.984   2.040   6.381 -0.1675  0.4064  0.3832
   17MOL   C362 7114   1.916   2.127   6.487  0.0237 -0.2138  0.2050
   17MOL   C363 7115   2.023   2.222   6.543  0.4185  0.4322 -0.1207
   17MOL   C364 7116   1.857   2.049   6.604  0.7565  0.7823  0.1792
   17MOL   C365 7117   1.810   2.219   6.416 -0.8022  0.5002  0.1694
   17MOL   H366 7118   1.754   2.049   6.206  0.9740  1.5180  1.4507
   17MOL   H367 7119   1.914   2.038   6.134 -1.1586  1.7436 -0.0688
   17MOL   H368 7120   1.805   1.922   6.380 -1.6788  0.6944 -1.8814
   17MOL   H369 7121   2.070   1.996   6.432 -0.7730 -2.3674 -0.9065
   17MOL   H370 7122   2.030   2.097   6.300  1.8774 -0.4649  0.9135
   17MOL   H371 7123   1.974   2.278   6.623 -0.1605 -0.4846  0.1725
   17MOL   H372 7124   2.103   2.169   6.596  1.3894 -0.6899 -2.6449
   17MOL   H373 7125   2.075   2.278   6.465  1.1018 -0.9625 -0.6888
   17MOL   H374 7126   1.775   1.985   6.570  1.2737 -0.2425  0.8507
   17MOL   H375 7127   1.816   2.115   6.680 -1.9751 -0.3275 -0.2699
   17MOL   H376 7128   1.934   1.995   6.659  1.2100 -0.6122 -1.7749
   17MOL   H377 7129   1.847   2.277   6.331  0.5937 -1.9791 -0.9691
   17MOL   H378 7130   1.769   2.297   6.480  0.0051  0.3990  0.8133
   17MOL   H379 7131   1.725   2.161   6.379 -0.4258  0.4042 -0.5518
   17MOL   C380 7132   1.971   1.799   6.314  0.0678  0.2081  0.5741
   17MOL   C381 7133   1.975   1.728   6.450  0.2835 -0.3574 -0.4597
   17MOL   C382 7134   2.088   1.618   6.434 -0.3050  0.2065 -0.4231
   17MOL   C383 7135   2.222   1.645   6.503  0.3633 -0.9209 -0.0080
   17MOL   C384 7136   2.211   1.645   6.658 -0.8761  0.2350  0.1679
   17MOL   C385 7137   2.298   1.777   6.454 -0.0886  0.1689 -0.3355
   17MOL   C386 7138   2.315   1.535   6.454  0.1915 -0.1142  0.1060
   17MOL   H387 7139   2.068   1.814   6.268  0.0232 -1.8706 -0.2332
   17MOL   H388 7140   1.928   1.721   6.251 -1.0064  0.5719  0.8469
   17MOL   H389 7141   2.006   1.797   6.529 -0.6432 -2.9830  2.2670
   17MOL   H390 7142   2.056   1.517   6.457  1.2056 -0.0336  0.6897
   17MOL   H391 7143   2.109   1.607   6.328  1.1531 -1.9256  0.0584
   17MOL   H392 7144   2.147   1.720   6.706 -0.7839  0.9629 -0.8335
   17MOL   H393 7145   2.185   1.543   6.686 -0.0484 -0.7157 -2.3891
   17MOL   H394 7146   2.314   1.665   6.686 -0.7668  1.8931 -1.3159
   17MOL   H395 7147   2.248   1.869   6.483 -1.2004 -0.4748 -0.1513
   17MOL   H396 7148   2.322   1.783   6.348 -0.0158  0.0044 -0.3294
   17MOL   H397 7149   2.392   1.780   6.509 -0.4680  0.2018  0.3208
   17MOL   H398 7150   2.332   1.542   6.347 -0.1761 -1.1586 -0.0282
   17MOL   H399 7151   2.273   1.438   6.482  0.9103  0.2032  2.4385
   17MOL   H400 7152   2.413   1.551   6.499  0.1550  0.2333  0.0569
   17MOL   C401 7153   1.842   1.671   6.504  0.0908  0.1106 -0.2586
   17MOL   C402 7154   1.837   1.611   6.647  0.0592  0.7290 -0.0504
   17MOL   C403 7155   1.715   1.513   6.664  0.3749  0.3250 -0.3475
   17MOL   C404 7156   1.712   1.447   6.803 -0.0388  0.2317 -0.5664
   17MOL   C405 7157   1.847   1.398   6.865 -0.9623  0.7027  0.3169
   17MOL   C406 7158   1.621   1.327   6.801  0.6189  0.3177 -0.2034
   17MOL   C407 7159   1.651   1.542   6.914 -0.2571  0.0892  0.4119
   17MOL   H408 7160   1.761   1.740   6.480 -0.2223  0.6298  2.2207
   17MOL   H409 7161   1.830   1.595   6.427 -1.1929 -0.9371  0.9565
   17MOL   H410 7162   1.926   1.548   6.658 -0.3546  0.3674  1.3000
   17MOL   H411 7163   1.728   1.433   6.591  0.2849  1.3494 -1.4922
   17MOL   H412 7164   1.622   1.564   6.639  0.4619 -0.0409 -1.4378
   17MOL   H413 7165   1.917   1.482   6.869 -1.6367  1.1992  3.6713
   17MOL   H414 7166   1.888   1.317   6.805  1.2073  1.2706  0.9510
   17MOL   H415 7167   1.835   1.368   6.970  0.3423  0.0273  0.2896
   17MOL   H416 7168   1.521   1.354   6.767 -0.0010 -2.1948 -0.4433
   17MOL   H417 7169   1.596   1.275   6.894 -0.9679  2.4067  0.5752
   17MOL   H418 7170   1.666   1.259   6.729 -0.3925 -0.1520 -0.3855
   17MOL   H419 7171   1.722   1.621   6.934 -1.6504  1.1912  1.0948
   17MOL   H420 7172   1.560   1.600   6.893 -0.6746  0.0171  1.9954
   17MOL   H421 7173   1.653   1.503   7.015 -0.2549  1.8698  1.1172
   17MOL   H422 7174   1.851   1.684   6.726 -1.2736 -0.0505  0.9188
   18MOL     C1 7175   7.508   1.865   4.968  0.1624 -0.4837 -0.9566
   18MOL     C2 7176   7.579   1.958   4.864 -0.3486 -0.2945 -0.2290
   18MOL     C3 7177   7.642   2.078   4.942  0.1758 -0.1034 -0.8252
   18MOL     C4 7178   0.022   2.111   4.900  0.7412 -0.1048 -0.1475
   18MOL     C5 7179   0.036   2.114   4.745 -0.0509 -0.0166  0.8684
   18MOL     C6 7180   0.075   2.246   4.960 -0.3556 -0.1854  0.1903
   18MOL     C7 7181   0.109   1.985   4.954  1.3180  0.1991  0.3983
   18MOL     H8 7182   7.442   1.788   4.928 -0.3427 -1.0608  0.9534
   18MOL     H9 7183   7.579   1.810   5.031 -0.7813 -0.9960 -0.3387
   18MOL    H10 7184   7.651   1.885   4.827  0.0934  0.2935 -0.5606
   18MOL    H11 7185   7.641   2.050   5.047 -0.1056  2.2452 -0.1638
   18MOL    H12 7186   7.583   2.170   4.939 -1.9611 -1.3830  0.6879
   18MOL    H13 7187   0.018   2.016   4.701 -0.8308  1.8025 -3.0419
   18MOL    H14 7188   0.138   2.136   4.712  0.8842 -2.2117  2.1441
   18MOL    H15 7189   7.738   2.184   4.691  0.3431 -1.0436 -0.9525
   18MOL    H16 7190   0.020   2.336   4.934  0.5789  0.7725  1.5227
   18MOL    H17 7191   0.082   2.240   5.068 -2.9614 -2.4006  0.2951
   18MOL    H18 7192   0.169   2.269   4.911 -0.9534 -0.3545 -1.0616
   18MOL    H19 7193   0.101   1.987   5.063 -0.5722 -1.1205  0.3012
   18MOL    H20 7194   0.212   1.989   4.918  1.3980  1.5208  0.7293
   18MOL    H21 7195   0.063   1.891   4.925  1.7520 -0.0756  0.5971
   18MOL    H22 7196   7.451   1.924   5.040  0.6412 -1.2669  0.0845
   18MOL    C23 7197   7.482   2.004   4.751  0.9664  0.1301 -0.0419
   18MOL    C24 7198   7.434   1.889   4.647  0.3200 -0.2972  0.9710
   18MOL    C25 7199   7.552   1.876   4.542  0.1970 -0.2096  0.0693
   18MOL    C26 7200   7.609   1.740   4.517  0.5422  0.3818  0.4782
   18MOL    C27 7201   7.671   1.673   4.642 -0.5474 -0.2054 -0.3578
   18MOL    C28 7202   7.500   1.648   4.464 -0.2249 -0.5419  0.5180
   18MOL    C29 7203   7.730   1.737   4.422  0.0647  0.1148  0.2665
   18MOL    H30 7204   7.398   2.035   4.813  1.0796 -0.0705  0.2119
   18MOL    H31 7205   7.514   2.089   4.691 -0.0686  0.9241  0.5148
   18MOL    H32 7206   7.425   1.797   4.705 -2.9042 -0.6591 -0.0137
   18MOL    H33 7207   7.637   1.940   4.566  0.8559 -0.6381 -1.0681
   18MOL    H34 7208   7.517   1.919   4.448 -1.1110 -2.3716 -0.4747
   18MOL    H35 7209   7.708   1.575   4.612  0.2789 -0.0931  0.2883
   18MOL    H36 7210   7.759   1.724   4.682 -0.0112 -1.9231  0.7123
   18MOL    H37 7211   7.597   1.658   4.721  0.6643  1.4399  1.1523
   18MOL    H38 7212   7.421   1.620   4.535  0.3352 -1.6048  0.7387
   18MOL    H39 7213   7.452   1.697   4.379  1.1662  1.3202  0.7905
   18MOL    H40 7214   7.535   1.554   4.420  0.5802  0.3871 -0.8322
   18MOL    H41 7215   7.715   1.788   4.327 -0.4441  1.7456  1.1934
   18MOL    H42 7216   7.757   1.634   4.398 -0.8642 -0.3958  1.3626
   18MOL    H43 7217   0.056   1.776   4.465 -0.8392  2.0927  0.4624
   18MOL    C44 7218   7.294   1.909   4.577 -0.9870 -0.0975  0.1759
   18MOL    C45 7219   7.162   1.895   4.660 -0.9138  0.2491 -1.0851
   18MOL    C46 7220   7.049   1.826   4.577  0.3694 -0.1340  0.0356
   18MOL    C47 7221   7.020   1.676   4.589  0.3035  0.7576 -0.1405
   18MOL    C48 7222   7.153   1.599   4.567  0.7495 -0.3749 -0.0708
   18MOL    C49 7223   6.926   1.639   4.487  0.1424  0.7136  0.2953
   18MOL    C50 7224   6.960   1.651   4.734  0.0363  0.5587  0.2874
   18MOL    H51 7225   7.290   2.007   4.529  0.1844  0.0288  0.3219
   18MOL    H52 7226   7.289   1.847   4.488 -0.2686 -0.4775  0.3975
   18MOL    H53 7227   7.189   1.828   4.743 -1.9366  0.1708 -0.8116
   18MOL    H54 7228   7.068   1.856   4.474  0.3626 -0.5626 -0.0902
   18MOL    H55 7229   6.956   1.875   4.604 -1.1581 -1.8502 -1.9291
   18MOL    H56 7230   7.228   1.637   4.637 -1.5864  3.2214  0.6236
   18MOL    H57 7231   7.204   1.615   4.472  3.5645 -0.1389  1.4149
   18MOL    H58 7232   7.146   1.491   4.579 -2.8072 -0.1645  0.2297
   18MOL    H59 7233   6.826   1.669   4.521  0.1801  2.3558 -0.9700
   18MOL    H60 7234   6.959   1.659   4.385 -0.0322 -1.0984 -0.1400
   18MOL    H61 7235   6.922   1.531   4.501  1.9502  0.5612 -0.2630
   18MOL    H62 7236   7.025   1.684   4.816 -0.7014  0.7794  0.7835
   18MOL    H63 7237   6.863   1.697   4.753 -0.8841 -1.2088  0.0224
   18MOL    H64 7238   6.951   1.542   4.739 -2.7306  0.5737 -2.8001
   18MOL    C65 7239   7.114   2.029   4.719  0.4244 -0.1027  0.3173
   18MOL    C66 7240   7.044   2.024   4.859 -0.3036 -0.6976  0.4130
   18MOL    C67 7241   6.964   2.155   4.883 -0.1059 -1.1015 -0.0396
   18MOL    C68 7242   6.811   2.163   4.859 -0.7087  0.1207 -0.3342
   18MOL    C69 7243   6.789   2.149   4.708  0.0679  0.1425 -0.5411
   18MOL    C70 7244   6.728   2.062   4.928 -0.5256  0.6804  0.2622
   18MOL    C71 7245   6.754   2.304   4.897  0.8620 -0.2099 -0.6971
   18MOL    H72 7246   7.190   2.104   4.739  1.8369 -1.8758  1.6948
   18MOL    H73 7247   7.061   2.082   4.640 -0.3633 -1.5892 -0.1738
   18MOL    H74 7248   6.984   1.933   4.862 -0.2718 -0.8614 -2.4057
   18MOL    H75 7249   6.997   2.241   4.824 -1.7619  0.2234  0.9290
   18MOL    H76 7250   6.987   2.187   4.985 -1.4491  0.1742 -0.1231
   18MOL    H77 7251   6.804   2.050   4.666 -1.2126 -2.2620  4.2861
   18MOL    H78 7252   6.688   2.185   4.691  0.6050  1.2736 -1.4234
   18MOL    H79 7253   6.862   2.210   4.654  0.4638 -0.3378 -0.5499
   18MOL    H80 7254   6.733   2.048   5.036 -0.8315 -0.6559  0.1077
   18MOL    H81 7255   6.728   1.967   4.874 -2.0609  0.8350 -0.0476
   18MOL    H82 7256   6.624   2.091   4.912 -1.3792 -1.8871  0.9370
   18MOL    H83 7257   6.651   2.310   4.862  0.4059  0.7325  0.7762
   18MOL    H84 7258   6.801   2.382   4.838 -1.3444  0.3237 -1.8328
   18MOL    H85 7259   6.752   2.318   5.005  0.0245 -0.9338 -0.6089
   18MOL    C86 7260   7.153   2.018   4.971  0.2231 -0.1784  0.2637
   18MOL    C87 7261   7.109   1.967   5.118 -0.0859  0.0860  0.0783
   18MOL    C88 7262   7.220   2.019   5.220 -0.8415 -1.0310  0.1903
   18MOL    C89 7263   7.189   2.154   5.298  0.0993  0.6673 -0.1435
   18MOL    C90 7264   7.086   2.116   5.404 -0.2382  0.1589  0.3683
   18MOL    C91 7265   7.140   2.274   5.205  0.1530  0.2437 -0.3433
   18MOL    C92 7266   7.319   2.209   5.367  0.1427 -0.0994  0.0907
   18MOL    H93 7267   7.211   2.110   4.962  0.7569 -0.4663  0.7296
   18MOL    H94 7268   7.228   1.947   4.935 -0.0267 -0.0487 -0.5316
   18MOL    H95 7269   7.012   2.005   5.150  0.2095  0.2529  0.7683
   18MOL    H96 7270   7.313   2.036   5.164 -0.8913 -1.3358  0.0137
   18MOL    H97 7271   7.234   1.939   5.294  2.6725 -1.5038 -0.8508
   18MOL    H98 7272   7.061   2.200   5.468  0.2922 -1.4124  2.6985
   18MOL    H99 7273   7.122   2.040   5.474  0.3868  0.2340  0.1293
   18MOL   H100 7274   6.993   2.087   5.356 -0.1346  0.2200  0.1276
   18MOL   H101 7275   7.145   2.368   5.259  0.6342 -0.5986  1.1054
   18MOL   H102 7276   7.210   2.276   5.121  0.1054 -1.3064 -0.4450
   18MOL   H103 7277   7.037   2.261   5.172  0.3940  2.2345 -1.9900
   18MOL   H104 7278   7.367   2.143   5.439 -0.9709  0.3566  1.2742
   18MOL   H105 7279   7.396   2.238   5.295 -0.1709 -2.2810 -1.1931
   18MOL   H106 7280   7.301   2.301   5.422  1.1580  0.2565 -0.1617
   18MOL   C107 7281   7.105   1.815   5.118 -0.1707 -0.3473 -0.5557
   18MOL   C108 7282   7.011   1.755   5.225 -0.9160  1.0789  0.0673
   18MOL   C109 7283   6.865   1.745   5.190  0.4221 -0.5176 -0.7627
   18MOL   C110 7284   6.756   1.784   5.287  0.2481 -0.4593 -0.3599
   18MOL   C111 7285   6.763   1.932   5.335 -0.1881  0.7783  0.2268
   18MOL   C112 7286   6.746   1.681   5.397  0.0824 -0.1371 -0.5366
   18MOL   C113 7287   6.629   1.775   5.194  0.4942 -0.5253  0.0101
   18MOL   H114 7288   7.206   1.774   5.123 -0.1452 -0.2336 -0.1254
   18MOL   H115 7289   7.059   1.785   5.023 -0.2534  1.7949 -1.2002
   18MOL   H116 7290   7.005   1.832   5.302  1.5608  2.5543 -1.1497
   18MOL   H117 7291   6.846   1.811   5.105 -2.2797  0.5103  0.5674
   18MOL   H118 7292   6.853   1.649   5.138 -0.4869 -1.2073  0.6934
   18MOL   H119 7293   6.665   1.957   5.376  0.0186  1.5794  0.2381
   18MOL   H120 7294   6.838   1.937   5.414  0.9408  1.8468 -0.8928
   18MOL   H121 7295   6.774   2.009   5.259 -2.1251  1.3408  0.4896
   18MOL   H122 7296   6.649   1.688   5.447 -0.6428 -0.2687 -1.9205
   18MOL   H123 7297   6.819   1.707   5.474  0.6459  1.5499 -1.6264
   18MOL   H124 7298   6.760   1.584   5.351 -1.1327  0.6528 -2.6293
   18MOL   H125 7299   6.539   1.793   5.253 -0.0547  2.0869 -1.5469
   18MOL   H126 7300   6.594   1.687   5.139 -3.3167  1.5843 -1.1254
   18MOL   H127 7301   6.633   1.860   5.126 -1.6144 -1.6655 -1.6045
   18MOL   C128 7302   7.064   1.620   5.290 -0.3098  0.6289 -0.7602
   18MOL   C129 7303   7.205   1.598   5.330 -0.0921  0.0224  0.2352
   18MOL   C130 7304   7.240   1.683   5.455 -0.2875  0.3858  0.6811
   18MOL   C131 7305   7.391   1.716   5.492 -0.3809 -0.5988 -0.8540
   18MOL   C132 7306   7.460   1.774   5.375 -0.8708 -0.5623  0.0913
   18MOL   C133 7307   7.462   1.591   5.543  0.3089  0.0864 -0.7101
   18MOL   C134 7308   7.386   1.815   5.605 -0.0828 -0.0821  0.4592
   18MOL   H135 7309   7.036   1.546   5.214  0.6898 -1.2631  0.6527
   18MOL   H136 7310   7.002   1.603   5.378 -1.5289  1.2819 -1.4990
   18MOL   H137 7311   7.268   1.631   5.247  0.7967 -0.6016  0.6535
   18MOL   H138 7312   7.187   1.778   5.461 -0.8264  0.1595 -0.3743
   18MOL   H139 7313   7.199   1.635   5.544 -3.1420 -2.2403 -1.9343
   18MOL   H140 7314   7.479   1.703   5.295  1.5665  0.6226 -0.4375
   18MOL   H141 7315   7.563   1.803   5.397 -1.1431  0.3745  0.1525
   18MOL   H142 7316   7.407   1.855   5.326 -0.3787 -0.5515 -0.4242
   18MOL   H143 7317   7.494   1.539   5.453  0.9426  2.1215 -1.6932
   18MOL   H144 7318   7.402   1.519   5.600  0.1497 -0.4357 -1.5264
   18MOL   H145 7319   7.553   1.620   5.594  0.9626 -2.3582 -0.4008
   18MOL   H146 7320   7.476   1.811   5.665 -1.7230 -0.2444  2.9916
   18MOL   H147 7321   7.379   1.918   5.569 -3.8090 -0.6941 -0.8559
   18MOL   H148 7322   7.306   1.798   5.678 -2.2962  1.2695 -1.5575
   18MOL   C149 7323   7.226   1.446   5.363  0.2657 -0.1137  0.0182
   18MOL   C150 7324   7.238   1.353   5.243  0.2133  0.1499  0.0436
   18MOL   C151 7325   7.358   1.377   5.143  0.2843  0.6865  0.4981
   18MOL   C152 7326   7.315   1.378   4.991  1.4540 -0.5978  0.0755
   18MOL   C153 7327   7.443   1.425   4.916 -0.0926  0.6593  0.3882
   18MOL   C154 7328   7.212   1.499   4.953 -0.0464 -0.4051 -0.6137
   18MOL   C155 7329   7.263   1.248   4.936  0.1662 -0.1017  0.4405
   18MOL   H156 7330   7.155   1.398   5.431  1.8948 -1.7107  0.6248
   18MOL   H157 7331   7.316   1.430   5.421  0.5911  0.0849 -0.4299
   18MOL   H158 7332   7.150   1.372   5.182 -0.3337 -0.5447  0.5955
   18MOL   H159 7333   7.430   1.298   5.165  0.4766  1.0028  0.9930
   18MOL   H160 7334   7.412   1.469   5.167  1.1723 -0.2685  2.2895
   18MOL   H161 7335   7.527   1.358   4.936  0.5348  0.8294 -1.5608
   18MOL   H162 7336   7.421   1.434   4.809 -0.4936 -1.8884  0.2314
   18MOL   H163 7337   7.476   1.524   4.946  2.1470 -0.0799  0.5131
   18MOL   H164 7338   7.222   1.588   5.015 -1.4070 -2.7406  3.2038
   18MOL   H165 7339   7.111   1.463   4.972 -0.2770  2.0616  3.5426
   18MOL   H166 7340   7.209   1.517   4.846  0.1963 -2.6284 -1.0260
   18MOL   H167 7341   7.178   1.225   5.001  0.4651  1.4691  1.4195
   18MOL   H168 7342   7.219   1.247   4.837 -1.5498 -0.3772  1.1928
   18MOL   H169 7343   7.330   1.165   4.962  1.2264  1.1357  1.7961
   18MOL   C170 7344   7.197   1.210   5.292 -0.5780 -0.0245  0.6055
   18MOL   C171 7345   7.281   1.139   5.406 -0.1088 -0.1369  0.0757
   18MOL   C172 7346   7.400   1.067   5.336  0.2605 -0.2505  0.0537
   18MOL   C173 7347   7.542   1.087   5.395  0.0147 -0.5418  0.1266
   18MOL   C174 7348   7.580   1.238   5.414 -0.3225 -0.2874  0.2787
   18MOL   C175 7349   7.648   1.018   5.313 -0.5583  0.3386 -0.1912
   18MOL   C176 7350   7.542   1.029   5.536 -0.1426 -0.5449  0.1180
   18MOL   H177 7351   7.202   1.146   5.204  0.9033  1.3086 -0.3006
   18MOL   H178 7352   7.091   1.207   5.316 -0.3821  0.3380  1.5260
   18MOL   H179 7353   7.326   1.214   5.472  1.0470 -0.0936 -0.7246
   18MOL   H180 7354   7.371   0.962   5.325 -1.0748  0.0095  0.9876
   18MOL   H181 7355   7.415   1.100   5.234 -0.3123  1.0381  0.3810
   18MOL   H182 7356   7.676   1.236   5.466 -1.5471  0.3891  2.6334
   18MOL   H183 7357   7.606   1.289   5.321  0.6091 -0.3865  0.4792
   18MOL   H184 7358   7.517   1.295   5.481 -0.8569  0.5572 -0.9246
   18MOL   H185 7359   7.638   1.045   5.208 -1.4363  0.3705 -0.1042
   18MOL   H186 7360   7.750   1.050   5.334  0.4995 -1.5581 -2.1313
   18MOL   H187 7361   7.648   0.909   5.303  1.5473  0.4762 -2.2196
   18MOL   H188 7362   7.460   1.072   5.592 -0.1753  0.5521 -0.7473
   18MOL   H189 7363   7.530   0.921   5.535 -0.9085 -0.4616 -1.1524
   18MOL   H190 7364   7.640   1.049   5.580  0.5305  1.9804 -2.3147
   18MOL   C191 7365   7.197   1.050   5.495 -0.1414  0.2727 -0.2048
   18MOL   C192 7366   7.099   1.111   5.603 -0.0492 -0.2082 -0.6107
   18MOL   C193 7367   7.182   1.185   5.718  0.2528  0.4842  0.0568
   18MOL   C194 7368   7.119   1.301   5.803  0.5249 -0.1475 -0.0698
   18MOL   C195 7369   7.087   1.426   5.708  0.1497  0.6277  0.2234
   18MOL   C196 7370   7.231   1.345   5.902 -0.0925 -0.5089  0.1429
   18MOL   C197 7371   6.991   1.266   5.877  0.2336  0.0672 -0.4107
   18MOL   H198 7372   7.143   0.983   5.428  1.3336 -0.1039 -1.0257
   18MOL   H199 7373   7.265   0.989   5.554  0.4431  0.6064 -0.5248
   18MOL   H200 7374   7.046   1.182   5.540 -0.1224 -0.4489 -0.8207
   18MOL   H201 7375   7.272   1.225   5.673  1.8122 -3.1915 -0.2577
   18MOL   H202 7376   7.215   1.107   5.787  0.1452 -0.4285 -0.9158
   18MOL   H203 7377   6.993   1.411   5.655  0.6943 -1.2863 -0.2268
   18MOL   H204 7378   7.066   1.509   5.776 -1.0060  2.3088 -2.0933
   18MOL   H205 7379   7.173   1.442   5.644  0.0823  0.6848  0.1475
   18MOL   H206 7380   7.206   1.423   5.973  1.2476  0.9028 -0.9045
   18MOL   H207 7381   7.268   1.263   5.965  3.3958  2.3161  1.9249
   18MOL   H208 7382   7.322   1.383   5.856 -0.2666  0.3142  0.4746
   18MOL   H209 7383   7.016   1.186   5.946 -0.3675  0.1575 -0.0767
   18MOL   H210 7384   6.963   1.348   5.944  0.8910 -0.2127  0.2131
   18MOL   H211 7385   6.902   1.240   5.819  0.0253  1.3766 -0.7136
   18MOL   C212 7386   7.000   0.999   5.651 -0.0025  0.1660 -0.4112
   18MOL   C213 7387   7.050   0.870   5.711 -0.1647  0.0813 -0.7685
   18MOL   C214 7388   6.942   0.758   5.691  0.6058 -0.5878  0.2335
   18MOL   C215 7389   6.972   0.653   5.576  0.3305  0.8729  0.6724
   18MOL   C216 7390   6.982   0.716   5.440 -0.1370 -0.3217 -0.0534
   18MOL   C217 7391   7.103   0.581   5.620  0.2166  0.2461  0.2860
   18MOL   C218 7392   6.855   0.545   5.578  0.1494 -0.9552  0.0606
   18MOL   H219 7393   6.911   1.027   5.707  2.0205  1.1693  2.4086
   18MOL   H220 7394   6.953   0.973   5.556 -1.1438 -2.5988  0.8708
   18MOL   H221 7395   7.146   0.842   5.668 -0.4710 -0.5157 -1.0784
   18MOL   H222 7396   6.842   0.794   5.667 -0.4649 -2.1182  2.2922
   18MOL   H223 7397   6.921   0.706   5.784 -1.0715  0.4702  0.4696
   18MOL   H224 7398   6.891   0.766   5.406  2.0761  3.1675 -1.1588
   18MOL   H225 7399   7.009   0.635   5.372  0.8297  0.2026 -0.3035
   18MOL   H226 7400   7.060   0.792   5.434 -0.5261  0.0283 -0.7571
   18MOL   H227 7401   7.119   0.495   5.555 -1.4372 -1.2207  1.7906
   18MOL   H228 7402   7.193   0.642   5.617  0.4399 -0.1157 -0.9565
   18MOL   H229 7403   7.111   0.533   5.717  3.5261  1.7301  0.8147
   18MOL   H230 7404   6.869   0.477   5.495 -1.7891 -2.4464  0.9304
   18MOL   H231 7405   6.752   0.577   5.565  0.0663 -0.2429  2.1748
   18MOL   H232 7406   6.861   0.495   5.675 -0.4674  0.8959  1.0872
   18MOL   C233 7407   7.061   0.887   5.862  1.0952  0.2295  0.2983
   18MOL   C234 7408   7.161   0.785   5.934 -0.6857  0.5675 -0.1377
   18MOL   C235 7409   7.305   0.845   5.908 -0.4511  0.9613  1.0637
   18MOL   C236 7410   7.432   0.751   5.918  0.4346  0.1437 -0.1383
   18MOL   C237 7411   7.440   0.688   6.057  0.5043 -0.0867  0.2634
   18MOL   C238 7412   7.424   0.635   5.812  0.0452 -0.0990  0.2110
   18MOL   C239 7413   7.562   0.828   5.889  0.1161 -0.1710  0.1590
   18MOL   H240 7414   6.967   0.898   5.915  2.0886  1.0238  1.9303
   18MOL   H241 7415   7.101   0.987   5.879  2.3959 -0.3854  1.0226
   18MOL   H242 7416   7.153   0.690   5.882  0.8599  0.7785 -0.8108
   18MOL   H243 7417   7.309   0.901   5.815 -0.6857 -0.8264 -0.0398
   18MOL   H244 7418   7.321   0.924   5.982 -2.3252  0.1705  2.3527
   18MOL   H245 7419   7.534   0.636   6.081 -1.2196 -2.3763  2.4155
   18MOL   H246 7420   7.355   0.624   6.079 -0.1936  0.6599 -0.2672
   18MOL   H247 7421   7.432   0.760   6.138 -0.7838  0.8604 -0.6965
   18MOL   H248 7422   7.514   0.576   5.828 -1.1206 -1.3581  2.3204
   18MOL   H249 7423   7.330   0.580   5.821  0.0300 -0.2998 -1.1867
   18MOL   H250 7424   7.440   0.674   5.712  0.3523  3.6351  1.6262
   18MOL   H251 7425   7.559   0.849   5.782  0.6491  1.7004  0.4826
   18MOL   H252 7426   7.571   0.922   5.944 -1.1569  0.1499 -0.1531
   18MOL   H253 7427   7.648   0.764   5.908  0.2119 -0.4619 -1.2126
   18MOL   C254 7428   7.119   0.785   6.081  0.6929  0.3546  0.7282
   18MOL   C255 7429   6.988   0.722   6.111  0.3446 -0.3133 -0.6568
   18MOL   C256 7430   6.943   0.766   6.251 -0.1030 -0.9019  0.0852
   18MOL   C257 7431   6.901   0.905   6.297  0.1835 -0.4960 -0.0546
   18MOL   C258 7432   6.836   0.892   6.436  0.6391 -0.2594 -0.0833
   18MOL   C259 7433   6.782   0.966   6.212  0.0436 -0.3731  0.1647
   18MOL   C260 7434   7.019   1.000   6.301 -0.5407  0.8122 -0.4463
   18MOL   H261 7435   7.125   0.888   6.115  0.3885  1.4415 -2.3676
   18MOL   H262 7436   7.186   0.733   6.150 -1.6757 -2.1657  1.2368
   18MOL   H263 7437   6.916   0.755   6.036  0.3061  3.6837  1.0349
   18MOL   H264 7438   6.851   0.712   6.270 -0.9171  0.6689  0.7232
   18MOL   H265 7439   7.019   0.725   6.318  0.4107 -1.7713 -1.0187
   18MOL   H266 7440   6.905   0.850   6.510 -0.9578 -2.0938  0.4098
   18MOL   H267 7441   6.756   0.818   6.435  0.3163  0.0464  1.4023
   18MOL   H268 7442   6.812   0.990   6.476  2.3033 -0.5814  1.7777
   18MOL   H269 7443   6.832   0.995   6.120  1.7364  1.9107  1.7376
   18MOL   H270 7444   6.743   1.056   6.259 -1.0933 -0.1853 -1.1084
   18MOL   H271 7445   6.694   0.901   6.213 -1.3453  1.4663 -0.6249
   18MOL   H272 7446   7.014   1.072   6.383 -0.6883  1.5912 -1.1307
   18MOL   H273 7447   7.104   0.933   6.316 -0.7447  0.6101 -0.2059
   18MOL   H274 7448   7.035   1.052   6.206  3.9854  2.0103  0.8504
   18MOL   C275 7449   6.994   0.571   6.101 -0.3802  0.3504  0.6146
   18MOL   C276 7450   6.858   0.485   6.110  0.1083 -0.1258  0.1499
   18MOL   C277 7451   6.751   0.532   6.015  0.0512 -0.2602  0.4008
   18MOL   C278 7452   6.600   0.478   6.030 -0.3874  0.3903  0.2817
   18MOL   C279 7453   6.559   0.487   6.179  0.5385  0.1857  0.0157
   18MOL   C280 7454   6.517   0.572   5.949 -0.1314 -0.3485 -0.7096
   18MOL   C281 7455   6.586   0.327   5.977 -0.6145 -1.1418  0.3039
   18MOL   H282 7456   7.057   0.541   6.017 -1.3813 -0.5524  0.1710
   18MOL   H283 7457   7.064   0.534   6.175 -0.3774 -2.3945 -0.7164
   18MOL   H284 7458   6.817   0.489   6.211 -1.2173 -3.0080 -0.2180
   18MOL   H285 7459   6.795   0.517   5.916 -0.3004 -1.4076  0.4038
   18MOL   H286 7460   6.747   0.638   6.040 -1.3541 -0.3188  0.4521
   18MOL   H287 7461   6.577   0.399   6.241  0.1927 -0.1271 -0.3312
   18MOL   H288 7462   6.611   0.574   6.221  1.9028 -1.4886  1.9052
   18MOL   H289 7463   6.459   0.522   6.203  0.6478  1.1600 -0.9495
   18MOL   H290 7464   6.522   0.671   5.993 -1.9958 -0.4163 -0.3057
   18MOL   H291 7465   6.414   0.538   5.931  0.2878 -1.4421 -1.1221
   18MOL   H292 7466   6.559   0.589   5.850 -0.0288  2.5649 -0.1990
   18MOL   H293 7467   6.616   0.253   6.051 -1.1474  0.3906  2.0887
   18MOL   H294 7468   6.639   0.309   5.883  0.6081 -1.4751  1.0408
   18MOL   H295 7469   6.482   0.315   5.947 -0.9412  3.4764 -0.7442
   18MOL   C296 7470   6.904   0.343   6.067  0.2266  0.2407 -0.0662
   18MOL   C297 7471   7.003   0.268   6.167  0.3472 -0.7397 -0.8367
   18MOL   C298 7472   7.078   0.169   6.077  0.3849 -0.2198 -0.1860
   18MOL   C299 7473   7.239   0.167   6.089  0.3082  0.4756 -0.2455
   18MOL   C300 7474   7.307   0.066   5.994 -0.0649  0.3039  0.9137
   18MOL   C301 7475   7.304   0.299   6.063 -0.2680  0.6704  0.0448
   18MOL   C302 7476   7.285   0.114   6.225 -0.6103  0.3008  0.1541
   18MOL   H303 7477   6.947   0.361   5.969  0.4282 -2.9952 -0.6233
   18MOL   H304 7478   6.817   0.276   6.066  1.3997 -1.4678  2.9542
   18MOL   H305 7479   7.075   0.331   6.219 -0.7376  1.5536 -2.0190
   18MOL   H306 7480   7.064   0.188   5.970 -0.6170 -0.1045 -0.0313
   18MOL   H307 7481   7.040   0.067   6.075 -0.9119  0.2648 -0.7590
   18MOL   H308 7482   7.250   7.739   5.989  0.5276 -0.1291  2.0926
   18MOL   H309 7483   7.303   0.102   5.891 -2.2876 -1.5241  0.3083
   18MOL   H310 7484   7.414   0.049   6.009  0.4204  0.9737 -1.5372
   18MOL   H311 7485   7.274   0.328   5.963  2.9506 -1.6325 -1.6680
   18MOL   H312 7486   7.269   0.378   6.130 -0.9493  0.9159 -0.5997
   18MOL   H313 7487   7.412   0.296   6.072 -0.3470  0.4604  0.9795
   18MOL   H314 7488   7.242   0.015   6.239 -1.6568  0.6169 -0.7538
   18MOL   H315 7489   7.391   0.097   6.246 -0.8133  2.3225  3.2110
   18MOL   H316 7490   7.242   0.185   6.295 -0.6108  1.9684 -1.5034
   18MOL   C317 7491   6.933   0.188   6.278 -0.6418  0.0430 -0.2800
   18MOL   C318 7492   6.848   0.258   6.385  0.3949  0.8663 -0.3649
   18MOL   C319 7493   6.797   0.147   6.489  0.0239 -0.0106 -0.1458
   18MOL   C320 7494   6.686   0.050   6.436  0.4662  0.3432 -0.0284
   18MOL   C321 7495   6.591   0.009   6.552  0.1050  0.1038  0.0212
   18MOL   C322 7496   6.754   7.682   6.403  0.1501  0.4653 -0.2462
   18MOL   C323 7497   6.588   0.097   6.329 -0.4136  0.1370  0.0533
   18MOL   H324 7498   6.871   0.120   6.219  0.7482 -0.8545 -0.7348
   18MOL   H325 7499   7.007   0.134   6.337  0.7784  3.0639  0.8177
   18MOL   H326 7500   6.762   0.302   6.334  0.1736  2.2236  1.1548
   18MOL   H327 7501   6.763   0.192   6.582 -0.3232 -1.9571  0.6828
   18MOL   H328 7502   6.883   0.088   6.521 -0.1731  0.5543  1.4820
   18MOL   H329 7503   6.560   0.093   6.614  1.4489  0.1022  0.7139
   18MOL   H330 7504   6.640   7.705   6.620  1.2324  1.0736  0.2323
   18MOL   H331 7505   6.503   7.717   6.527 -1.8546  3.4703 -1.1854
   18MOL   H332 7506   6.828   7.635   6.468  1.9422  1.4315 -1.5526
   18MOL   H333 7507   6.677   7.610   6.374  0.2733 -0.5411  1.8196
   18MOL   H334 7508   6.805   7.695   6.308  0.0108 -0.8823 -0.5164
   18MOL   H335 7509   6.530   0.014   6.289  0.7871 -0.4718 -0.4223
   18MOL   H336 7510   6.643   0.148   6.250 -1.1103  1.1499  0.2041
   18MOL   H337 7511   6.520   0.170   6.375 -0.4164  0.2024 -0.0540
   18MOL   C338 7512   6.930   0.373   6.447  0.1509  0.4639  0.5119
   18MOL   C339 7513   6.872   0.450   6.567  0.3565  0.0513  0.7081
   18MOL   C340 7514   6.739   0.525   6.531 -0.3884  0.0889 -0.0327
   18MOL   C341 7515   6.625   0.539   6.633 -0.2046 -0.3255  0.2334
   18MOL   C342 7516   6.504   0.610   6.573  0.5556 -0.7593  0.7007
   18MOL   C343 7517   6.565   0.403   6.679  0.2841  0.2103  0.0968
   18MOL   C344 7518   6.666   0.615   6.766  0.2370 -0.2372  0.2923
   18MOL   H345 7519   6.947   0.456   6.379  1.7663  1.3967  2.0288
   18MOL   H346 7520   7.031   0.333   6.457  0.1005  0.0192 -0.6878
   18MOL   H347 7521   6.843   0.380   6.645  1.0811  0.2636  1.1759
   18MOL   H348 7522   6.698   0.459   6.454 -0.5975 -2.0690  1.8666
   18MOL   H349 7523   6.777   0.621   6.496  1.5542 -0.6922 -0.1561
   18MOL   H350 7524   6.511   0.715   6.547 -2.0799 -0.3634  1.3966
   18MOL   H351 7525   6.472   0.556   6.484  2.8032 -2.1592  0.7055
   18MOL   H352 7526   6.414   0.612   6.635 -0.4605  3.2758 -0.7690
   18MOL   H353 7527   6.637   0.341   6.731  0.6280  0.4678 -0.0706
   18MOL   H354 7528   6.490   0.433   6.752  0.9796  0.1232  0.8495
   18MOL   H355 7529   6.516   0.345   6.600 -0.3205 -0.6283  1.0860
   18MOL   H356 7530   6.734   0.565   6.835  0.0307 -0.1202  0.5781
   18MOL   H357 7531   6.712   0.708   6.734  0.2635 -0.2445  0.3098
   18MOL   H358 7532   6.571   0.625   6.818 -1.1096 -1.6277 -1.8326
   18MOL   C359 7533   6.977   0.544   6.640 -0.1556 -0.5169  0.1215
   18MOL   C360 7534   7.079   0.467   6.729 -0.7866  0.0328  0.1375
   18MOL   C361 7535   7.013   0.411   6.861  0.1213  0.1203 -0.3635
   18MOL   C362 7536   7.058   0.270   6.901  0.3010  0.3453 -0.0506
   18MOL   C363 7537   7.206   0.262   6.928 -0.1565 -0.1292 -0.5110
   18MOL   C364 7538   7.027   0.169   6.784  0.7529  0.4645  0.9530
   18MOL   C365 7539   6.975   0.228   7.017 -0.1202 -0.4106 -0.0851
   18MOL   H366 7540   6.919   0.615   6.698 -1.5799 -0.1081 -1.7783
   18MOL   H367 7541   7.026   0.605   6.564  0.7799  1.5985  2.3534
   18MOL   H368 7542   7.124   0.387   6.670  1.2473  1.3333 -0.1309
   18MOL   H369 7543   7.028   0.477   6.947 -0.2312  1.9538 -1.6706
   18MOL   H370 7544   6.904   0.411   6.870  0.2255 -0.8716  1.0659
   18MOL   H371 7545   7.255   0.171   6.963  1.7829  0.4598 -1.6201
   18MOL   H372 7546   7.266   0.276   6.838  0.4029 -0.2823 -0.1688
   18MOL   H373 7547   7.229   0.342   6.999 -1.2719 -2.9567  3.2107
   18MOL   H374 7548   7.098   0.170   6.702 -0.1815 -0.7522  0.0999
   18MOL   H375 7549   6.921   0.168   6.758  0.3579 -3.0148  2.4228
   18MOL   H376 7550   7.033   0.070   6.829 -2.3506  0.3414  1.2579
   18MOL   H377 7551   6.974   0.317   7.081 -1.0584  0.7580 -1.6817
   18MOL   H378 7552   7.006   0.135   7.064 -1.1464 -1.0520 -0.6722
   18MOL   H379 7553   6.874   0.205   6.983 -0.5618  0.2845  0.7292
   18MOL   C380 7554   7.195   0.560   6.781  0.1363  1.1433 -0.3036
   18MOL   C381 7555   7.286   0.626   6.675 -0.5776 -0.2328 -0.1217
   18MOL   C382 7556   7.366   0.514   6.606  0.0709 -0.7148 -0.0176
   18MOL   C383 7557   7.405   0.531   6.457  0.2922 -0.1291 -0.0323
   18MOL   C384 7558   7.272   0.551   6.379  0.2066  0.4426  0.4136
   18MOL   C385 7559   7.470   0.397   6.418  0.4429 -0.1173  0.1338
   18MOL   C386 7560   7.515   0.640   6.440  0.2911  0.6884 -0.0643
   18MOL   H387 7561   7.263   0.510   6.850 -0.1589 -0.9508 -1.4927
   18MOL   H388 7562   7.149   0.634   6.846  1.3687  0.7815  1.0189
   18MOL   H389 7563   7.224   0.672   6.598  0.8640 -0.5833 -1.5188
   18MOL   H390 7564   7.456   0.501   6.667  0.8571  0.4958 -0.8876
   18MOL   H391 7565   7.315   0.417   6.604  0.2468 -0.9987  4.3981
   18MOL   H392 7566   7.201   0.477   6.413  1.1955 -1.6553 -1.9271
   18MOL   H393 7567   7.235   0.650   6.407  0.2302  0.9215 -1.1926
   18MOL   H394 7568   7.289   0.538   6.272 -1.6260 -0.3400  0.2017
   18MOL   H395 7569   7.476   0.392   6.309  0.0028 -0.9447  0.1509
   18MOL   H396 7570   7.415   0.312   6.457 -0.8603  0.8340  0.3723
   18MOL   H397 7571   7.575   0.392   6.448  0.5678  0.2638 -0.2289
   18MOL   H398 7572   7.595   0.622   6.512 -0.4355 -0.5625  0.4468
   18MOL   H399 7573   7.481   0.741   6.461 -1.1609 -0.0154  1.0830
   18MOL   H400 7574   7.558   0.637   6.340  1.4427 -2.4457  0.4634
   18MOL   C401 7575   7.386   0.721   6.741  0.1063 -0.2591 -0.0087
   18MOL   C402 7576   7.334   0.865   6.782  0.3841 -0.1050  0.0473
   18MOL   C403 7577   7.332   0.954   6.660  0.0796  0.4460  0.4946
   18MOL   C404 7578   7.304   1.109   6.657 -0.4608 -0.1272 -1.2403
   18MOL   C405 7579   7.159   1.116   6.708 -0.5474  0.1548 -0.2641
   18MOL   C406 7580   7.310   1.171   6.517  0.4165  0.1172  0.6316
   18MOL   C407 7581   7.396   1.194   6.751  0.3731  0.1618  0.1997
   18MOL   H408 7582   7.420   0.666   6.829  0.9284 -2.0595 -1.4273
   18MOL   H409 7583   7.474   0.737   6.679 -0.6372  1.5591 -0.6269
   18MOL   H410 7584   7.236   0.869   6.829 -0.6257  1.3235 -2.1112
   18MOL   H411 7585   7.262   0.897   6.598 -1.9520  0.4843  2.6795
   18MOL   H412 7586   7.429   0.941   6.612 -0.3283 -1.4378  0.1444
   18MOL   H413 7587   7.148   1.071   6.806 -3.8433 -0.9844 -1.1107
   18MOL   H414 7588   7.091   1.063   6.641  0.8178  0.6589 -2.1188
   18MOL   H415 7589   7.133   1.221   6.710 -1.1782 -0.0162  0.6229
   18MOL   H416 7590   7.409   1.170   6.473 -0.0813 -2.7688 -0.5379
   18MOL   H417 7591   7.283   1.276   6.528 -0.8853 -0.2293  0.8795
   18MOL   H418 7592   7.242   1.125   6.445 -0.1439 -0.2153  1.3674
   18MOL   H419 7593   7.499   1.171   6.723 -0.3108  0.5464 -2.8698
   18MOL   H420 7594   7.377   1.299   6.730  1.5747  0.4858  0.6695
   18MOL   H421 7595   7.376   1.169   6.855  2.1661  1.1708  0.8188
   18MOL   H422 7596   7.394   0.914   6.859 -1.4838 -0.6988  1.9281
   19MOL     C1 7597   7.298   6.050   6.266 -0.0834  0.4333 -0.2684
   19MOL     C2 7598   7.202   6.103   6.161 -0.3252  0.2275  0.9998
   19MOL     C3 7599   7.050   6.095   6.211 -1.0793 -0.5135 -0.5899
   19MOL     C4 7600   6.968   6.226   6.221  0.2494  0.1569  0.0539
   19MOL     C5 7601   6.944   6.295   6.084 -0.1095 -0.3025  0.0990
   19MOL     C6 7602   6.829   6.190   6.272 -0.9372  0.0517 -0.4293
   19MOL     C7 7603   7.031   6.331   6.320  0.8479 -0.6488  0.1541
   19MOL     H8 7604   7.397   6.088   6.240  0.0796  1.1804  1.4262
   19MOL     H9 7605   7.273   6.096   6.361 -1.3992 -1.8833  0.5377
   19MOL    H10 7606   7.231   6.208   6.157 -0.3077  0.1950  0.2186
   19MOL    H11 7607   7.041   6.033   6.300  1.3496  0.0846  0.1047
   19MOL    H12 7608   7.002   6.034   6.134  1.3224 -2.0970 -0.8689
   19MOL    H13 7609   7.041   6.314   6.040 -0.7698  1.3428 -0.6861
   19MOL    H14 7610   6.899   6.394   6.082  1.0019  0.2183  0.7737
   19MOL    H15 7611   6.889   6.234   6.012  0.1878 -0.2162 -0.2040
   19MOL    H16 7612   6.776   6.128   6.200 -1.5778  0.5338 -0.3780
   19MOL    H17 7613   6.829   6.156   6.376  1.4211  2.4014  0.3865
   19MOL    H18 7614   6.772   6.282   6.275 -0.5739  0.2486  0.4848
   19MOL    H19 7615   7.053   6.300   6.422 -0.0574  0.7249  0.7877
   19MOL    H20 7616   6.953   6.406   6.328  0.1496 -1.2638 -0.7732
   19MOL    H21 7617   7.109   6.394   6.277 -0.0821  0.0601 -0.5284
   19MOL    H22 7618   7.304   5.941   6.272  2.6171  0.5645  0.1708
   19MOL    C23 7619   7.227   6.027   6.027 -0.0745 -0.1061 -0.6647
   19MOL    C24 7620   7.168   6.086   5.897 -0.1024 -0.0064 -0.5131
   19MOL    C25 7621   7.156   5.979   5.792 -0.3352  0.1739  0.9626
   19MOL    C26 7622   7.031   5.891   5.778  0.0274 -0.3408  0.1699
   19MOL    C27 7623   7.027   5.778   5.884 -0.4982  0.6822  0.2186
   19MOL    C28 7624   6.893   5.968   5.765 -0.2882 -0.5291 -0.3142
   19MOL    C29 7625   7.052   5.834   5.633  1.0235  0.5676  0.2099
   19MOL    H30 7626   7.333   6.009   6.009 -0.3426 -2.9632  0.3482
   19MOL    H31 7627   7.181   5.929   6.041 -0.1378  0.3351  2.6361
   19MOL    H32 7628   7.066   6.102   5.931 -0.6032 -1.9563 -1.0221
   19MOL    H33 7629   7.241   5.914   5.815  1.2891  1.3377 -1.5338
   19MOL    H34 7630   7.184   6.022   5.696  0.6833 -1.0192  0.7032
   19MOL    H35 7631   7.127   5.736   5.897  0.8990  3.1192 -1.8949
   19MOL    H36 7632   6.982   5.807   5.979  1.0377 -2.6180  2.0376
   19MOL    H37 7633   6.960   5.701   5.847  0.2104 -0.0493  0.4505
   19MOL    H38 7634   6.885   6.030   5.855 -1.0955 -2.5043  1.0317
   19MOL    H39 7635   6.891   6.026   5.673 -1.1507  0.8698  0.5704
   19MOL    H40 7636   6.801   5.911   5.758 -2.5581  3.0396 -0.7833
   19MOL    H41 7637   6.967   5.781   5.590  0.1665  1.2014  1.0950
   19MOL    H42 7638   7.137   5.766   5.631 -0.9588 -1.9644  0.4528
   19MOL    H43 7639   7.055   5.920   5.565 -1.9652  1.0788  0.6689
   19MOL    C44 7640   7.250   6.213   5.862 -0.2748  1.0018 -0.0972
   19MOL    C45 7641   7.205   6.289   5.733 -0.4710  0.6246  0.1604
   19MOL    C46 7642   7.296   6.413   5.721  0.1047  0.5509 -0.1823
   19MOL    C47 7643   7.455   6.415   5.722  0.7384 -0.8049  0.2614
   19MOL    C48 7644   7.493   6.551   5.672  0.3571 -0.3475  0.6049
   19MOL    C49 7645   7.507   6.311   5.629 -0.4605 -0.0764 -0.2233
   19MOL    C50 7646   7.498   6.398   5.869  0.5745 -0.3565  0.3528
   19MOL    H51 7647   7.246   6.286   5.943 -1.5236  0.5443  0.2595
   19MOL    H52 7648   7.352   6.184   5.839  0.5572  2.8125  1.2119
   19MOL    H53 7649   7.217   6.224   5.647  2.0649 -0.6745  1.4334
   19MOL    H54 7650   7.265   6.480   5.802  0.3035  1.4787 -0.8597
   19MOL    H55 7651   7.257   6.456   5.629 -1.2539 -0.8712 -0.2964
   19MOL    H56 7652   7.463   6.568   5.569  0.3927 -0.7269  0.5307
   19MOL    H57 7653   7.601   6.565   5.667  0.1349  0.6841 -2.4735
   19MOL    H58 7654   7.446   6.626   5.735  0.2341 -1.7813  2.2459
   19MOL    H59 7655   7.446   6.282   5.543  0.7969 -3.1070 -0.1561
   19MOL    H60 7656   7.611   6.332   5.604 -0.8478  0.8047 -1.0947
   19MOL    H61 7657   7.518   6.217   5.684  1.4722  1.1083  1.4901
   19MOL    H62 7658   7.588   6.454   5.895  0.3648  0.3756 -0.4584
   19MOL    H63 7659   7.425   6.451   5.930 -0.9529  0.0626 -1.7631
   19MOL    H64 7660   7.511   6.293   5.898 -1.1577 -0.9871 -1.0972
   19MOL    C65 7661   7.059   6.329   5.757 -0.8634  0.2168  0.1509
   19MOL    C66 7662   6.987   6.381   5.631 -0.0685 -0.1595  0.2805
   19MOL    C67 7663   6.871   6.474   5.675  0.0586 -0.1371  0.1423
   19MOL    C68 7664   6.870   6.628   5.664 -0.2241  0.0587 -0.0655
   19MOL    C69 7665   6.845   6.680   5.523  0.3901 -0.5248 -0.5418
   19MOL    C70 7666   6.761   6.689   5.757 -0.3377 -0.0982 -0.7768
   19MOL    C71 7667   6.999   6.691   5.707 -0.6712  1.0568  0.8597
   19MOL    H72 7668   7.000   6.249   5.802 -1.7745  0.5399 -0.4412
   19MOL    H73 7669   7.062   6.407   5.832 -1.0392  1.1239 -0.7723
   19MOL    H74 7670   7.054   6.438   5.566 -2.2394 -0.0013 -1.8841
   19MOL    H75 7671   6.849   6.450   5.780 -1.2273 -0.6563 -0.2346
   19MOL    H76 7672   6.789   6.444   5.610  1.2254  0.6801 -1.7494
   19MOL    H77 7673   6.843   6.789   5.526 -1.7481 -0.5731  0.4477
   19MOL    H78 7674   6.932   6.659   5.460  2.0845  1.7523  0.9387
   19MOL    H79 7675   6.758   6.637   5.473  0.4484 -1.9032  0.5277
   19MOL    H80 7676   6.762   6.798   5.750  0.0790 -0.0352  0.2704
   19MOL    H81 7677   6.800   6.668   5.856  0.0796  1.5912 -0.5689
   19MOL    H82 7678   6.664   6.639   5.757 -0.5391  0.2252  1.5771
   19MOL    H83 7679   7.022   6.634   5.797  0.7993 -0.0605 -0.1937
   19MOL    H84 7680   6.999   6.797   5.733 -0.5000  1.4941 -0.8679
   19MOL    H85 7681   7.080   6.665   5.639  0.3113  1.2877  1.9251
   19MOL    C86 7682   6.933   6.266   5.535  0.1816  0.8456 -0.2419
   19MOL    C87 7683   6.890   6.314   5.394  0.0968  0.6858  0.0683
   19MOL    C88 7684   6.783   6.226   5.323 -0.1857 -0.3885 -0.2594
   19MOL    C89 7685   6.628   6.236   5.367 -0.2263  0.3801 -0.1932
   19MOL    C90 7686   6.585   6.379   5.347 -0.3741  0.2159  0.2304
   19MOL    C91 7687   6.604   6.200   5.514 -0.0052 -0.4095 -0.3157
   19MOL    C92 7688   6.546   6.132   5.277 -1.2217  0.2666 -0.6868
   19MOL    H93 7689   6.850   6.227   5.593  0.9032 -1.1570 -0.5309
   19MOL    H94 7690   7.003   6.183   5.538 -1.1961 -0.3079  0.7819
   19MOL    H95 7691   6.838   6.408   5.415 -1.5777  0.4737 -2.7899
   19MOL    H96 7692   6.808   6.120   5.323 -0.3726 -0.4420 -1.7678
   19MOL    H97 7693   6.786   6.260   5.219  1.5248 -1.0136 -0.4299
   19MOL    H98 7694   6.477   6.377   5.329 -0.3947 -0.7255  0.4011
   19MOL    H99 7695   6.636   6.422   5.261 -1.5826 -1.2371 -1.2715
   19MOL   H100 7696   6.599   6.437   5.438 -0.0198  0.3394  0.0958
   19MOL   H101 7697   6.654   6.273   5.578  0.5361 -1.3127  0.3094
   19MOL   H102 7698   6.497   6.198   5.533 -0.3935  1.1254 -2.2169
   19MOL   H103 7699   6.628   6.095   5.531 -2.7937 -0.8092  1.4475
   19MOL   H104 7700   6.558   6.158   5.172  0.9216  0.3978 -0.4389
   19MOL   H105 7701   6.577   6.029   5.296 -0.0163  0.7084 -0.1789
   19MOL   H106 7702   6.441   6.148   5.301 -1.0257  2.0830 -0.9150
   19MOL   C107 7703   7.010   6.337   5.296 -0.3211  0.0301  0.1361
   19MOL   C108 7704   7.064   6.220   5.206  0.5318  0.0693  0.0457
   19MOL   C109 7705   7.158   6.281   5.097 -0.0421 -0.0554 -0.0571
   19MOL   C110 7706   7.082   6.310   4.962  0.8744 -0.5375 -1.2728
   19MOL   C111 7707   7.034   6.180   4.890  0.5662 -0.6004  0.0572
   19MOL   C112 7708   7.184   6.373   4.866  0.1699 -0.0983 -0.4432
   19MOL   C113 7709   6.961   6.406   4.972  0.0395  0.2077 -0.1327
   19MOL   H114 7710   7.094   6.366   5.359  1.7627 -2.5521 -1.3036
   19MOL   H115 7711   6.985   6.421   5.232  1.6325 -0.7357 -1.7193
   19MOL   H116 7712   6.975   6.178   5.159 -0.4348 -0.0602  1.9288
   19MOL   H117 7713   7.207   6.371   5.136 -0.0047 -0.9117  1.9689
   19MOL   H118 7714   7.242   6.212   5.093  0.7531  0.8240  1.1902
   19MOL   H119 7715   6.946   6.133   4.934 -0.7981  0.4234 -1.4873
   19MOL   H120 7716   7.014   6.197   4.784  1.0446 -3.8370 -0.6100
   19MOL   H121 7717   7.106   6.099   4.880  1.0601 -0.1998  0.3976
   19MOL   H122 7718   7.152   6.403   4.767  2.1899  0.7210 -0.8617
   19MOL   H123 7719   7.269   6.307   4.848 -1.0971 -1.7728 -0.3991
   19MOL   H124 7720   7.214   6.464   4.918 -1.6086  0.7294 -0.8348
   19MOL   H125 7721   6.987   6.502   5.017  1.1557 -0.1697  0.0379
   19MOL   H126 7722   6.879   6.377   5.038 -0.7640  1.4980 -0.5499
   19MOL   H127 7723   6.920   6.422   4.873  0.2028 -1.3673 -0.4567
   19MOL   C128 7724   7.131   6.108   5.296  0.4331 -0.6069  0.4941
   19MOL   C129 7725   7.180   5.975   5.221 -0.8838  1.0280  0.3370
   19MOL   C130 7726   7.269   5.886   5.312  0.3249  0.2290 -0.1352
   19MOL   C131 7727   7.422   5.905   5.328 -0.2317  0.0237 -0.2500
   19MOL   C132 7728   7.469   5.788   5.424 -0.6788 -0.2583  0.6459
   19MOL   C133 7729   7.464   6.041   5.390  0.3411  0.0976 -0.2653
   19MOL   C134 7730   7.496   5.879   5.199  0.4086 -0.3064  0.3781
   19MOL   H135 7731   7.065   6.086   5.379 -1.0661  0.1354 -0.4752
   19MOL   H136 7732   7.211   6.158   5.351 -0.2450  2.2396 -0.9903
   19MOL   H137 7733   7.233   6.011   5.132 -0.5959 -0.7080 -0.2021
   19MOL   H138 7734   7.219   5.890   5.409 -0.0066  0.7689 -0.3254
   19MOL   H139 7735   7.248   5.785   5.277  3.1831 -0.6574  0.6144
   19MOL   H140 7736   7.427   5.700   5.377  1.1444 -1.4184  1.1140
   19MOL   H141 7737   7.412   5.796   5.516  1.3036  3.3868  1.6892
   19MOL   H142 7738   7.576   5.791   5.445 -0.4389 -2.4026 -0.1979
   19MOL   H143 7739   7.573   6.052   5.391  0.0956  3.1355 -1.8632
   19MOL   H144 7740   7.427   6.047   5.492  0.5297  0.3337 -0.2103
   19MOL   H145 7741   7.430   6.129   5.335 -0.2875 -1.0338 -1.7409
   19MOL   H146 7742   7.451   5.949   5.129  0.2691  1.1851  1.9443
   19MOL   H147 7743   7.604   5.886   5.199  0.5439 -2.0882  1.5862
   19MOL   H148 7744   7.486   5.776   5.163 -0.3096 -1.1889  2.9780
   19MOL   C149 7745   7.055   5.907   5.167 -0.3660  0.5327 -0.1727
   19MOL   C150 7746   7.061   5.780   5.079 -0.1940 -0.3321  0.1705
   19MOL   C151 7747   6.935   5.745   5.002 -0.4297  0.3020 -0.2075
   19MOL   C152 7748   6.804   5.719   5.078 -0.0191 -0.1385  0.8714
   19MOL   C153 7749   6.821   5.637   5.204  0.4599 -0.1240 -0.2046
   19MOL   C154 7750   6.727   5.630   4.981  0.6014  0.5084  0.0342
   19MOL   C155 7751   6.727   5.857   5.089 -0.6609  0.4329 -0.6439
   19MOL   H156 7752   6.994   5.981   5.116 -0.4603  0.5952  0.0291
   19MOL   H157 7753   6.983   5.888   5.247  1.4571 -1.9474  0.9377
   19MOL   H158 7754   7.070   5.697   5.150  0.0806 -0.7335 -0.3310
   19MOL   H159 7755   6.949   5.654   4.943  0.1078  1.8654 -2.5792
   19MOL   H160 7756   6.910   5.816   4.923  1.1065  0.2167 -0.8002
   19MOL   H161 7757   6.725   5.612   5.249 -0.1525  0.8768 -0.9289
   19MOL   H162 7758   6.876   5.546   5.181  0.5570  0.1225 -0.9680
   19MOL   H163 7759   6.866   5.688   5.289 -0.3128  1.8864 -0.9684
   19MOL   H164 7760   6.775   5.533   4.965 -1.9081 -1.1693  2.1974
   19MOL   H165 7761   6.721   5.666   4.879 -1.0042 -0.0452 -0.0905
   19MOL   H166 7762   6.629   5.608   5.025  0.3846  0.2525 -0.5777
   19MOL   H167 7763   6.699   5.902   4.993 -0.8393  0.7289 -0.4528
   19MOL   H168 7764   6.632   5.837   5.138 -0.4994  0.3637 -0.3548
   19MOL   H169 7765   6.785   5.925   5.151 -1.8060  1.4524 -0.6821
   19MOL   C170 7766   7.189   5.766   4.990  0.1155  0.1080 -0.7731
   19MOL   C171 7767   7.215   5.636   4.894  1.0811  0.2546 -0.3452
   19MOL   C172 7768   7.199   5.508   4.989  0.2745 -0.6990 -0.3261
   19MOL   C173 7769   7.150   5.375   4.923 -0.3157 -0.0875 -0.3090
   19MOL   C174 7770   7.003   5.396   4.884 -0.2560 -0.3692  0.3220
   19MOL   C175 7771   7.152   5.271   5.044 -0.7292 -0.2749 -0.3639
   19MOL   C176 7772   7.237   5.322   4.813  0.1278  1.1222 -1.1894
   19MOL   H177 7773   7.279   5.782   5.048 -0.1133  0.1711 -0.4349
   19MOL   H178 7774   7.202   5.853   4.925 -2.2092  2.3925  1.7173
   19MOL   H179 7775   7.140   5.624   4.815  0.8953 -0.9638  0.0016
   19MOL   H180 7776   7.292   5.506   5.046 -0.8952 -0.0366  1.6583
   19MOL   H181 7777   7.127   5.520   5.070  0.9232 -0.5084  0.2305
   19MOL   H182 7778   6.995   5.483   4.818 -1.6856 -0.2581  0.6306
   19MOL   H183 7779   6.983   5.310   4.820  1.1987 -0.9686  0.6515
   19MOL   H184 7780   6.933   5.408   4.966  1.2462  2.4268  1.2799
   19MOL   H185 7781   7.250   5.236   5.074  0.0223 -0.6746 -3.1706
   19MOL   H186 7782   7.104   5.308   5.135 -1.0281 -0.6907 -0.3533
   19MOL   H187 7783   7.092   5.188   5.008 -2.1602  0.1643  0.9255
   19MOL   H188 7784   7.206   5.219   4.796 -0.4527  1.1603 -0.4166
   19MOL   H189 7785   7.223   5.374   4.718 -0.1874  0.2701 -1.6095
   19MOL   H190 7786   7.344   5.329   4.834  0.0890 -1.1664 -0.0116
   19MOL   C191 7787   7.359   5.643   4.835  1.5275 -0.3032  0.0809
   19MOL   C192 7788   7.387   5.732   4.712  0.1320  0.9822 -0.1039
   19MOL   C193 7789   7.294   5.692   4.600 -1.3961 -0.4581  0.0471
   19MOL   C194 7790   7.198   5.798   4.543 -0.2545 -0.5968 -0.0931
   19MOL   C195 7791   7.076   5.815   4.634  0.4177 -0.1575 -0.1437
   19MOL   C196 7792   7.151   5.748   4.413  0.2760  0.3534 -0.2415
   19MOL   C197 7793   7.254   5.938   4.516 -0.0653 -0.0074 -0.1020
   19MOL   H198 7794   7.424   5.677   4.915 -0.1730 -1.2046  1.8883
   19MOL   H199 7795   7.385   5.541   4.806 -0.1355 -0.5775 -0.5006
   19MOL   H200 7796   7.374   5.835   4.745 -0.6286  0.2544  1.9410
   19MOL   H201 7797   7.232   5.606   4.626 -3.1005  0.7125 -0.0755
   19MOL   H202 7798   7.352   5.653   4.516  0.3850 -0.3550  1.1994
   19MOL   H203 7799   7.099   5.868   4.726 -0.8735  1.3435 -0.6543
   19MOL   H204 7800   7.016   5.891   4.583  1.1518  1.3860  1.2552
   19MOL   H205 7801   7.017   5.724   4.645 -1.0360  0.7037 -0.6047
   19MOL   H206 7802   7.061   5.801   4.384  0.2406 -0.0004 -0.7652
   19MOL   H207 7803   7.229   5.750   4.337  2.8241 -2.1272  2.1794
   19MOL   H208 7804   7.120   5.644   4.422  0.7806  0.2166 -0.0293
   19MOL   H209 7805   7.176   5.995   4.465 -0.2862  0.4338  0.7185
   19MOL   H210 7806   7.272   6.000   4.604 -2.9735  0.0053  0.5503
   19MOL   H211 7807   7.340   5.936   4.449 -2.1772  0.7123 -2.9686
   19MOL   C212 7808   7.540   5.716   4.675  0.1493 -0.4685  0.0228
   19MOL   C213 7809   7.643   5.790   4.763 -0.9822 -0.3595 -0.3098
   19MOL   C214 7810   7.644   5.930   4.704 -1.0954 -0.1573  0.9109
   19MOL   C215 7811   7.637   6.055   4.803  0.0203  0.0717  0.2167
   19MOL   C216 7812   7.493   6.067   4.863 -0.5611  0.4456  0.3357
   19MOL   C217 7813   7.747   6.041   4.907 -0.2173  0.1174 -0.9083
   19MOL   C218 7814   7.669   6.180   4.712  0.1210 -0.0484  0.1176
   19MOL   H219 7815   7.549   5.608   4.691 -1.2595 -0.7442 -0.9130
   19MOL   H220 7816   7.571   5.721   4.570 -1.3349  1.5308 -0.3301
   19MOL   H221 7817   7.609   5.807   4.865  2.4690  1.3968  0.6129
   19MOL   H222 7818   7.548   5.941   4.654  0.1962 -0.4973 -1.7116
   19MOL   H223 7819   7.727   5.947   4.636 -0.2996 -2.2175  1.3293
   19MOL   H224 7820   7.425   6.107   4.787  0.0226 -0.8283 -0.8710
   19MOL   H225 7821   7.490   6.135   4.949 -3.3192 -0.4774  1.0258
   19MOL   H226 7822   7.445   5.979   4.906 -0.8831  1.8560  2.9880
   19MOL   H227 7823   0.080   6.022   4.864  0.0010  2.5670 -1.5925
   19MOL   H228 7824   7.765   6.139   4.951 -3.1741  0.5113 -0.5246
   19MOL   H229 7825   7.730   5.967   4.984 -0.9511  0.1357 -1.0574
   19MOL   H230 7826   7.611   6.182   4.620 -1.3014 -0.6516  0.9942
   19MOL   H231 7827   0.010   6.191   4.693 -0.5114  0.9264 -3.1871
   19MOL   H232 7828   7.629   6.270   4.758  1.2722  1.3359 -1.5121
   19MOL   C233 7829   0.020   5.717   4.772  0.6807 -0.7683 -0.0781
   19MOL   C234 7830   0.054   5.631   4.904 -0.3741  0.1518  0.1370
   19MOL   C235 7831   7.715   5.521   4.931 -0.3852  0.0744  0.4080
   19MOL   C236 7832   7.722   5.432   5.060  0.6347 -0.2317  0.3100
   19MOL   C237 7833   0.044   5.308   5.049 -0.5183  0.6881  0.3470
   19MOL   C238 7834   0.005   5.519   5.182 -0.0375  0.3964 -0.0762
   19MOL   C239 7835   7.580   5.378   5.087  0.1304 -0.3821 -0.6816
   19MOL   H240 7836   0.100   5.791   4.760  1.6631 -1.9235 -0.7416
   19MOL   H241 7837   0.028   5.661   4.679  2.1079  0.6413 -0.8361
   19MOL   H242 7838   0.047   5.700   4.988  0.5857 -1.4999  1.6103
   19MOL   H243 7839   7.621   5.575   4.922 -0.1699  0.8460  2.4207
   19MOL   H244 7840   7.725   5.460   4.842  0.5472 -2.0344  1.9151
   19MOL   H245 7841   0.149   5.336   5.039 -0.4975  0.3578 -0.4894
   19MOL   H246 7842   0.025   5.247   4.960  1.2764 -0.8536  0.9983
   19MOL   H247 7843   0.054   5.241   5.134 -1.3911 -1.7117 -1.3499
   19MOL   H248 7844   7.709   5.606   5.202  1.3202  1.2405  0.4501
   19MOL   H249 7845   0.004   5.460   5.273 -2.0877  1.9116  0.9282
   19MOL   H250 7846   0.107   5.553   5.168  0.2059 -0.2846  0.0359
   19MOL   H251 7847   7.507   5.456   5.109  0.8330  0.1941 -0.3861
   19MOL   H252 7848   7.546   5.327   4.997  1.2178  0.1720 -1.4188
   19MOL   H253 7849   7.591   5.307   5.168  1.5041 -0.0649 -0.5709
   19MOL   C254 7850   0.202   5.579   4.902 -0.2124  0.1902  0.7326
   19MOL   C255 7851   0.312   5.688   4.863  0.5096 -0.4144  0.6757
   19MOL   C256 7852   0.454   5.634   4.875 -0.2464 -0.3085  0.2844
   19MOL   C257 7853   0.492   5.500   4.803 -0.4443 -0.3382 -0.5536
   19MOL   C258 7854   0.651   5.485   4.807  0.1024 -0.7172 -0.5511
   19MOL   C259 7855   0.451   5.495   4.651 -0.1081  0.2132 -0.2330
   19MOL   C260 7856   0.436   5.379   4.876 -0.0067  0.2089 -0.4504
   19MOL   H261 7857   0.207   5.497   4.831  1.3652  0.7618  0.1555
   19MOL   H262 7858   0.219   5.539   5.002  1.1900 -0.5542  0.2122
   19MOL   H263 7859   0.288   5.706   4.758  2.5885  1.2399  0.4601
   19MOL   H264 7860   0.526   5.701   4.828  0.0452  0.6266  2.0517
   19MOL   H265 7861   0.487   5.621   4.978  1.5283  0.1050 -0.2259
   19MOL   H266 7862   0.709   5.483   4.899  0.2818 -0.5839 -0.6618
   19MOL   H267 7863   0.691   5.570   4.752 -1.2320  1.2562  1.4323
   19MOL   H268 7864   0.687   5.401   4.748  3.0716  0.7970 -0.9713
   19MOL   H269 7865   0.479   5.585   4.596 -0.5899  0.3201 -0.3103
   19MOL   H270 7866   0.342   5.497   4.639 -0.1959  0.3203  0.6051
   19MOL   H271 7867   0.489   5.408   4.597  1.2555 -0.5607  1.9005
   19MOL   H272 7868   0.398   5.396   4.976  1.1499 -2.0089  0.3998
   19MOL   H273 7869   0.351   5.340   4.819 -0.0133  0.4417 -0.5990
   19MOL   H274 7870   0.506   5.296   4.871  0.7219  0.8197 -0.4989
   19MOL   C275 7871   0.298   5.823   4.945 -0.1558  0.3172 -0.5773
   19MOL   C276 7872   0.380   5.947   4.913 -0.8182 -0.0177 -0.0387
   19MOL   C277 7873   0.352   5.986   4.762  0.8922 -0.5371  0.2909
   19MOL   C278 7874   0.470   6.016   4.669 -0.3790  0.8825  0.0469
   19MOL   C279 7875   0.563   5.898   4.655  0.4060  0.2894  0.0651
   19MOL   C280 7876   0.403   6.034   4.532  0.5740  0.2622  0.2220
   19MOL   C281 7877   0.531   6.154   4.706 -0.0695 -0.4006 -0.3541
   19MOL   H282 7878   0.197   5.863   4.955  0.4428  1.9491 -0.8894
   19MOL   H283 7879   0.326   5.789   5.044 -0.9947 -2.8072 -1.3627
   19MOL   H284 7880   0.486   5.922   4.914 -0.9629 -0.6662 -0.5298
   19MOL   H285 7881   0.277   6.065   4.763  1.1553 -0.2976  0.6657
   19MOL   H286 7882   0.298   5.909   4.706  2.2832 -1.1339 -0.2439
   19MOL   H287 7883   0.630   5.908   4.569 -0.7654 -0.4610 -0.9581
   19MOL   H288 7884   0.627   5.878   4.740 -1.1710 -0.9926  0.9700
   19MOL   H289 7885   0.504   5.807   4.645 -0.5117  0.8559  0.2844
   19MOL   H290 7886   0.482   6.042   4.457  1.0485  0.2604  0.7221
   19MOL   H291 7887   0.335   6.119   4.531  1.6462  1.1570  1.5013
   19MOL   H292 7888   0.350   5.943   4.503  0.4217  0.2849  0.4314
   19MOL   H293 7889   0.568   6.140   4.808 -0.0757  3.0989  0.2040
   19MOL   H294 7890   0.468   6.243   4.700  1.5866  0.8298  0.1144
   19MOL   H295 7891   0.620   6.187   4.653 -0.8451 -0.7224 -1.8755
   19MOL   C296 7892   0.362   6.069   5.005 -0.5186  0.5058 -0.0040
   19MOL   C297 7893   0.426   6.054   5.144  0.2201  0.9543  0.7657
   19MOL   C298 7894   0.366   6.165   5.247 -0.0462 -0.4100  0.1134
   19MOL   C299 7895   0.250   6.132   5.340  0.2020  0.3719  0.3664
   19MOL   C300 7896   0.223   6.257   5.436 -0.5824 -0.4948  0.3646
   19MOL   C301 7897   0.131   6.107   5.248  0.0728  0.1300  0.2405
   19MOL   C302 7898   0.279   6.012   5.429  0.3105 -0.3603 -0.1871
   19MOL   H303 7899   0.255   6.089   5.010 -0.7294 -0.6169  0.1483
   19MOL   H304 7900   0.398   6.159   4.955 -2.3101  0.4704 -1.3995
   19MOL   H305 7901   0.387   5.960   5.184  2.3616  0.7360  2.4702
   19MOL   H306 7902   0.339   6.259   5.199 -0.0454 -0.6348 -0.3400
   19MOL   H307 7903   0.448   6.191   5.313 -1.3835  3.1958  0.4254
   19MOL   H308 7904   0.145   6.236   5.509 -1.2243 -0.2238 -0.2443
   19MOL   H309 7905   0.316   6.274   5.490  0.9992 -3.0916 -1.3957
   19MOL   H310 7906   0.181   6.342   5.384  2.0707  0.7956  0.2568
   19MOL   H311 7907   0.138   6.030   5.171 -0.7871  0.5241 -0.2342
   19MOL   H312 7908   0.046   6.085   5.313  1.3794  0.2363  2.0248
   19MOL   H313 7909   0.095   6.198   5.200 -0.4076  0.1731  0.6815
   19MOL   H314 7910   0.382   5.993   5.459  0.0257 -1.4558  0.1087
   19MOL   H315 7911   0.226   6.019   5.523  0.8815 -0.5275  0.1488
   19MOL   H316 7912   0.240   5.921   5.383 -0.5599  0.5555 -1.2859
   19MOL   C317 7913   0.576   6.065   5.123 -0.1772  0.7317  0.3179
   19MOL   C318 7914   0.656   5.971   5.223 -0.0809 -1.3281 -0.2734
   19MOL   C319 7915   0.653   5.820   5.186  0.2532  0.1170 -0.1333
   19MOL   C320 7916   0.644   5.712   5.295 -0.0496 -0.1584  0.3170
   19MOL   C321 7917   0.740   5.730   5.414 -0.5288  0.2813 -0.2843
   19MOL   C322 7918   0.684   5.578   5.220 -0.0909 -0.5514  0.4056
   19MOL   C323 7919   0.498   5.706   5.355  0.2210  0.1753 -0.2114
   19MOL   H324 7920   0.616   6.042   5.024  1.7119  2.2866  0.6994
   19MOL   H325 7921   0.607   6.168   5.141 -2.2044  1.7283 -1.6824
   19MOL   H326 7922   0.598   5.984   5.314  1.3219 -1.2664  0.6245
   19MOL   H327 7923   0.744   5.811   5.126  1.4099  1.9632  1.3152
   19MOL   H328 7924   0.574   5.792   5.115  0.7633 -0.1649 -0.5882
   19MOL   H329 7925   0.735   5.639   5.474 -0.4958  1.6434  1.8236
   19MOL   H330 7926   0.710   5.803   5.489  1.1102 -0.7243  1.4067
   19MOL   H331 7927   0.842   5.757   5.385 -1.3162  2.5129 -1.0110
   19MOL   H332 7928   0.784   5.589   5.178 -0.5281  0.8694 -0.3086
   19MOL   H333 7929   0.692   5.495   5.289 -1.6799  0.5932  2.0252
   19MOL   H334 7930   0.620   5.544   5.139  0.2363  1.2942 -0.6592
   19MOL   H335 7931   0.421   5.697   5.279  1.3124  1.3390 -1.5020
   19MOL   H336 7932   0.465   5.791   5.414 -1.9322 -1.0599  0.4118
   19MOL   H337 7933   0.495   5.618   5.418  1.7436 -0.5618 -1.1430
   19MOL   C338 7934   0.796   6.014   5.253 -0.1690  0.2190  0.2329
   19MOL   C339 7935   0.820   6.162   5.303  0.3372  0.8345 -0.3981
   19MOL   C340 7936   0.861   6.254   5.181  0.3828 -0.5094 -0.4808
   19MOL   C341 7937   0.810   6.402   5.186  0.0170  0.0542  0.2543
   19MOL   C342 7938   0.655   6.427   5.160 -0.3823 -0.3406  1.4046
   19MOL   C343 7939   0.865   6.478   5.311 -0.1532  0.3490  0.2374
   19MOL   C344 7940   0.891   6.475   5.072  0.2037 -0.0111  0.0984
   19MOL   H345 7941   0.862   5.984   5.171 -0.8461 -1.6994  0.3838
   19MOL   H346 7942   0.836   5.951   5.332  0.5420 -0.2209 -0.4685
   19MOL   H347 7943   0.732   6.198   5.357  0.9144  0.9785  0.4496
   19MOL   H348 7944   0.813   6.206   5.096  2.2792 -0.9712 -1.3316
   19MOL   H349 7945   0.970   6.243   5.184  0.4360  0.2147  0.6344
   19MOL   H350 7946   0.627   6.532   5.163  0.9434  0.1306 -0.8909
   19MOL   H351 7947   0.616   6.390   5.065 -0.1260  1.7306  0.4665
   19MOL   H352 7948   0.599   6.374   5.236  1.2309  0.9756  3.5630
   19MOL   H353 7949   0.972   6.462   5.329 -0.1717  0.4959  0.4705
   19MOL   H354 7950   0.853   6.586   5.314  0.5167  0.4770 -1.2292
   19MOL   H355 7951   0.822   6.453   5.408 -1.1408  0.8195 -0.0741
   19MOL   H356 7952   0.893   6.580   5.100  0.5717 -0.3993  1.5439
   19MOL   H357 7953   0.993   6.437   5.059 -1.2773 -3.6091 -1.7522
   19MOL   H358 7954   0.846   6.460   4.974  2.3386 -0.7409 -0.8269
   19MOL   C359 7955   0.931   6.162   5.408  0.0872  0.4087 -0.0837
   19MOL   C360 7956   0.903   6.125   5.554 -0.0950  0.6270 -0.1788
   19MOL   C361 7957   0.814   6.235   5.628 -0.0965 -0.2188  0.7780
   19MOL   C362 7958   0.713   6.210   5.740  0.0136  0.2872 -0.2229
   19MOL   C363 7959   0.623   6.090   5.697 -0.7019  0.5582 -0.1234
   19MOL   C364 7960   0.615   6.333   5.758  0.0478 -0.7065  0.2510
   19MOL   C365 7961   0.773   6.180   5.882  0.2229  0.4817 -0.3128
   19MOL   H366 7962   0.973   6.262   5.412 -0.9013  0.9075 -1.8608
   19MOL   H367 7963   1.005   6.096   5.363  0.0441 -0.9894  1.8165
   19MOL   H368 7964   0.844   6.035   5.541  0.4345  0.6312 -3.0152
   19MOL   H369 7965   0.885   6.303   5.674  0.5620 -0.5945  0.3413
   19MOL   H370 7966   0.767   6.292   5.548 -1.2793 -1.4101  0.6023
   19MOL   H371 7967   0.532   6.082   5.756  0.7287  2.6942  2.4639
   19MOL   H372 7968   0.590   6.103   5.594 -0.3329  0.9068 -0.1989
   19MOL   H373 7969   0.686   6.002   5.710 -1.7602 -0.1433  0.3340
   19MOL   H374 7970   0.584   6.388   5.669  0.3872  2.2933  1.9142
   19MOL   H375 7971   0.655   6.420   5.811  1.6339 -1.5761  0.4797
   19MOL   H376 7972   0.527   6.313   5.820 -0.8103  1.3352 -0.2319
   19MOL   H377 7973   0.835   6.091   5.883 -0.7036 -0.2133 -2.2416
   19MOL   H378 7974   0.696   6.160   5.957 -1.9157 -0.4748 -2.6758
   19MOL   H379 7975   0.826   6.271   5.911  0.0196  0.3928  0.3520
   19MOL   C380 7976   1.043   6.095   5.621 -0.3791 -0.5908 -0.1704
   19MOL   C381 7977   1.051   5.955   5.679 -0.2127  0.0129  0.8957
   19MOL   C382 7978   1.114   5.930   5.821 -0.5781 -0.1282 -0.6639
   19MOL   C383 7979   1.096   5.800   5.898  0.0589 -0.0955 -0.3555
   19MOL   C384 7980   1.109   5.825   6.051 -0.5257  0.3816 -0.6469
   19MOL   C385 7981   1.187   5.689   5.860 -0.6073  0.1290  0.1695
   19MOL   C386 7982   0.953   5.742   5.884 -0.2103 -0.0333 -0.1295
   19MOL   H387 7983   1.053   6.171   5.699  1.5442 -1.6939  0.6764
   19MOL   H388 7984   1.133   6.119   5.564  0.3332  1.3399  1.7011
   19MOL   H389 7985   0.949   5.920   5.692 -0.1190 -0.3337  0.7065
   19MOL   H390 7986   1.220   5.952   5.823 -0.3024 -1.3785  2.2837
   19MOL   H391 7987   1.082   6.010   5.887 -2.1739 -0.5555 -0.8982
   19MOL   H392 7988   1.206   5.864   6.083 -0.5147 -0.9235  0.9669
   19MOL   H393 7989   1.054   5.916   6.077 -0.2230 -0.0505  1.5823
   19MOL   H394 7990   1.078   5.750   6.123 -1.9425  1.5942  0.0258
   19MOL   H395 7991   1.156   5.633   5.772  0.9002  0.2982 -0.4973
   19MOL   H396 7992   1.190   5.615   5.939 -1.0637 -0.8137 -0.6851
   19MOL   H397 7993   1.288   5.727   5.841 -0.9449  2.2454  2.3894
   19MOL   H398 7994   0.931   5.653   5.942  1.1547  0.8898  1.8596
   19MOL   H399 7995   0.931   5.720   5.780 -0.1006  3.1304 -0.8865
   19MOL   H400 7996   0.878   5.813   5.917 -0.6706  0.1773 -1.5940
   19MOL   C401 7997   1.113   5.862   5.566  0.7376  0.5146  0.8515
   19MOL   C402 7998   1.266   5.874   5.537  0.1859  0.4057 -0.2741
   19MOL   C403 7999   1.316   5.757   5.449 -0.3801  0.2691 -0.2737
   19MOL   C404 8000   1.462   5.753   5.405  0.9651  0.0563 -0.6106
   19MOL   C405 8001   1.493   5.869   5.311 -0.1906  0.0596  0.4954
   19MOL   C406 8002   1.482   5.620   5.322 -0.0888 -0.7679 -0.1961
   19MOL   C407 8003   1.569   5.761   5.521 -0.0530 -0.7605 -0.4602
   19MOL   H408 8004   1.096   5.756   5.584 -0.7809  0.4802 -0.6040
   19MOL   H409 8005   1.064   5.880   5.470  0.0410  1.4368  1.3717
   19MOL   H410 8006   1.288   5.972   5.496  0.0245 -0.0400 -1.4442
   19MOL   H411 8007   1.254   5.747   5.359 -0.0525 -1.1225 -0.3421
   19MOL   H412 8008   1.297   5.665   5.504  1.1220 -0.3406 -0.7591
   19MOL   H413 8009   1.418   5.894   5.237  0.9392  1.1937 -0.2874
   19MOL   H414 8010   1.582   5.848   5.252 -1.2784  0.5595 -1.3391
   19MOL   H415 8011   1.506   5.961   5.369  0.4892 -0.6864  1.5556
   19MOL   H416 8012   1.493   5.534   5.387 -0.3793 -2.1917 -1.9964
   19MOL   H417 8013   1.573   5.624   5.262 -0.3058 -3.6287 -0.7820
   19MOL   H418 8014   1.403   5.606   5.248  0.4232  1.8858 -1.2991
   19MOL   H419 8015   1.558   5.669   5.579  1.7530 -1.5373 -1.3258
   19MOL   H420 8016   1.673   5.768   5.491 -0.4235  0.3198 -1.4980
   19MOL   H421 8017   1.544   5.840   5.593 -3.3910  0.7090 -3.1026
   19MOL   H422 8018   1.318   5.884   5.632 -1.3617  0.1129  0.6262
   20MOL     C1 8019   3.202   4.809   5.286  0.8058  0.3974  0.4044
   20MOL     C2 8020   3.332   4.861   5.241  0.1398  0.0510 -0.1039
   20MOL     C3 8021   3.394   4.952   5.359  0.2691  0.1809  0.2232
   20MOL     C4 8022   3.528   4.912   5.427  0.3681 -0.3228 -0.6066
   20MOL     C5 8023   3.552   5.009   5.542  1.0621 -0.1036  0.2314
   20MOL     C6 8024   3.517   4.779   5.492 -0.3613  0.2963 -0.4071
   20MOL     C7 8025   3.643   4.918   5.332 -0.0157 -0.3901  0.3515
   20MOL     H8 8026   3.153   4.754   5.205 -0.9734  1.2897  0.8468
   20MOL     H9 8027   3.201   4.751   5.378  3.3181  0.7453  0.6823
   20MOL    H10 8028   3.408   4.791   5.206 -1.5701 -2.2954  0.8112
   20MOL    H11 8029   3.319   4.966   5.437 -0.4427  1.0431 -0.6025
   20MOL    H12 8030   3.393   5.059   5.336  1.9137  0.1489 -0.0395
   20MOL    H13 8031   3.569   5.109   5.503  0.9710  0.5095  1.7229
   20MOL    H14 8032   3.642   4.975   5.594  0.1614 -1.2490  1.0703
   20MOL    H15 8033   3.475   5.010   5.619  0.7104  2.1534 -0.1173
   20MOL    H16 8034   3.602   4.759   5.557 -0.7848  1.8722  0.6576
   20MOL    H17 8035   3.423   4.755   5.541 -0.2091 -2.5900 -1.4390
   20MOL    H18 8036   3.521   4.706   5.411  1.0370 -0.1873  0.0948
   20MOL    H19 8037   3.644   4.834   5.261 -1.6018  1.4879 -2.0007
   20MOL    H20 8038   3.737   4.916   5.385  0.8634  2.2592 -1.0168
   20MOL    H21 8039   3.659   5.006   5.269 -0.1724  2.0794  3.6745
   20MOL    H22 8040   3.138   4.894   5.310 -0.2598 -0.3281  0.1658
   20MOL    C23 8041   3.311   4.951   5.112  0.4115 -0.1993  0.7490
   20MOL    C24 8042   3.338   4.898   4.970  0.3746  0.4193 -0.5387
   20MOL    C25 8043   3.489   4.893   4.951  0.5161 -0.4664 -0.2776
   20MOL    C26 8044   3.552   4.815   4.833 -0.0750 -0.0757 -0.2003
   20MOL    C27 8045   3.533   4.663   4.853 -0.4479  0.5407  0.3812
   20MOL    C28 8046   3.492   4.858   4.699 -0.6856  0.4576 -0.2979
   20MOL    C29 8047   3.701   4.859   4.820  0.4639  0.7179 -0.3923
   20MOL    H30 8048   3.211   4.996   5.110  0.0970 -0.9455 -0.5007
   20MOL    H31 8049   3.370   5.043   5.117  0.6127 -0.3028  0.2386
   20MOL    H32 8050   3.298   4.796   4.966  0.0728  0.6012 -3.0153
   20MOL    H33 8051   3.535   4.839   5.033  3.1842  1.0271 -0.7210
   20MOL    H34 8052   3.526   4.996   4.948 -0.4916 -0.0757  0.6151
   20MOL    H35 8053   3.428   4.636   4.851 -0.1470 -1.0436  3.2002
   20MOL    H36 8054   3.590   4.613   4.774 -2.7846 -1.0524 -0.3395
   20MOL    H37 8055   3.583   4.640   4.948  1.1258 -0.1611 -0.5853
   20MOL    H38 8056   3.558   4.830   4.616 -1.3261 -1.0318 -0.3230
   20MOL    H39 8057   3.394   4.816   4.676 -1.3218  1.2469  0.9460
   20MOL    H40 8058   3.470   4.964   4.695  3.2195  1.3363 -1.2222
   20MOL    H41 8059   3.739   4.875   4.921 -1.5523  1.7111  0.2417
   20MOL    H42 8060   3.701   4.955   4.769 -0.1314  0.1185 -1.5596
   20MOL    H43 8061   3.763   4.785   4.770  1.7490  0.1450  1.9634
   20MOL    C44 8062   3.244   4.966   4.866  0.3914 -0.1422 -0.6630
   20MOL    C45 8063   3.096   4.907   4.852 -0.6034  0.3113 -0.4932
   20MOL    C46 8064   3.089   4.777   4.770  0.0190  0.7398 -0.2308
   20MOL    C47 8065   2.997   4.659   4.822  0.6561  0.0181  0.4678
   20MOL    C48 8066   3.018   4.542   4.721 -0.3411 -0.5007  0.4921
   20MOL    C49 8067   2.848   4.694   4.817 -0.0497  0.3173 -0.8032
   20MOL    C50 8068   3.056   4.610   4.958 -0.2143 -0.1893  0.2509
   20MOL    H51 8069   3.234   5.063   4.913  0.0039 -0.6817  0.3892
   20MOL    H52 8070   3.288   4.997   4.771 -0.0492  0.0860 -0.7909
   20MOL    H53 8071   3.052   4.872   4.946  0.4616 -0.7904 -0.3871
   20MOL    H54 8072   3.190   4.736   4.774 -0.0976  0.4952  0.4168
   20MOL    H55 8073   3.075   4.789   4.663  0.7423 -1.0389 -0.5489
   20MOL    H56 8074   3.123   4.517   4.708 -0.7188 -2.3483  0.9722
   20MOL    H57 8075   2.975   4.559   4.622 -2.6242  1.9722  1.8347
   20MOL    H58 8076   2.966   4.455   4.761  0.2837 -0.5191  1.2822
   20MOL    H59 8077   2.816   4.710   4.714 -1.2764  1.0736 -0.3249
   20MOL    H60 8078   2.784   4.613   4.852 -1.2360  1.3323 -0.6048
   20MOL    H61 8079   2.826   4.778   4.883 -0.4249  1.0245 -1.8206
   20MOL    H62 8080   3.165   4.606   4.952 -0.2304  0.1315 -0.2716
   20MOL    H63 8081   3.027   4.665   5.048  1.4396 -0.4716  0.9850
   20MOL    H64 8082   3.014   4.511   4.975 -2.0491  0.7884  1.5593
   20MOL    C65 8083   2.996   5.007   4.788 -0.1124 -1.0098 -0.0695
   20MOL    C66 8084   2.951   5.131   4.869  0.3626  0.2358 -0.1773
   20MOL    C67 8085   2.868   5.081   4.991 -0.3096 -0.1790  0.1085
   20MOL    C68 8086   2.870   5.158   5.130 -0.1274 -1.6336 -0.0767
   20MOL    C69 8087   2.815   5.302   5.120  0.3190 -0.1843  0.0443
   20MOL    C70 8088   2.788   5.068   5.222  0.4359 -0.3132  0.3257
   20MOL    C71 8089   3.005   5.164   5.181 -0.1334 -0.6487 -0.0557
   20MOL    H72 8090   3.038   5.031   4.690 -0.5732  1.0491  0.2354
   20MOL    H73 8091   2.902   4.956   4.769 -0.4572 -0.2546 -0.3661
   20MOL    H74 8092   3.041   5.181   4.903  1.0489  0.5051 -2.2951
   20MOL    H75 8093   2.902   4.980   5.017 -1.3503 -0.1886  1.4725
   20MOL    H76 8094   2.771   5.057   4.949  0.9775 -0.2301 -2.9805
   20MOL    H77 8095   2.825   5.355   5.214 -1.1504  2.1258 -1.0501
   20MOL    H78 8096   2.885   5.363   5.062  0.3482  2.2372  2.5420
   20MOL    H79 8097   2.714   5.291   5.080  0.8251 -2.1692 -0.7743
   20MOL    H80 8098   2.681   5.080   5.207  0.5890 -1.0008 -1.4912
   20MOL    H81 8099   2.797   5.106   5.323 -2.2400 -1.2684  0.9606
   20MOL    H82 8100   2.818   4.964   5.228  4.1664  0.4830 -2.4725
   20MOL    H83 8101   3.072   5.212   5.109  0.8108  0.4186  1.4954
   20MOL    H84 8102   3.030   5.063   5.212  1.4500 -0.0135  0.8270
   20MOL    H85 8103   3.002   5.217   5.276 -1.0702 -0.5149 -0.1632
   20MOL    C86 8104   2.861   5.228   4.780  0.2752 -0.0397  0.1024
   20MOL    C87 8105   2.937   5.303   4.659  0.3791  0.1564 -0.4540
   20MOL    C88 8106   3.045   5.407   4.708  0.1528  0.9634  0.6260
   20MOL    C89 8107   3.184   5.402   4.642  0.0854  0.3781  0.1505
   20MOL    C90 8108   3.174   5.415   4.490  0.2166  0.4292 -0.1221
   20MOL    C91 8109   3.243   5.267   4.667  0.0854 -0.1461 -0.0532
   20MOL    C92 8110   3.271   5.513   4.707  0.4307  0.3992 -0.5727
   20MOL    H93 8111   2.842   5.308   4.851  2.8926 -1.5710  2.6518
   20MOL    H94 8112   2.775   5.174   4.740 -0.2111  0.7281  0.1121
   20MOL    H95 8113   2.974   5.217   4.603 -0.9772 -2.1206  2.0465
   20MOL    H96 8114   3.064   5.404   4.816 -2.6181  0.5567  1.1452
   20MOL    H97 8115   2.994   5.503   4.706 -0.6950  0.4895 -1.6990
   20MOL    H98 8116   3.270   5.417   4.438 -0.7041 -0.1685 -1.8739
   20MOL    H99 8117   3.115   5.502   4.462 -1.7297 -0.7038  0.3986
   20MOL   H100 8118   3.122   5.334   4.438  2.6192 -1.3897  0.2439
   20MOL   H101 8119   3.214   5.196   4.590  0.4188  0.8038 -1.0621
   20MOL   H102 8120   3.351   5.264   4.653  0.2220 -0.0349  0.9485
   20MOL   H103 8121   3.219   5.246   4.771  0.6735  0.3572  0.1911
   20MOL   H104 8122   3.222   5.608   4.686  0.3174  0.5040  0.1673
   20MOL   H105 8123   3.277   5.507   4.815 -0.3558  1.8990 -0.4366
   20MOL   H106 8124   3.376   5.519   4.678 -0.2341  2.3573 -2.6862
   20MOL   C107 8125   2.826   5.369   4.575 -0.5317  0.4335 -0.0668
   20MOL   C108 8126   2.741   5.272   4.479  0.1765 -0.1445 -0.1995
   20MOL   C109 8127   2.607   5.343   4.441  0.0166 -0.3692 -0.0890
   20MOL   C110 8128   2.485   5.320   4.537  0.0374 -0.2266  0.3595
   20MOL   C111 8129   2.424   5.178   4.512 -0.1209 -0.3429 -0.0182
   20MOL   C112 8130   2.376   5.422   4.503 -0.7191 -0.0221 -0.2100
   20MOL   C113 8131   2.508   5.330   4.689 -0.3159  0.1892  0.3202
   20MOL   H114 8132   2.861   5.453   4.515 -0.1605 -0.3158 -0.9184
   20MOL   H115 8133   2.758   5.409   4.650 -0.5042 -0.6728  0.5526
   20MOL   H116 8134   2.708   5.183   4.532 -1.5093  0.4380 -0.2193
   20MOL   H117 8135   2.622   5.448   4.416 -3.3591 -0.0655 -1.0508
   20MOL   H118 8136   2.566   5.311   4.345  0.9112 -0.7022 -0.3594
   20MOL   H119 8137   2.319   5.178   4.541 -0.0724  0.7767  0.1924
   20MOL   H120 8138   2.436   5.139   4.411  2.4517 -0.5499  0.3332
   20MOL   H121 8139   2.455   5.101   4.582 -4.0627 -0.5576  1.6259
   20MOL   H122 8140   2.427   5.517   4.487  0.5302 -0.6847 -0.2130
   20MOL   H123 8141   2.315   5.440   4.592  0.7223  1.3597  0.5268
   20MOL   H124 8142   2.312   5.404   4.417 -0.9973 -1.2383  0.2426
   20MOL   H125 8143   2.415   5.301   4.738  0.1663  0.6595  1.5559
   20MOL   H126 8144   2.542   5.430   4.715 -0.7232  0.6873 -1.0291
   20MOL   H127 8145   2.587   5.260   4.717 -0.3528 -0.1436 -0.4041
   20MOL   C128 8146   2.828   5.237   4.353 -0.6003  0.5282  0.9275
   20MOL   C129 8147   2.773   5.106   4.286 -0.1093 -0.0208 -0.3303
   20MOL   C130 8148   2.815   5.109   4.134 -0.2472 -0.4626  0.4802
   20MOL   C131 8149   2.737   5.193   4.037  0.7709  0.5804  0.2007
   20MOL   C132 8150   2.591   5.139   4.017  0.2054 -0.4326  0.2630
   20MOL   C133 8151   2.795   5.157   3.904 -0.9291 -0.2396  0.6995
   20MOL   C134 8152   2.745   5.348   4.055  0.8140  0.3785 -0.1548
   20MOL   H135 8153   2.934   5.225   4.376 -0.3874 -0.3141 -0.4224
   20MOL   H136 8154   2.845   5.319   4.283  0.1109  1.5246  2.2449
   20MOL   H137 8155   2.667   5.099   4.308  0.2256 -1.1415  1.0053
   20MOL   H138 8156   2.923   5.119   4.124 -0.2002 -1.1650  0.2665
   20MOL   H139 8157   2.815   5.007   4.097 -0.0549 -0.4537  0.4560
   20MOL   H140 8158   2.600   5.031   4.019 -0.7098 -0.4870  2.3014
   20MOL   H141 8159   2.539   5.166   3.925  0.1231  2.2449  1.0523
   20MOL   H142 8160   2.517   5.158   4.095  1.0224  0.7401  0.7578
   20MOL   H143 8161   2.790   5.051   3.877  1.5379 -0.5848  1.4668
   20MOL   H144 8162   2.898   5.190   3.890 -1.0717 -0.4475 -0.9283
   20MOL   H145 8163   2.755   5.212   3.819  1.2826  3.7849  2.1498
   20MOL   H146 8164   2.722   5.406   3.966  1.7782 -0.8055 -1.1769
   20MOL   H147 8165   2.688   5.378   4.143  2.2734 -2.0395  1.6889
   20MOL   H148 8166   2.847   5.382   4.076  0.6382 -0.2759  1.9130
   20MOL   C149 8167   2.847   5.000   4.357  0.1115  0.3969 -0.4562
   20MOL   C150 8168   2.795   4.854   4.345 -0.2788  0.9069  0.5129
   20MOL   C151 8169   2.906   4.746   4.391  0.4001 -0.2514 -0.2944
   20MOL   C152 8170   3.012   4.687   4.300  0.2131  0.3302 -0.6123
   20MOL   C153 8171   2.940   4.610   4.188 -0.4365  0.4232  0.1301
   20MOL   C154 8172   3.101   4.592   4.376 -0.2403 -0.7957  0.1504
   20MOL   C155 8173   3.098   4.798   4.242 -0.0036  0.5120  0.3428
   20MOL   H156 8174   2.836   5.017   4.464 -0.0226  0.3972 -0.4704
   20MOL   H157 8175   2.955   5.012   4.344 -0.0715  0.2962 -2.1218
   20MOL   H158 8176   2.785   4.837   4.238 -0.0944 -0.7359  0.7330
   20MOL   H159 8177   2.864   4.671   4.458 -1.2148  1.5533  0.7947
   20MOL   H160 8178   2.953   4.806   4.469 -0.6449 -0.9870  0.9112
   20MOL   H161 8179   2.902   4.520   4.237 -0.1210  0.5519  0.6193
   20MOL   H162 8180   2.854   4.651   4.135  0.3973  1.7541 -0.2094
   20MOL   H163 8181   3.006   4.573   4.110  0.4704  1.2891  0.4756
   20MOL   H164 8182   3.188   4.551   4.325  0.4937  1.2724 -0.2996
   20MOL   H165 8183   3.034   4.508   4.392 -1.1691  0.0276  0.6365
   20MOL   H166 8184   3.122   4.630   4.476  1.6156  0.8697 -0.8386
   20MOL   H167 8185   3.174   4.751   4.179 -2.8250  0.4557 -3.1576
   20MOL   H168 8186   3.038   4.863   4.179  0.3417  1.1605  0.6753
   20MOL   H169 8187   3.151   4.859   4.316  2.0524  0.8614 -1.3795
   20MOL   C170 8188   2.659   4.845   4.419 -0.0488  0.2761 -0.1427
   20MOL   C171 8189   2.550   4.754   4.354 -0.1683  0.3678  0.2880
   20MOL   C172 8190   2.591   4.610   4.323 -0.3399 -0.4082 -0.2435
   20MOL   C173 8191   2.568   4.507   4.437 -0.2852  0.7365  0.0066
   20MOL   C174 8192   2.582   4.366   4.370  0.0654 -0.8045  0.4728
   20MOL   C175 8193   2.433   4.515   4.498  0.3033 -0.1846  0.5238
   20MOL   C176 8194   2.673   4.505   4.550  0.4476 -0.3168 -0.7051
   20MOL   H177 8195   2.608   4.940   4.428 -0.2151  0.3127 -1.3061
   20MOL   H178 8196   2.688   4.814   4.519  0.0716 -0.5124 -0.4167
   20MOL   H179 8197   2.470   4.760   4.428  0.1483  0.5667  0.6165
   20MOL   H180 8198   2.544   4.580   4.229  0.6033  0.9630 -1.1669
   20MOL   H181 8199   2.691   4.608   4.280  0.0919  0.9920  0.6838
   20MOL   H182 8200   2.495   4.355   4.305 -0.7397 -1.2496  1.5853
   20MOL   H183 8201   2.674   4.364   4.314 -0.6448  0.7148 -0.7887
   20MOL   H184 8202   2.578   4.290   4.448 -0.8662 -1.0766  0.1693
   20MOL   H185 8203   2.355   4.523   4.421 -1.3549 -2.5596  1.8896
   20MOL   H186 8204   2.416   4.432   4.567 -0.7381 -1.1271 -0.8296
   20MOL   H187 8205   2.438   4.598   4.567  1.3957  1.3950 -1.4115
   20MOL   H188 8206   2.771   4.487   4.504  1.2633 -2.1614  1.6964
   20MOL   H189 8207   2.665   4.605   4.592 -0.7442 -0.7380  0.0717
   20MOL   H190 8208   2.658   4.420   4.616 -2.4894  0.6984  0.0080
   20MOL   C191 8209   2.486   4.829   4.232  0.1005  0.4427 -0.0516
   20MOL   C192 8210   2.348   4.787   4.184 -0.0743 -0.2024 -0.1650
   20MOL   C193 8211   2.315   4.842   4.044  0.1279  0.0435 -0.2608
   20MOL   C194 8212   2.337   4.757   3.917  0.0779 -0.3574  0.3736
   20MOL   C195 8213   2.287   4.614   3.910 -0.1670 -0.8243 -0.0168
   20MOL   C196 8214   2.487   4.748   3.881  0.0960 -0.0973  0.1602
   20MOL   C197 8215   2.272   4.829   3.798 -0.6222 -0.2729  0.1070
   20MOL   H198 8216   2.497   4.935   4.258  2.6947  0.1440  0.2005
   20MOL   H199 8217   2.550   4.832   4.144  0.0891 -1.4909 -0.1503
   20MOL   H200 8218   2.335   4.679   4.185  0.3833 -0.2547  0.0762
   20MOL   H201 8219   2.349   4.945   4.034 -4.2766  1.5111 -1.3035
   20MOL   H202 8220   2.208   4.858   4.053  0.1081 -0.4867  0.5055
   20MOL   H203 8221   2.314   4.554   3.824 -0.1977 -0.1611 -0.4956
   20MOL   H204 8222   2.314   4.549   3.993  1.7474 -2.4587 -1.8875
   20MOL   H205 8223   2.178   4.619   3.920 -0.1501 -0.3217 -0.0764
   20MOL   H206 8224   2.532   4.842   3.912  0.3769 -0.6495  1.4209
   20MOL   H207 8225   2.545   4.672   3.932 -1.1283 -2.6702 -2.1202
   20MOL   H208 8226   2.500   4.741   3.773  0.6319  1.2065  0.1191
   20MOL   H209 8227   2.286   4.779   3.702  1.9294  0.4313  0.0876
   20MOL   H210 8228   2.166   4.850   3.816 -0.4993 -0.7020  1.3780
   20MOL   H211 8229   2.318   4.927   3.788  1.2524 -1.1398  0.1554
   20MOL   C212 8230   2.233   4.833   4.279  0.2002 -0.1786  0.9671
   20MOL   C213 8231   2.080   4.770   4.257 -0.2357  0.4275  0.2788
   20MOL   C214 8232   1.975   4.879   4.290  0.9260 -0.0233  0.4339
   20MOL   C215 8233   1.932   4.982   4.182  0.5695  0.3774 -0.1498
   20MOL   C216 8234   1.911   4.925   4.036  0.0009  0.2020  0.5897
   20MOL   C217 8235   1.799   5.052   4.223  0.2247  0.8903 -0.2652
   20MOL   C218 8236   2.038   5.092   4.171 -0.6440 -0.2109  0.3669
   20MOL   H219 8237   2.257   4.810   4.383  1.8529 -2.8580  0.0476
   20MOL   H220 8238   2.232   4.941   4.273 -1.5817 -0.1792  1.1478
   20MOL   H221 8239   2.069   4.739   4.153 -3.1394 -1.5796  1.1183
   20MOL   H222 8240   2.011   4.927   4.381 -2.5358  0.2492  1.7320
   20MOL   H223 8241   1.884   4.825   4.314  1.0068 -0.0198  0.7599
   20MOL   H224 8242   1.852   4.997   3.978  0.1334  0.2765  0.5472
   20MOL   H225 8243   1.857   4.830   4.042  1.0136 -0.4491 -0.4175
   20MOL   H226 8244   2.008   4.913   3.988  0.3934  2.4014  0.8000
   20MOL   H227 8245   1.765   5.116   4.142 -2.6570  0.9356  0.9246
   20MOL   H228 8246   1.721   4.980   4.247  0.3606  1.5214  2.2065
   20MOL   H229 8247   1.813   5.103   4.319 -1.0018  0.5616  0.0917
   20MOL   H230 8248   2.067   5.123   4.271 -0.2262  0.7426 -0.0452
   20MOL   H231 8249   2.004   5.179   4.114  1.1939  1.5876  1.9621
   20MOL   H232 8250   2.129   5.055   4.124 -0.5545 -1.2515  1.3647
   20MOL   C233 8251   2.070   4.638   4.339 -0.1937  0.2943 -0.4764
   20MOL   C234 8252   1.961   4.535   4.293  0.5159 -0.7184  0.6302
   20MOL   C235 8253   1.994   4.463   4.162 -0.3110 -0.1485 -0.3242
   20MOL   C236 8254   1.886   4.401   4.075  0.5978 -0.7483  0.2076
   20MOL   C237 8255   1.797   4.520   4.024 -0.1491 -0.4909 -0.5117
   20MOL   C238 8256   1.943   4.340   3.946 -0.1464 -0.1671 -0.0911
   20MOL   C239 8257   1.795   4.298   4.145  0.1782 -0.4376  0.0810
   20MOL   H240 8258   2.076   4.666   4.444 -0.8142  0.2064 -0.4149
   20MOL   H241 8259   2.168   4.595   4.320 -0.6932 -0.4361 -1.4931
   20MOL   H242 8260   1.879   4.602   4.267  1.8232  0.2550 -1.0975
   20MOL   H243 8261   2.037   4.537   4.094  0.5314  0.3732  0.7492
   20MOL   H244 8262   2.079   4.397   4.181  1.1241  1.9288  0.6887
   20MOL   H245 8263   1.853   4.604   3.985 -0.9652  0.0089 -0.6122
   20MOL   H246 8264   1.742   4.551   4.113 -1.6738 -0.2497 -1.5191
   20MOL   H247 8265   1.721   4.495   3.949 -1.3872 -1.2089  0.9402
   20MOL   H248 8266   1.984   4.241   3.969 -0.4797  0.4031  3.1018
   20MOL   H249 8267   1.861   4.336   3.874 -0.0656  0.5292 -0.2182
   20MOL   H250 8268   2.023   4.400   3.903 -0.2892  1.8793  2.3853
   20MOL   H251 8269   1.715   4.351   4.197 -0.6736 -2.6489  1.1303
   20MOL   H252 8270   1.740   4.238   4.072  1.7985  1.0498 -2.4254
   20MOL   H253 8271   1.837   4.229   4.218  0.2089 -1.3298 -0.7639
   20MOL   C254 8272   1.916   4.448   4.412 -0.2825  0.0927 -0.4087
   20MOL   C255 8273   1.856   4.518   4.538  0.5161  0.2438 -0.3198
   20MOL   C256 8274   1.812   4.413   4.647  0.0925  0.1100 -0.0178
   20MOL   C257 8275   1.916   4.358   4.750  0.8795 -0.2096 -0.3365
   20MOL   C258 8276   1.837   4.298   4.870 -0.3617  0.2800 -0.9793
   20MOL   C259 8277   2.020   4.456   4.802  0.6568  0.0849  0.5007
   20MOL   C260 8278   1.989   4.237   4.690 -0.4544 -0.1516  0.2512
   20MOL   H261 8279   2.003   4.394   4.448 -1.2545 -0.5058  1.1110
   20MOL   H262 8280   1.853   4.368   4.372  1.7527 -0.2072 -3.1558
   20MOL   H263 8281   1.933   4.580   4.583 -2.3183  1.5310  2.9752
   20MOL   H264 8282   1.732   4.445   4.714 -0.7282 -1.2143 -0.3476
   20MOL   H265 8283   1.777   4.326   4.591  0.7896  1.4310 -2.5490
   20MOL   H266 8284   1.787   4.210   4.829  0.5785 -0.8880  0.3562
   20MOL   H267 8285   1.759   4.361   4.915 -0.5348 -0.6945  0.1120
   20MOL   H268 8286   1.909   4.263   4.944 -2.4663 -2.8602 -0.2865
   20MOL   H269 8287   1.984   4.541   4.859  1.0974  0.0994  0.7599
   20MOL   H270 8288   2.078   4.487   4.715  0.5430 -4.4420 -1.3594
   20MOL   H271 8289   2.091   4.398   4.861  0.9551  0.1502  0.2108
   20MOL   H272 8290   2.046   4.192   4.771  0.5186  0.0465 -0.3156
   20MOL   H273 8291   1.931   4.159   4.641  1.0372 -1.5635  0.6764
   20MOL   H274 8292   2.063   4.266   4.615 -1.5270 -2.1054 -1.6418
   20MOL   C275 8293   1.720   4.602   4.500 -0.3818 -0.0124 -0.0596
   20MOL   C276 8294   1.681   4.712   4.603 -1.0973  0.1109 -0.0329
   20MOL   C277 8295   1.773   4.839   4.579  0.0963 -0.3196  0.0931
   20MOL   C278 8296   1.803   4.943   4.687 -0.2089  0.0941 -0.1191
   20MOL   C279 8297   1.894   5.042   4.623  0.6988 -0.0324 -0.1991
   20MOL   C280 8298   1.675   5.016   4.739 -0.1023  0.1146 -0.0456
   20MOL   C281 8299   1.877   4.874   4.804 -0.2191  0.0288 -0.1912
   20MOL   H282 8300   1.721   4.649   4.402  0.9034  0.5056  0.1884
   20MOL   H283 8301   1.640   4.529   4.508 -0.1619 -0.4056 -1.3747
   20MOL   H284 8302   1.724   4.680   4.698  0.0790  0.4979 -0.4305
   20MOL   H285 8303   1.725   4.895   4.499 -1.0416  0.0657  1.0422
   20MOL   H286 8304   1.870   4.802   4.545  0.5168  1.0513 -0.2286
   20MOL   H287 8305   1.837   5.082   4.539 -0.1634  0.0661  0.4281
   20MOL   H288 8306   1.916   5.131   4.682 -2.2029  0.2132  0.6112
   20MOL   H289 8307   1.992   5.002   4.597  1.2779  0.6211  0.9166
   20MOL   H290 8308   1.708   5.096   4.805 -2.0583  1.0624 -0.2113
   20MOL   H291 8309   1.618   4.951   4.805 -0.3587 -0.2776 -0.6548
   20MOL   H292 8310   1.613   5.054   4.658  1.1656 -0.7953 -1.4852
   20MOL   H293 8311   1.957   4.810   4.766  0.5247  1.2607 -0.7129
   20MOL   H294 8312   1.813   4.812   4.868  0.6113 -1.2200 -0.5381
   20MOL   H295 8313   1.925   4.948   4.868  0.6844  0.4835 -1.3984
   20MOL   C296 8314   1.531   4.741   4.593  0.5629 -0.0990  0.8175
   20MOL   C297 8315   1.437   4.626   4.649  0.3406 -0.1874 -0.1262
   20MOL   C298 8316   1.293   4.669   4.618 -0.2773 -0.7936  0.1415
   20MOL   C299 8317   1.231   4.592   4.491 -0.3799  0.1181  0.4504
   20MOL   C300 8318   1.095   4.658   4.458 -0.0332 -0.2684 -0.0646
   20MOL   C301 8319   1.321   4.587   4.362 -0.3181 -0.9791 -0.1519
   20MOL   C302 8320   1.188   4.451   4.530  0.2326  0.1259 -0.4237
   20MOL   H303 8321   1.501   4.762   4.490 -2.9110  0.1818  1.8209
   20MOL   H304 8322   1.509   4.835   4.644 -0.5239  0.9585 -1.4946
   20MOL   H305 8323   1.464   4.532   4.601 -2.7267 -0.7705 -0.7834
   20MOL   H306 8324   1.295   4.776   4.597 -1.4579 -0.5154  1.3570
   20MOL   H307 8325   1.241   4.677   4.714  0.6711  1.7222  0.4827
   20MOL   H308 8326   1.109   4.766   4.448  0.4784 -0.6305 -3.9887
   20MOL   H309 8327   1.051   4.611   4.371 -0.0656 -2.8769  1.3114
   20MOL   H310 8328   1.017   4.652   4.535 -0.7282 -0.9047 -0.8150
   20MOL   H311 8329   1.337   4.687   4.320 -0.7127 -1.3445 -1.1824
   20MOL   H312 8330   1.411   4.529   4.380  0.0862 -1.0368 -2.1961
   20MOL   H313 8331   1.283   4.527   4.279 -2.4982 -0.0289  0.1306
   20MOL   H314 8332   1.136   4.408   4.444  0.0957  0.5214 -0.5375
   20MOL   H315 8333   1.271   4.386   4.561  0.3754 -1.0314 -3.0717
   20MOL   H316 8334   1.122   4.462   4.615 -0.3230  1.0493 -0.9645
   20MOL   C317 8335   1.466   4.619   4.798  0.2038 -0.3162 -0.4381
   20MOL   C318 8336   1.388   4.508   4.879  0.6352  0.3856  0.2227
   20MOL   C319 8337   1.422   4.360   4.830  0.0648  0.3983  0.3857
   20MOL   C320 8338   1.338   4.238   4.879 -0.0826 -0.0296 -0.2217
   20MOL   C321 8339   1.324   4.134   4.772  0.3533 -0.2269 -0.5631
   20MOL   C322 8340   1.194   4.280   4.916 -0.5394  0.0148  0.0643
   20MOL   C323 8341   1.414   4.177   4.996 -0.7595 -0.2836 -0.4781
   20MOL   H324 8342   1.571   4.620   4.823  0.5175  0.6161 -1.7105
   20MOL   H325 8343   1.432   4.716   4.834  2.9728  0.7754 -0.7049
   20MOL   H326 8344   1.284   4.521   4.848  0.5797 -1.7377 -0.5418
   20MOL   H327 8345   1.530   4.349   4.836  0.4858  2.6645 -1.9053
   20MOL   H328 8346   1.424   4.365   4.721 -0.0324 -0.2945  0.3520
   20MOL   H329 8347   1.250   4.159   4.696 -0.5510 -2.4696 -0.4593
   20MOL   H330 8348   1.279   4.047   4.821 -0.4149  0.0006 -0.8488
   20MOL   H331 8349   1.409   4.099   4.714  0.1604 -0.1225 -0.9096
   20MOL   H332 8350   1.140   4.325   4.833 -1.2903 -0.3856  0.3373
   20MOL   H333 8351   1.144   4.197   4.965 -0.5220  0.3722  0.6965
   20MOL   H334 8352   1.197   4.354   4.997  2.2373  1.2955 -1.1384
   20MOL   H335 8353   1.415   4.235   5.087  1.7240 -0.8101 -0.1415
   20MOL   H336 8354   1.517   4.167   4.963 -0.2712  1.5427  0.4432
   20MOL   H337 8355   1.364   4.083   5.022  1.4213 -0.6078  2.8098
   20MOL   C338 8356   1.409   4.524   5.035 -0.7988  0.5413 -0.1227
   20MOL   C339 8357   1.358   4.660   5.094 -0.4595 -0.1952 -0.7683
   20MOL   C340 8358   1.426   4.694   5.231 -0.1550  0.2126 -0.1167
   20MOL   C341 8359   1.556   4.780   5.229  0.1255 -0.2413 -0.0978
   20MOL   C342 8360   1.672   4.737   5.141  0.7457 -0.2154 -0.8020
   20MOL   C343 8361   1.525   4.922   5.173 -0.4481 -0.5688  0.4119
   20MOL   C344 8362   1.622   4.780   5.374  0.3367 -0.0749  0.0126
   20MOL   H345 8363   1.513   4.499   5.058 -0.9608  0.4749  0.5499
   20MOL   H346 8364   1.358   4.443   5.089 -1.1549 -0.9648 -2.6383
   20MOL   H347 8365   1.377   4.744   5.027 -0.7808  0.1599 -0.4186
   20MOL   H348 8366   1.441   4.602   5.286 -2.0326  0.4064  0.7576
   20MOL   H349 8367   1.351   4.751   5.285  1.0548 -0.2235  2.0575
   20MOL   H350 8368   1.706   4.636   5.161  1.3515  0.1901  0.2679
   20MOL   H351 8369   1.660   4.758   5.035 -0.4210  1.6238 -0.3510
   20MOL   H352 8370   1.765   4.789   5.163  1.5819 -3.0145  2.5679
   20MOL   H353 8371   1.518   4.922   5.064  0.6225 -2.1167  0.3282
   20MOL   H354 8372   1.431   4.967   5.204 -1.2093 -1.0036 -1.2010
   20MOL   H355 8373   1.603   4.991   5.204 -1.8079 -0.2208  3.1778
   20MOL   H356 8374   1.547   4.809   5.448  1.6564  0.3218  1.2214
   20MOL   H357 8375   1.667   4.691   5.417  0.9659 -0.3972 -1.2972
   20MOL   H358 8376   1.694   4.862   5.379  0.2390 -0.0804  1.8940
   20MOL   C359 8377   1.213   4.649   5.108  0.0362  0.0111 -0.3029
   20MOL   C360 8378   1.132   4.785   5.103 -0.5327 -0.3470  0.2696
   20MOL   C361 8379   0.997   4.757   5.178  0.7043  0.0824  0.3968
   20MOL   C362 8380   0.983   4.822   5.312 -0.0341 -0.1057  0.1205
   20MOL   C363 8381   0.981   4.976   5.289 -0.0652 -0.8228  0.7904
   20MOL   C364 8382   1.092   4.791   5.410 -0.3195  0.3300 -0.0008
   20MOL   C365 8383   0.849   4.784   5.371  0.5005  0.1673 -0.4014
   20MOL   H366 8384   1.190   4.583   5.191  3.0984  0.6600  1.0983
   20MOL   H367 8385   1.173   4.586   5.029 -1.4880  2.5458 -1.6521
   20MOL   H368 8386   1.195   4.855   5.157 -1.1225 -1.9329  3.1230
   20MOL   H369 8387   0.919   4.794   5.112  0.5997 -0.3274  0.2912
   20MOL   H370 8388   0.976   4.651   5.189 -0.0517  0.2666  0.7115
   20MOL   H371 8389   1.080   5.011   5.258 -0.2502 -0.7720  0.2583
   20MOL   H372 8390   0.912   5.005   5.210 -0.5697 -0.8591  1.2214
   20MOL   H373 8391   0.961   5.025   5.384  1.5248 -3.1953  2.4304
   20MOL   H374 8392   1.182   4.838   5.371  0.0169 -1.8766 -1.9644
   20MOL   H375 8393   1.108   4.684   5.409 -2.0530  0.0508  0.5246
   20MOL   H376 8394   1.073   4.820   5.514  1.8358 -0.8248  0.7394
   20MOL   H377 8395   0.761   4.812   5.314 -0.3284  2.6659  1.9875
   20MOL   H378 8396   0.845   4.831   5.469 -1.7341 -2.1925  0.7079
   20MOL   H379 8397   0.855   4.677   5.392 -0.3556  0.1132 -0.4278
   20MOL   C380 8398   1.113   4.824   4.954  0.7198  0.1888  0.1186
   20MOL   C381 8399   1.052   4.961   4.916  0.0651 -0.1994 -0.5356
   20MOL   C382 8400   0.992   4.968   4.774 -0.6901  0.1293  0.6014
   20MOL   C383 8401   0.835   4.952   4.764 -0.7163 -0.7433  0.1526
   20MOL   C384 8402   0.787   4.817   4.824 -0.4177  0.1758  0.6411
   20MOL   C385 8403   0.791   4.962   4.617 -0.6231 -0.1697  0.5663
   20MOL   C386 8404   0.768   5.057   4.859  0.0503 -0.1817  0.2089
   20MOL   H387 8405   1.051   4.748   4.906 -0.0813  1.5152 -0.9965
   20MOL   H388 8406   1.205   4.809   4.898 -0.4380  0.5977 -1.9595
   20MOL   H389 8407   0.972   4.978   4.988 -0.2241 -2.5509 -0.2722
   20MOL   H390 8408   1.022   5.062   4.728  0.7213 -0.0617  1.0895
   20MOL   H391 8409   1.037   4.889   4.715 -0.0372  1.5582 -0.8584
   20MOL   H392 8410   0.842   4.730   4.789  0.7062  0.3224  2.0045
   20MOL   H393 8411   0.787   4.800   4.932 -2.8107 -0.0720  0.6327
   20MOL   H394 8412   0.680   4.802   4.810 -0.4512 -1.7509  2.6037
   20MOL   H395 8413   0.854   4.896   4.557 -0.5778  0.3199  0.0731
   20MOL   H396 8414   0.814   5.062   4.580  1.1014 -0.3421  1.1068
   20MOL   H397 8415   0.687   4.930   4.615  0.3760 -3.6462  1.1816
   20MOL   H398 8416   0.787   5.051   4.966  2.7581 -2.4852 -0.3334
   20MOL   H399 8417   0.660   5.057   4.846  0.3519  0.9212 -2.5845
   20MOL   H400 8418   0.803   5.156   4.831 -1.7279  1.1678  2.6442
   20MOL   C401 8419   1.161   5.069   4.933 -0.0081  0.8271  1.0066
   20MOL   C402 8420   1.104   5.212   4.953 -0.2819  0.5567  0.2136
   20MOL   C403 8421   1.213   5.322   4.950 -0.3590 -0.6117 -0.1941
   20MOL   C404 8422   1.155   5.464   4.962 -0.6487  0.3223 -0.6058
   20MOL   C405 8423   1.055   5.488   4.850  0.1465 -0.8459 -0.1848
   20MOL   C406 8424   1.275   5.565   4.945  0.0680 -0.4471  0.6990
   20MOL   C407 8425   1.087   5.491   5.100  0.5634 -0.0838  0.4814
   20MOL   H408 8426   1.228   5.037   5.013 -0.1200 -1.9662  0.0531
   20MOL   H409 8427   1.220   5.075   4.841 -3.2781  2.1267 -1.0741
   20MOL   H410 8428   1.034   5.239   4.873 -2.5048  3.0084  2.8665
   20MOL   H411 8429   1.266   5.319   4.855 -0.0735  1.3171 -0.1136
   20MOL   H412 8430   1.286   5.318   5.030 -1.4801 -3.0727  0.7443
   20MOL   H413 8431   1.106   5.453   4.760 -0.0770 -1.1361 -0.1996
   20MOL   H414 8432   1.050   5.595   4.836  2.0923 -0.6975  0.1185
   20MOL   H415 8433   0.956   5.442   4.861 -1.2743  2.0660 -0.3315
   20MOL   H416 8434   1.254   5.671   4.943 -1.5798 -0.7790 -0.2343
   20MOL   H417 8435   1.340   5.543   4.860 -0.4142  1.9560 -0.3187
   20MOL   H418 8436   1.348   5.562   5.026  1.4241 -1.6274 -0.5368
   20MOL   H419 8437   1.060   5.592   5.132  0.2414  0.4350 -1.3841
   20MOL   H420 8438   0.984   5.455   5.104  0.4633  0.2460  1.0335
   20MOL   H421 8439   1.132   5.448   5.189 -0.3249  1.2630  1.6072
   20MOL   H422 8440   1.047   5.222   5.045  1.0914  0.8338  1.0389
   21MOL     C1 8441   2.573   1.852   0.944 -0.3105  0.4300 -0.2178
   21MOL     C2 8442   2.685   1.904   1.037 -0.7489 -0.3540  0.3748
   21MOL     C3 8443   2.790   1.794   1.078 -0.1126 -1.0211  0.2975
   21MOL     C4 8444   2.931   1.784   1.007 -0.2149 -0.1542 -0.0368
   21MOL     C5 8445   3.007   1.921   1.009 -0.7657  0.4337 -0.0412
   21MOL     C6 8446   3.038   1.687   1.077  0.1457  0.0918  0.0726
   21MOL     C7 8447   2.902   1.731   0.869  0.3698  0.1071 -0.1003
   21MOL     H8 8448   2.620   1.798   0.862  2.7207  1.1693  0.9357
   21MOL     H9 8449   2.503   1.790   0.999  0.6576 -0.9390 -0.5128
   21MOL    H10 8450   2.735   1.980   0.976  0.0161 -1.9635 -1.0483
   21MOL    H11 8451   2.746   1.695   1.069  0.1710 -1.4757  3.2637
   21MOL    H12 8452   2.813   1.798   1.185 -0.8628  0.7216  0.4083
   21MOL    H13 8453   3.028   1.967   1.105 -3.2689 -0.7273  1.1050
   21MOL    H14 8454   2.963   2.005   0.956 -1.5682  1.2956  1.9352
   21MOL    H15 8455   3.108   1.916   0.968 -0.0769 -2.1820  1.8636
   21MOL    H16 8456   3.128   1.691   1.016 -0.1583  1.5045 -0.2981
   21MOL    H17 8457   3.069   1.727   1.174 -0.5372 -1.4121  0.9291
   21MOL    H18 8458   3.005   1.584   1.087 -0.9920  0.2850 -1.4481
   21MOL    H19 8459   2.998   1.698   0.829 -1.0693 -3.0867 -1.0961
   21MOL    H20 8460   2.856   1.795   0.794 -1.5136 -0.0243  0.9165
   21MOL    H21 8461   2.855   1.633   0.880  0.7249  0.0665  1.1985
   21MOL    H22 8462   2.522   1.932   0.890 -3.4718 -1.1788  0.3268
   21MOL    C23 8463   2.622   1.956   1.169 -0.2289 -1.2878 -0.1229
   21MOL    C24 8464   2.499   2.054   1.166  0.3492  0.7383 -0.5413
   21MOL    C25 8465   2.535   2.183   1.076 -0.6649 -0.5775 -0.0441
   21MOL    C26 8466   2.423   2.274   1.022  0.5895  0.2469  0.2541
   21MOL    C27 8467   2.299   2.197   0.980 -0.1781  0.7549  0.2130
   21MOL    C28 8468   2.385   2.377   1.127 -0.0732 -0.4674 -0.2289
   21MOL    C29 8469   2.471   2.357   0.897 -0.4513 -0.5605 -0.5787
   21MOL    H30 8470   2.587   1.875   1.233  0.2797 -2.2098 -1.0010
   21MOL    H31 8471   2.707   1.995   1.226  0.1888 -0.0231 -1.5903
   21MOL    H32 8472   2.414   1.994   1.134 -0.9520  1.2104  1.9573
   21MOL    H33 8473   2.603   2.151   0.997 -0.6818 -0.2586 -0.1859
   21MOL    H34 8474   2.599   2.248   1.136 -0.1106  0.9568 -2.2642
   21MOL    H35 8475   2.245   2.154   1.065  0.5587 -1.6318 -0.4916
   21MOL    H36 8476   2.224   2.258   0.930 -0.0863  0.1478 -0.6686
   21MOL    H37 8477   2.308   2.104   0.923 -1.6643 -0.5923  2.0893
   21MOL    H38 8478   2.461   2.428   1.186 -0.4434  1.3548 -1.2646
   21MOL    H39 8479   2.329   2.464   1.092  1.9031  2.1256  2.8054
   21MOL    H40 8480   2.307   2.342   1.195  1.1359 -1.3503  0.7238
   21MOL    H41 8481   2.501   2.294   0.814  0.2262 -0.9328 -0.0612
   21MOL    H42 8482   2.563   2.412   0.919 -1.9687  2.3187 -1.2372
   21MOL    H43 8483   2.396   2.431   0.868 -0.1104  1.1787  2.6837
   21MOL    C44 8484   2.469   2.097   1.317 -0.0847 -0.3465  0.7519
   21MOL    C45 8485   2.386   1.992   1.394  0.6127 -0.5983  0.2670
   21MOL    C46 8486   2.240   1.994   1.343  0.3120  0.2562  0.3834
   21MOL    C47 8487   2.162   1.856   1.337 -0.6104  0.7807  0.5975
   21MOL    C48 8488   2.149   1.781   1.467 -0.4575 -0.5891 -0.0002
   21MOL    C49 8489   2.230   1.759   1.232 -0.0575 -0.1218  0.4543
   21MOL    C50 8490   2.026   1.887   1.274  0.3470  0.1408 -0.3811
   21MOL    H51 8491   2.566   2.116   1.364  0.3566  2.5888 -1.2128
   21MOL    H52 8492   2.407   2.186   1.323 -0.3427 -0.4074 -0.8984
   21MOL    H53 8493   2.426   1.893   1.372  1.0126 -0.6301  1.1040
   21MOL    H54 8494   2.234   2.041   1.245 -0.3175 -1.0707 -0.2408
   21MOL    H55 8495   2.182   2.064   1.403  0.0786  1.7417 -1.5260
   21MOL    H56 8496   2.099   1.684   1.466 -2.1478  0.2413  1.1911
   21MOL    H57 8497   2.102   1.849   1.538  2.4605  0.3081  1.1639
   21MOL    H58 8498   2.249   1.764   1.506 -0.2299 -1.4323 -0.9615
   21MOL    H59 8499   2.333   1.737   1.262 -0.5099  2.2594  4.0452
   21MOL    H60 8500   2.174   1.666   1.219 -0.5543 -0.3160  3.5983
   21MOL    H61 8501   2.235   1.799   1.131 -1.0401  3.3694  1.7279
   21MOL    H62 8502   2.042   1.941   1.180 -0.7317  1.2266  0.0425
   21MOL    H63 8503   1.967   1.797   1.254 -0.7596  0.2515  2.2917
   21MOL    H64 8504   1.954   1.940   1.337 -0.5596 -0.5469 -0.8197
   21MOL    C65 8505   2.411   2.007   1.542  0.5463  0.3189 -0.2511
   21MOL    C66 8506   2.534   1.922   1.590 -0.0558  0.8531  0.0354
   21MOL    C67 8507   2.501   1.780   1.650  0.0828 -0.0145  0.6718
   21MOL    C68 8508   2.579   1.658   1.594 -0.1877  0.1097 -0.6286
   21MOL    C69 8509   2.558   1.538   1.694 -0.9357  0.1724  0.0693
   21MOL    C70 8510   2.533   1.623   1.460 -0.2179 -0.3472  0.2144
   21MOL    C71 8511   2.729   1.685   1.581 -0.3581  0.0358  0.0011
   21MOL    H72 8512   2.410   2.114   1.566  1.6536  0.4350 -0.7236
   21MOL    H73 8513   2.322   1.973   1.595  1.3924 -1.7778 -0.1286
   21MOL    H74 8514   2.603   1.913   1.506  0.7161  0.2656  0.7204
   21MOL    H75 8515   2.395   1.754   1.639 -0.3490  1.3963  1.3842
   21MOL    H76 8516   2.517   1.780   1.757 -1.3159  1.5539  0.9111
   21MOL    H77 8517   2.611   1.455   1.646  0.5844  0.5266  1.1143
   21MOL    H78 8518   2.599   1.550   1.794 -1.3393  0.0592  0.2478
   21MOL    H79 8519   2.451   1.523   1.708 -0.5836 -4.2437 -1.0848
   21MOL    H80 8520   2.527   1.704   1.386 -2.1265 -1.5311 -0.9877
   21MOL    H81 8521   2.427   1.603   1.474 -0.2689 -0.1353  0.1401
   21MOL    H82 8522   2.577   1.534   1.416  0.8299  0.0833  0.3784
   21MOL    H83 8523   2.752   1.753   1.499  1.7218 -2.5429 -1.6190
   21MOL    H84 8524   2.788   1.600   1.548  1.2750  1.0979  0.1502
   21MOL    H85 8525   2.769   1.732   1.671 -0.2434  0.3459 -0.2102
   21MOL    C86 8526   2.613   2.000   1.690  0.6569  0.4729  0.1705
   21MOL    C87 8527   2.708   2.112   1.632 -0.1033  0.4573  0.0931
   21MOL    C88 8528   2.826   2.040   1.558  0.0157  0.2325  0.0183
   21MOL    C89 8529   2.928   2.127   1.480  0.1085 -0.8983 -0.6179
   21MOL    C90 8530   3.039   2.182   1.577 -0.6001 -0.0263 -0.8465
   21MOL    C91 8531   2.853   2.245   1.409 -0.8815 -0.2363 -0.2250
   21MOL    C92 8532   2.992   2.034   1.379 -0.3995  0.3180  0.3345
   21MOL    H93 8533   2.671   1.936   1.758  0.8957 -0.4415 -0.8681
   21MOL    H94 8534   2.540   2.046   1.755 -0.0493 -2.6229  1.6753
   21MOL    H95 8535   2.652   2.172   1.560  0.0828  0.7265  0.1727
   21MOL    H96 8536   2.786   1.970   1.485  1.9040 -1.9094  0.9791
   21MOL    H97 8537   2.874   1.973   1.629 -0.5006 -0.0168  0.1350
   21MOL    H98 8538   3.112   2.233   1.514 -1.7119  2.7026 -0.0102
   21MOL    H99 8539   3.090   2.101   1.629  0.5957  0.9702 -0.4509
   21MOL   H100 8540   2.995   2.256   1.643 -1.0246 -0.1549 -0.9827
   21MOL   H101 8541   2.773   2.204   1.348  0.0065 -0.1099 -1.4970
   21MOL   H102 8542   2.814   2.313   1.485 -0.5594 -0.3282  0.0283
   21MOL   H103 8543   2.920   2.303   1.345 -0.9615 -0.0156 -0.1109
   21MOL   H104 8544   3.064   1.961   1.415  0.3176  0.1299 -1.4096
   21MOL   H105 8545   2.912   1.984   1.324  1.0311  0.0087 -1.5384
   21MOL   H106 8546   3.054   2.093   1.311 -1.9147  2.9697  1.1965
   21MOL   C107 8547   2.741   2.206   1.755 -0.1078  0.0319  0.5621
   21MOL   C108 8548   2.674   2.347   1.756 -0.0642 -0.2972  0.0607
   21MOL   C109 8549   2.518   2.340   1.764 -0.2210  0.2068 -0.1820
   21MOL   C110 8550   2.414   2.442   1.692 -0.3380  0.3655 -0.3540
   21MOL   C111 8551   2.453   2.583   1.739  0.3050 -0.2830  0.1190
   21MOL   C112 8552   2.266   2.406   1.732  0.0293 -0.1644 -0.0785
   21MOL   C113 8553   2.429   2.434   1.538  0.0698 -0.3360 -0.8581
   21MOL   H114 8554   2.846   2.218   1.779  0.2421  1.0916 -1.3832
   21MOL   H115 8555   2.705   2.164   1.849 -0.8603 -1.5883 -0.4227
   21MOL   H116 8556   2.704   2.400   1.666 -2.8165 -1.4256 -1.5839
   21MOL   H117 8557   2.480   2.246   1.723 -0.8500  0.0145  0.8401
   21MOL   H118 8558   2.491   2.304   1.863  3.2635  0.6434  1.0182
   21MOL   H119 8559   2.471   2.586   1.846 -0.7585  1.7806  0.2628
   21MOL   H120 8560   2.535   2.630   1.686  1.3108 -1.0127  1.0096
   21MOL   H121 8561   2.371   2.653   1.726  0.7021  0.1668  0.0324
   21MOL   H122 8562   2.199   2.479   1.688 -0.2163 -0.6539 -0.5174
   21MOL   H123 8563   2.257   2.407   1.840  0.2460  1.5168 -0.0616
   21MOL   H124 8564   2.233   2.308   1.700 -2.7601  0.9266 -0.6359
   21MOL   H125 8565   2.410   2.333   1.501 -1.1611 -0.2703 -0.4373
   21MOL   H126 8566   2.530   2.458   1.506  0.6469  0.1103  1.2331
   21MOL   H127 8567   2.362   2.492   1.475 -1.1429 -1.2799 -0.4525
   21MOL   C128 8568   2.727   2.435   1.872  0.2472  0.2046  0.3600
   21MOL   C129 8569   2.867   2.503   1.855 -0.0971  0.4774  0.0504
   21MOL   C130 8570   2.853   2.626   1.756  0.6695 -0.4233 -0.2695
   21MOL   C131 8571   2.971   2.680   1.681  0.1275 -0.0919 -0.2935
   21MOL   C132 8572   2.930   2.809   1.605 -0.4798 -0.4831  0.1303
   21MOL   C133 8573   3.014   2.580   1.574 -0.1485 -0.3866  0.3089
   21MOL   C134 8574   3.086   2.710   1.773  0.5722 -0.3383 -0.4624
   21MOL   H135 8575   2.733   2.370   1.960  0.7243  0.6632  0.6706
   21MOL   H136 8576   2.648   2.503   1.904 -0.5422 -0.0978 -0.9351
   21MOL   H137 8577   2.921   2.423   1.805 -0.1620 -0.1059  0.9071
   21MOL   H138 8578   2.784   2.595   1.677 -0.6460  1.6393  0.0132
   21MOL   H139 8579   2.800   2.705   1.809  3.2539  1.1974 -0.0689
   21MOL   H140 8580   2.914   2.891   1.676  1.6312 -0.9782  1.2394
   21MOL   H141 8581   2.839   2.791   1.548 -0.4401  1.1705 -0.5023
   21MOL   H142 8582   3.006   2.852   1.539  0.8368 -0.0546  1.8694
   21MOL   H143 8583   3.082   2.630   1.505 -0.2959  0.9862  1.1352
   21MOL   H144 8584   2.932   2.538   1.516 -0.4198  0.5687 -0.0129
   21MOL   H145 8585   3.063   2.488   1.606  1.5591  0.2603 -0.3667
   21MOL   H146 8586   3.166   2.756   1.714 -1.3263  1.6728 -1.5712
   21MOL   H147 8587   3.060   2.781   1.852  0.4094 -1.5262  0.5613
   21MOL   H148 8588   3.125   2.622   1.823  1.2939  0.5683  0.6060
   21MOL   C149 8589   2.926   2.546   1.994  0.0870 -0.6008 -0.0534
   21MOL   C150 8590   2.982   2.436   2.091 -0.0633 -0.1363  0.0534
   21MOL   C151 8591   3.122   2.393   2.036 -0.5631  0.3804 -0.4202
   21MOL   C152 8592   3.164   2.243   2.047  0.0250  0.6866 -0.0318
   21MOL   C153 8593   3.181   2.195   2.198 -0.2984  0.0955  0.4107
   21MOL   C154 8594   3.304   2.225   1.974 -0.4936 -0.0486 -0.2698
   21MOL   C155 8595   3.066   2.156   1.956  0.2343  0.4497 -0.0014
   21MOL   H156 8596   2.836   2.595   2.031 -1.0961 -3.0249  0.3608
   21MOL   H157 8597   2.992   2.632   1.993 -1.4165  0.5720 -1.9472
   21MOL   H158 8598   2.920   2.346   2.096 -0.6361  0.2543  0.1250
   21MOL   H159 8599   3.205   2.448   2.081  0.9681 -1.1999 -1.2238
   21MOL   H160 8600   3.128   2.418   1.929 -3.2530 -0.8536 -0.8879
   21MOL   H161 8601   3.082   2.179   2.240 -0.1415  0.6744  1.0076
   21MOL   H162 8602   3.238   2.103   2.200 -0.2329  0.1252 -0.0358
   21MOL   H163 8603   3.231   2.262   2.268 -0.0885 -0.4817  0.8096
   21MOL   H164 8604   3.392   2.276   2.014 -1.4740  1.5377 -0.0760
   21MOL   H165 8605   3.288   2.256   1.871  2.5282  1.3896 -0.3731
   21MOL   H166 8606   3.335   2.121   1.965 -0.2452 -0.1299  1.3382
   21MOL   H167 8607   3.050   2.053   1.987  1.9634  0.4461  0.9096
   21MOL   H168 8608   2.967   2.203   1.956 -0.5151 -1.0467  2.7215
   21MOL   H169 8609   3.110   2.157   1.856  0.1595  0.7760 -0.0353
   21MOL   C170 8610   2.991   2.495   2.236  0.6984  0.2007  0.3711
   21MOL   C171 8611   2.855   2.489   2.313  0.0128  0.6486  0.1533
   21MOL   C172 8612   2.854   2.599   2.422 -0.0413 -0.1215 -0.3590
   21MOL   C173 8613   2.770   2.726   2.403 -0.0764 -0.2145  0.1283
   21MOL   C174 8614   2.627   2.699   2.455 -0.2355  0.5628 -0.6905
   21MOL   C175 8615   2.758   2.765   2.258 -0.8228 -0.3540  0.3347
   21MOL   C176 8616   2.823   2.853   2.474  0.3773 -1.0863  0.0688
   21MOL   H177 8617   3.033   2.596   2.234  0.2864  0.3623 -0.0811
   21MOL   H178 8618   3.066   2.432   2.285  0.2906 -1.0020 -0.5344
   21MOL   H179 8619   2.777   2.514   2.240  0.0211  1.6367  0.4627
   21MOL   H180 8620   2.819   2.557   2.516 -1.7240  0.4174 -0.7192
   21MOL   H181 8621   2.957   2.631   2.437 -0.4024  0.8756  0.0328
   21MOL   H182 8622   2.564   2.786   2.437 -0.5607  0.6279  0.6881
   21MOL   H183 8623   2.588   2.613   2.401  2.3408 -1.0758 -0.0265
   21MOL   H184 8624   2.611   2.671   2.559  1.1723 -0.8670 -0.8478
   21MOL   H185 8625   2.704   2.693   2.197 -0.7325  1.2901 -1.7179
   21MOL   H186 8626   2.703   2.858   2.244  0.1427  0.2646  0.5787
   21MOL   H187 8627   2.856   2.772   2.211 -1.8131  0.1725 -1.7285
   21MOL   H188 8628   2.768   2.946   2.464 -0.0140 -1.2554  0.6126
   21MOL   H189 8629   2.836   2.837   2.582  2.3664 -1.2728 -0.1703
   21MOL   H190 8630   2.922   2.877   2.435 -0.1944  2.9695  0.9066
   21MOL   C191 8631   2.835   2.345   2.373 -0.4617 -0.5112 -0.0829
   21MOL   C192 8632   2.690   2.296   2.384 -0.2159  0.9728 -0.5126
   21MOL   C193 8633   2.685   2.175   2.489 -0.3559  0.2710  0.6093
   21MOL   C194 8634   2.654   2.199   2.638 -0.2134  0.6348 -0.1438
   21MOL   C195 8635   2.775   2.247   2.724 -0.1015  0.4000  0.1452
   21MOL   C196 8636   2.608   2.064   2.691 -0.3500  0.8680 -0.1100
   21MOL   C197 8637   2.535   2.291   2.658 -0.3109  0.3212  0.0094
   21MOL   H198 8638   2.896   2.268   2.326  0.4151 -0.3504  0.7748
   21MOL   H199 8639   2.878   2.351   2.472 -0.8909 -1.3069  0.1615
   21MOL   H200 8640   2.626   2.377   2.419  0.1844  0.5000  1.3792
   21MOL   H201 8641   2.777   2.117   2.490 -0.4450  0.1372  1.0639
   21MOL   H202 8642   2.606   2.108   2.455  0.8244 -0.5795 -0.4801
   21MOL   H203 8643   2.817   2.345   2.701  3.0659 -0.9826 -0.3284
   21MOL   H204 8644   2.742   2.258   2.827 -3.7158 -1.4070 -0.7386
   21MOL   H205 8645   2.859   2.178   2.706  0.9775  2.0450 -1.3283
   21MOL   H206 8646   2.517   2.035   2.639  0.2584  0.1620 -0.8069
   21MOL   H207 8647   2.687   1.993   2.662  1.4179  3.7454 -2.7273
   21MOL   H208 8648   2.602   2.053   2.799  1.4908 -0.6744 -0.1325
   21MOL   H209 8649   2.553   2.392   2.621  0.0773  1.1427  2.3704
   21MOL   H210 8650   2.447   2.264   2.600  0.4049 -1.5647 -0.2429
   21MOL   H211 8651   2.497   2.301   2.760 -0.5631 -1.2497  0.0802
   21MOL   C212 8652   2.636   2.247   2.251 -0.2358  0.5983 -0.1555
   21MOL   C213 8653   2.477   2.239   2.232 -0.0218  0.8082  0.0517
   21MOL   C214 8654   2.434   2.130   2.118 -0.6788 -0.6516  0.3821
   21MOL   C215 8655   2.442   1.982   2.144 -0.4361 -0.6875  0.2858
   21MOL   C216 8656   2.591   1.933   2.176  0.3035 -0.5949  0.2872
   21MOL   C217 8657   2.348   1.933   2.267 -0.2610 -0.0353  0.2709
   21MOL   C218 8658   2.398   1.907   2.015  0.0248 -0.5270  0.1474
   21MOL   H219 8659   2.680   2.311   2.174 -0.6630  0.9930 -0.0792
   21MOL   H220 8660   2.682   2.149   2.243 -0.8636  0.1704  1.4044
   21MOL   H221 8661   2.437   2.200   2.325  0.5345  1.7588  0.6924
   21MOL   H222 8662   2.491   2.140   2.026  0.9144 -0.7795  1.3434
   21MOL   H223 8663   2.338   2.162   2.077  1.7525  3.6590 -2.3784
   21MOL   H224 8664   2.623   1.952   2.278 -0.1350  0.5999  0.2075
   21MOL   H225 8665   2.660   1.980   2.106  0.3594 -0.7840  0.2156
   21MOL   H226 8666   2.603   1.826   2.161  2.4464 -0.3428  0.0281
   21MOL   H227 8667   2.241   1.943   2.249  0.1065  0.2110 -2.0270
   21MOL   H228 8668   2.371   1.834   2.307  1.3004  0.1122 -0.2183
   21MOL   H229 8669   2.374   1.988   2.357 -1.4507  1.4357 -0.2758
   21MOL   H230 8670   2.293   1.930   1.992 -0.9114 -0.5167  4.0597
   21MOL   H231 8671   2.406   1.799   2.024 -0.3712 -0.3410  3.0677
   21MOL   H232 8672   2.461   1.921   1.927 -1.6099 -2.7661 -1.4252
   21MOL   C233 8673   2.411   2.379   2.207  0.1623 -0.4661  0.5628
   21MOL   C234 8674   2.265   2.419   2.238 -0.2642 -0.2545  0.2419
   21MOL   C235 8675   2.206   2.521   2.142  0.1768  0.0513  0.4250
   21MOL   C236 8676   2.245   2.667   2.156  0.1131 -0.8520  0.6806
   21MOL   C237 8677   2.189   2.742   2.032  0.1764  0.2056  0.3515
   21MOL   C238 8678   2.185   2.734   2.279 -0.3174 -0.7011  0.0709
   21MOL   C239 8679   2.400   2.692   2.163 -0.7913  0.3059 -0.2682
   21MOL   H240 8680   2.450   2.402   2.108 -1.8946  0.3164 -0.0779
   21MOL   H241 8681   2.475   2.445   2.266 -2.0406  0.2146  2.2256
   21MOL   H242 8682   2.272   2.467   2.336 -0.1692  0.3454 -0.0591
   21MOL   H243 8683   2.234   2.490   2.041  0.1288  2.9398 -0.5330
   21MOL   H244 8684   2.099   2.528   2.156  0.2673 -2.1967  2.4471
   21MOL   H245 8685   2.201   2.851   2.031  0.3094  0.1862 -0.3022
   21MOL   H246 8686   2.089   2.705   2.013 -0.7670  2.2422  1.1535
   21MOL   H247 8687   2.256   2.717   1.950 -1.3824 -1.5185 -0.4183
   21MOL   H248 8688   2.077   2.722   2.289 -0.5923  1.0609 -0.6779
   21MOL   H249 8689   2.225   2.701   2.375  1.4069  1.0512 -0.0034
   21MOL   H250 8690   2.211   2.840   2.275  1.0121 -1.0426 -0.8593
   21MOL   H251 8691   2.441   2.649   2.255  0.0167  0.1762 -0.6916
   21MOL   H252 8692   2.458   2.650   2.082 -0.9871  1.3953 -0.9716
   21MOL   H253 8693   2.410   2.800   2.166  3.4682 -0.0186 -0.6952
   21MOL   C254 8694   2.170   2.300   2.250 -0.1261  0.1670  0.1935
   21MOL   C255 8695   2.065   2.312   2.360  0.7328  0.1671  0.7763
   21MOL   C256 8696   2.137   2.305   2.501 -0.3763  0.2883  0.2012
   21MOL   C257 8697   2.093   2.411   2.611 -0.9054 -0.5103  0.4559
   21MOL   C258 8698   2.102   2.564   2.570  0.2914 -0.2805  0.3184
   21MOL   C259 8699   2.197   2.398   2.727  0.0092 -0.6865 -0.4335
   21MOL   C260 8700   1.952   2.389   2.678 -0.0192 -0.0086 -0.2397
   21MOL   H261 8701   2.222   2.211   2.285  2.6901  1.3615 -0.7899
   21MOL   H262 8702   2.130   2.282   2.150  1.0043  0.7006 -0.3559
   21MOL   H263 8703   2.009   2.406   2.352  0.3226 -0.2864 -2.1228
   21MOL   H264 8704   2.109   2.205   2.534 -1.0076  0.5296  0.4117
   21MOL   H265 8705   2.246   2.300   2.503 -0.4279 -0.8352  0.4687
   21MOL   H266 8706   2.063   2.625   2.651  2.3567  1.4648  0.0453
   21MOL   H267 8707   2.039   2.577   2.483  1.5691  0.9744 -0.4377
   21MOL   H268 8708   2.199   2.611   2.550 -0.1955  1.2523  1.4048
   21MOL   H269 8709   2.199   2.297   2.768 -1.3929  0.0720  1.6061
   21MOL   H270 8710   2.169   2.468   2.806 -2.0529  1.7673 -3.2306
   21MOL   H271 8711   2.296   2.430   2.696  0.5699 -0.3982  1.6106
   21MOL   H272 8712   1.874   2.424   2.611 -0.8653 -1.9368 -0.2769
   21MOL   H273 8713   1.939   2.283   2.701 -0.5421  0.0430 -0.3018
   21MOL   H274 8714   1.957   2.443   2.772 -0.6764 -0.1431 -0.1292
   21MOL   C275 8715   1.953   2.203   2.348  0.4756  0.4563  0.2484
   21MOL   C276 8716   1.851   2.227   2.234 -0.3027  0.5283  0.4297
   21MOL   C277 8717   1.889   2.127   2.121 -0.2781  0.0059 -0.3469
   21MOL   C278 8718   1.847   2.145   1.974  0.5553  0.1997  0.0493
   21MOL   C279 8719   1.909   2.272   1.915 -0.4685 -0.0227  0.6383
   21MOL   C280 8720   1.913   2.030   1.894  0.7647  0.4357  0.1178
   21MOL   C281 8721   1.695   2.147   1.945 -0.1692  0.1530  0.9373
   21MOL   H282 8722   1.995   2.102   2.346 -0.8987 -0.1212  0.4601
   21MOL   H283 8723   1.897   2.210   2.442  0.4330 -1.8277  0.4339
   21MOL   H284 8724   1.870   2.324   2.189 -1.6741  0.8329  0.4701
   21MOL   H285 8725   1.851   2.028   2.148 -0.3058 -0.0506 -0.5870
   21MOL   H286 8726   1.995   2.104   2.129 -0.3010 -0.3091 -0.8916
   21MOL   H287 8727   2.012   2.284   1.949  0.9886  0.5122 -3.7420
   21MOL   H288 8728   1.891   2.274   1.808  0.1693  0.5310  0.5383
   21MOL   H289 8729   1.867   2.363   1.959  1.8830  0.2021  2.5547
   21MOL   H290 8730   1.888   2.022   1.788  1.6044 -0.0318 -0.0538
   21MOL   H291 8731   1.891   1.931   1.933 -1.7488 -0.8435 -4.1373
   21MOL   H292 8732   2.022   2.032   1.898  0.8247  0.9022 -1.4025
   21MOL   H293 8733   1.652   2.246   1.959 -2.4952 -0.6571 -0.2846
   21MOL   H294 8734   1.641   2.085   2.018 -0.0813 -0.4557  0.4877
   21MOL   H295 8735   1.672   2.124   1.842  1.8193  1.7209  0.1099
   21MOL   C296 8736   1.701   2.213   2.279 -0.2255  0.0375 -0.3740
   21MOL   C297 8737   1.637   2.334   2.354 -0.1193  0.2457  0.0112
   21MOL   C298 8738   1.507   2.287   2.428 -0.1964  0.3151  0.4533
   21MOL   C299 8739   1.512   2.254   2.584  0.2508  0.0043 -0.0164
   21MOL   C300 8740   1.611   2.143   2.617 -0.0494  0.7116  0.5832
   21MOL   C301 8741   1.530   2.388   2.667 -0.1020  0.4482 -0.6179
   21MOL   C302 8742   1.364   2.204   2.608 -0.2443  0.0585 -0.5325
   21MOL   H303 8743   1.695   2.126   2.345  0.3870 -0.0422 -0.4170
   21MOL   H304 8744   1.628   2.187   2.202  1.8788  0.3199 -2.5163
   21MOL   H305 8745   1.715   2.380   2.415 -0.3347 -1.4131  1.5734
   21MOL   H306 8746   1.459   2.203   2.378 -0.4522 -0.1108  1.3856
   21MOL   H307 8747   1.433   2.367   2.427  0.2055  0.6738 -1.0238
   21MOL   H308 8748   1.582   2.055   2.560  1.1195  1.5939 -1.4160
   21MOL   H309 8749   1.709   2.181   2.588  0.8359 -1.9037  0.0182
   21MOL   H310 8750   1.621   2.127   2.725  1.7490  1.1884  0.5018
   21MOL   H311 8751   1.622   2.439   2.640  0.2016  0.5378  0.5568
   21MOL   H312 8752   1.447   2.456   2.651 -2.7327 -2.2673  0.9254
   21MOL   H313 8753   1.535   2.353   2.770  0.1998  1.0569 -0.4220
   21MOL   H314 8754   1.288   2.278   2.582  0.9556  1.6305  0.2713
   21MOL   H315 8755   1.343   2.117   2.547 -1.6452  0.4887 -0.6938
   21MOL   H316 8756   1.346   2.179   2.712  1.6062  1.4638  0.1535
   21MOL   C317 8757   1.601   2.434   2.245 -0.2301  0.4619 -0.3710
   21MOL   C318 8758   1.567   2.577   2.280  0.0272 -0.1108 -0.4142
   21MOL   C319 8759   1.703   2.655   2.300 -0.9939  0.1088 -0.1323
   21MOL   C320 8760   1.715   2.774   2.393 -0.1087  0.2566 -0.3160
   21MOL   C321 8761   1.611   2.886   2.359 -0.9938 -0.5387 -0.2787
   21MOL   C322 8762   1.857   2.830   2.403  0.0915 -0.2972  0.5239
   21MOL   C323 8763   1.686   2.732   2.542 -0.4603  0.5304  0.0984
   21MOL   H324 8764   1.683   2.439   2.174 -0.3300 -3.3047 -0.8546
   21MOL   H325 8765   1.520   2.394   2.184 -0.8339 -0.4673  1.0203
   21MOL   H326 8766   1.498   2.570   2.364  0.5056 -0.3357 -0.0325
   21MOL   H327 8767   1.729   2.684   2.198  0.1354  1.2668  0.4738
   21MOL   H328 8768   1.780   2.582   2.325  2.4318  2.8763 -2.0792
   21MOL   H329 8769   1.509   2.849   2.352 -1.2208 -0.1550  1.0015
   21MOL   H330 8770   1.644   2.942   2.270  1.5568  1.4915  1.8485
   21MOL   H331 8771   1.615   2.959   2.439  0.3759 -1.6803  0.7181
   21MOL   H332 8772   1.885   2.889   2.315 -0.7309 -2.3781 -1.1836
   21MOL   H333 8773   1.861   2.908   2.479 -2.3008  0.1503  0.2337
   21MOL   H334 8774   1.923   2.748   2.429  4.2333  2.6594 -0.2384
   21MOL   H335 8775   1.703   2.812   2.613  0.1157  0.0571  0.4930
   21MOL   H336 8776   1.748   2.645   2.562 -0.6411  0.7780  1.7611
   21MOL   H337 8777   1.580   2.706   2.547 -0.3596 -0.2362 -1.3565
   21MOL   C338 8778   1.494   2.637   2.154  0.6699  0.1189  0.0612
   21MOL   C339 8779   1.345   2.597   2.133 -0.1736  0.3837  0.0048
   21MOL   C340 8780   1.314   2.625   1.980  0.0146 -0.6726  0.9383
   21MOL   C341 8781   1.279   2.504   1.880 -0.1776 -1.1012 -0.0013
   21MOL   C342 8782   1.262   2.548   1.737  0.3205  0.3200 -1.7631
   21MOL   C343 8783   1.389   2.396   1.882  0.2836  0.4196 -0.5472
   21MOL   C344 8784   1.146   2.445   1.931 -0.1300 -0.1743 -0.7954
   21MOL   H345 8785   1.549   2.613   2.064  1.7167 -2.0890  1.2349
   21MOL   H346 8786   1.486   2.746   2.157 -0.4342  0.1901 -3.4961
   21MOL   H347 8787   1.343   2.488   2.140  2.3851  0.4187  1.7692
   21MOL   H348 8788   1.391   2.685   1.933  1.0564 -0.4497  2.8636
   21MOL   H349 8789   1.227   2.687   1.959  0.7043  0.5898  1.7595
   21MOL   H350 8790   1.248   2.466   1.667  0.6410 -2.5982  1.3998
   21MOL   H351 8791   1.179   2.618   1.731 -0.1097 -0.1390 -1.2064
   21MOL   H352 8792   1.356   2.597   1.710  0.4072  0.3094 -1.4863
   21MOL   H353 8793   1.367   2.320   1.807 -1.6815  0.6917 -0.2735
   21MOL   H354 8794   1.486   2.440   1.861  0.7291 -0.0990  0.3728
   21MOL   H355 8795   1.391   2.348   1.981 -1.8640  1.1632 -0.1047
   21MOL   H356 8796   1.154   2.410   2.034  1.1660  0.9726 -0.4992
   21MOL   H357 8797   1.070   2.523   1.924 -1.6391 -1.4262  1.1481
   21MOL   H358 8798   1.114   2.362   1.868 -0.8828 -1.6455  1.4682
   21MOL   C359 8799   1.245   2.667   2.219  0.0637 -0.2068 -0.1907
   21MOL   C360 8800   1.106   2.626   2.224  0.5864 -0.5257 -0.1249
   21MOL   C361 8801   1.019   2.732   2.303 -0.3090  0.0660 -0.1556
   21MOL   C362 8802   0.922   2.818   2.210 -0.6109 -0.6558 -0.6629
   21MOL   C363 8803   1.012   2.907   2.119 -0.0668  0.6008 -0.5576
   21MOL   C364 8804   0.832   2.893   2.308  0.5255  1.0974 -0.1764
   21MOL   C365 8805   0.832   2.719   2.126  0.0157 -1.1142 -0.5326
   21MOL   H366 8806   1.262   2.772   2.197  1.8319 -0.1136  1.5186
   21MOL   H367 8807   1.288   2.659   2.319  2.6125  1.4523 -1.1120
   21MOL   H368 8808   1.086   2.626   2.117  1.8500  0.5331 -0.3647
   21MOL   H369 8809   0.961   2.677   2.378  0.7387  0.2215  0.7806
   21MOL   H370 8810   1.086   2.788   2.368  0.1666  0.3422 -0.8865
   21MOL   H371 8811   0.955   2.972   2.052  1.1101 -1.0255 -3.2249
   21MOL   H372 8812   1.078   2.978   2.168 -0.1928  0.7132 -0.5506
   21MOL   H373 8813   1.076   2.848   2.053  1.9765  1.5206  0.5471
   21MOL   H374 8814   0.777   2.817   2.363 -0.1247 -1.4892 -4.1397
   21MOL   H375 8815   0.760   2.952   2.252  0.7325  1.9722  0.4685
   21MOL   H376 8816   0.900   2.958   2.363  0.1843  1.4905 -0.2202
   21MOL   H377 8817   0.892   2.658   2.058  0.1040 -2.3367  0.6223
   21MOL   H378 8818   0.755   2.773   2.071 -0.3535 -1.4159 -0.3128
   21MOL   H379 8819   0.776   2.653   2.192 -0.6955 -1.1558 -1.1786
   21MOL   C380 8820   1.093   2.483   2.289  0.0040  0.1486 -0.1232
   21MOL   C381 8821   0.952   2.418   2.302 -0.4055  0.0743  0.4505
   21MOL   C382 8822   0.958   2.297   2.397  0.1919  0.6957 -0.8710
   21MOL   C383 8823   0.889   2.308   2.534  0.0258  0.6477 -0.4689
   21MOL   C384 8824   0.902   2.170   2.605 -0.5800 -0.3716  0.9485
   21MOL   C385 8825   0.738   2.341   2.528  0.4045 -0.0987  0.3201
   21MOL   C386 8826   0.963   2.414   2.617  0.4407  0.2680 -0.1886
   21MOL   H387 8827   1.141   2.482   2.387 -0.5728 -0.7635  0.1508
   21MOL   H388 8828   1.156   2.412   2.235  0.3062  1.1077 -1.0472
   21MOL   H389 8829   0.881   2.488   2.346 -0.1010 -0.3994  1.7080
   21MOL   H390 8830   0.932   2.204   2.347 -1.4706  1.3944 -1.3143
   21MOL   H391 8831   1.060   2.286   2.434  0.3591  2.1094 -0.9002
   21MOL   H392 8832   0.849   2.093   2.549  1.9885  0.7881 -3.3032
   21MOL   H393 8833   1.002   2.127   2.602 -0.2441  0.3217  1.9310
   21MOL   H394 8834   0.865   2.165   2.707  0.4345 -1.9085  1.2573
   21MOL   H395 8835   0.717   2.438   2.484  1.3772  0.1062  0.2876
   21MOL   H396 8836   0.696   2.342   2.629 -2.0647 -0.6158 -0.6793
   21MOL   H397 8837   0.673   2.261   2.493  3.0978 -2.1186 -0.2235
   21MOL   H398 8838   0.983   2.510   2.569  1.4310 -0.7658 -1.9158
   21MOL   H399 8839   1.061   2.375   2.641  1.0120  0.4923 -2.0682
   21MOL   H400 8840   0.921   2.439   2.715  2.6314 -0.8036  1.0426
   21MOL   C401 8841   0.904   2.378   2.164  0.5631 -1.1021 -0.7973
   21MOL   C402 8842   0.752   2.363   2.148  0.2636  0.3337  0.9233
   21MOL   C403 8843   0.703   2.317   2.006 -0.3831  0.4784  0.2033
   21MOL   C404 8844   0.558   2.357   1.961 -0.8969  0.2405 -0.6365
   21MOL   C405 8845   0.555   2.507   1.931  0.2591 -0.0385  0.0342
   21MOL   C406 8846   0.459   2.331   2.076  0.2420 -0.3973 -0.2021
   21MOL   C407 8847   0.515   2.280   1.835  0.5071 -0.2862  0.4149
   21MOL   H408 8848   0.932   2.454   2.092  1.7843 -0.2426  0.5638
   21MOL   H409 8849   0.955   2.294   2.117  1.6907 -1.2322  0.6248
   21MOL   H410 8850   0.710   2.303   2.228  1.5654 -1.4594  0.3032
   21MOL   H411 8851   0.717   2.209   2.008  2.5047  0.8224  2.6304
   21MOL   H412 8852   0.768   2.358   1.928 -0.2425  1.1126  0.6503
   21MOL   H413 8853   0.449   2.531   1.917  0.5828  2.1217  1.1142
   21MOL   H414 8854   0.613   2.540   1.846 -1.0376 -1.7711 -1.5714
   21MOL   H415 8855   0.586   2.558   2.022 -2.5251  1.8921 -0.0247
   21MOL   H416 8856   0.460   2.223   2.083 -0.2652 -0.3241  1.1591
   21MOL   H417 8857   0.357   2.346   2.040  0.5470  1.8236 -0.2647
   21MOL   H418 8858   0.480   2.379   2.172 -0.1036 -1.1476  0.2465
   21MOL   H419 8859   0.511   2.173   1.853  1.8177 -0.8034 -2.1340
   21MOL   H420 8860   0.421   2.313   1.791 -0.3599 -1.2638  1.5047
   21MOL   H421 8861   0.598   2.297   1.768  1.0411 -1.9013  0.6473
   21MOL   H422 8862   0.717   2.461   2.179  0.6083  0.9634 -0.6221
   22MOL     C1 8863   5.125   1.885   2.257  0.6848 -0.4341  0.4424
   22MOL     C2 8864   5.132   1.780   2.145  0.0882 -0.6431 -0.4426
   22MOL     C3 8865   5.239   1.671   2.177  0.3622 -0.2499  0.3187
   22MOL     C4 8866   5.191   1.531   2.236 -0.1750  0.0666 -0.6442
   22MOL     C5 8867   5.106   1.454   2.135  0.0725 -0.4738 -0.3844
   22MOL     C6 8868   5.324   1.459   2.256 -0.5286 -0.1674 -0.1121
   22MOL     C7 8869   5.123   1.548   2.374  0.1170  0.0141  0.4084
   22MOL     H8 8870   5.216   1.944   2.247 -0.7924  1.6297 -1.4802
   22MOL     H9 8871   5.050   1.964   2.249 -1.0090 -1.9912  0.5136
   22MOL    H10 8872   5.037   1.730   2.165 -0.1670 -0.4902 -1.2861
   22MOL    H11 8873   5.298   1.716   2.257  1.2794  1.3075 -1.1904
   22MOL    H12 8874   5.298   1.666   2.085 -0.2780 -2.1178 -0.0089
   22MOL    H13 8875   5.114   1.352   2.172 -0.7894  0.7996  3.5769
   22MOL    H14 8876   5.153   1.476   2.039 -2.4287  1.9693 -1.1191
   22MOL    H15 8877   5.001   1.482   2.132 -0.1752 -1.3568 -0.1122
   22MOL    H16 8878   5.305   1.371   2.318 -0.2371  0.4086  0.8135
   22MOL    H17 8879   5.366   1.413   2.166 -0.5297 -1.8319  0.7080
   22MOL    H18 8880   5.389   1.523   2.316  0.7861  0.1712 -1.8467
   22MOL    H19 8881   5.111   1.454   2.429  0.8095 -0.9925 -1.1301
   22MOL    H20 8882   5.023   1.589   2.361  1.4101  3.1125 -0.1843
   22MOL    H21 8883   5.184   1.611   2.439  0.6121  0.8381 -0.8356
   22MOL    H22 8884   5.128   1.842   2.357 -1.6516 -2.3829 -0.2821
   22MOL    C23 8885   5.150   1.843   2.003 -0.4135 -0.9310 -0.5691
   22MOL    C24 8886   5.053   1.788   1.900 -0.2196  0.2680  0.0451
   22MOL    C25 8887   5.095   1.826   1.756 -0.1318 -0.3127  0.0736
   22MOL    C26 8888   5.217   1.758   1.694 -0.7847 -0.5484  0.1608
   22MOL    C27 8889   5.236   1.612   1.742 -0.4612  0.4188 -0.3023
   22MOL    C28 8890   5.198   1.750   1.545  0.1041 -0.4505 -0.4694
   22MOL    C29 8891   5.351   1.828   1.712  0.1487 -0.0329 -0.3886
   22MOL    H30 8892   5.129   1.949   2.006 -2.1457 -1.2242 -2.0185
   22MOL    H31 8893   5.258   1.848   1.985 -0.8085  0.5421 -2.5874
   22MOL    H32 8894   5.054   1.679   1.896  0.7034  0.2085  1.5691
   22MOL    H33 8895   5.105   1.934   1.751  2.1699 -0.5934 -2.5613
   22MOL    H34 8896   5.012   1.798   1.691  0.3532  0.2628 -0.7901
   22MOL    H35 8897   5.318   1.567   1.687  0.2165  1.0019  0.2207
   22MOL    H36 8898   5.255   1.634   1.847 -1.1907  1.6580 -0.4121
   22MOL    H37 8899   5.138   1.563   1.743 -1.3502  2.1641 -0.6160
   22MOL    H38 8900   5.133   1.668   1.514  1.2603 -1.9304  0.8988
   22MOL    H39 8901   5.150   1.839   1.505 -0.6791 -0.8723 -0.4856
   22MOL    H40 8902   5.291   1.721   1.497  0.8779  0.0183  0.7226
   22MOL    H41 8903   5.359   1.856   1.817 -0.8413  2.1729 -0.8723
   22MOL    H42 8904   5.355   1.920   1.653 -2.6082  1.6730  1.9230
   22MOL    H43 8905   5.447   1.780   1.697  2.1096  3.1527  1.6054
   22MOL    C44 8906   4.909   1.838   1.934 -0.4044 -0.1805 -0.1267
   22MOL    C45 8907   4.795   1.814   1.834 -0.7937 -0.3680 -0.0609
   22MOL    C46 8908   4.779   1.938   1.744  0.0090  0.0667  0.3561
   22MOL    C47 8909   4.712   1.922   1.608 -0.3608  0.4052  0.9515
   22MOL    C48 8910   4.586   1.838   1.595 -0.3717  0.3948  0.7633
   22MOL    C49 8911   4.823   1.867   1.520  0.1993 -0.2487  0.0065
   22MOL    C50 8912   4.678   2.063   1.563  0.9669 -0.7326 -0.1381
   22MOL    H51 8913   4.891   1.780   2.024  1.6502 -0.7442 -0.0416
   22MOL    H52 8914   4.902   1.942   1.965 -1.7022  0.0846 -1.2871
   22MOL    H53 8915   4.814   1.736   1.761  2.0048  0.5655 -0.3869
   22MOL    H54 8916   4.877   1.984   1.735  0.7416 -0.8611  3.1025
   22MOL    H55 8917   4.722   2.012   1.801  0.3868 -0.1667  1.0322
   22MOL    H56 8918   4.561   1.828   1.490  3.9540  0.3215 -0.3457
   22MOL    H57 8919   4.495   1.880   1.639 -0.6879  1.0550 -0.4953
   22MOL    H58 8920   4.599   1.733   1.622  1.8271 -0.0128 -1.6753
   22MOL    H59 8921   4.920   1.916   1.528 -0.3036  0.9482 -0.9921
   22MOL    H60 8922   4.844   1.764   1.549  1.1892 -0.5226 -1.6087
   22MOL    H61 8923   4.785   1.877   1.418  4.9491 -1.0110 -1.9484
   22MOL    H62 8924   4.611   2.110   1.635  0.9118  1.3279 -1.5056
   22MOL    H63 8925   4.762   2.130   1.551  0.6125 -0.4968 -1.4620
   22MOL    H64 8926   4.630   2.050   1.466  1.8607 -0.2581 -0.6482
   22MOL    C65 8927   4.669   1.783   1.919  0.4601 -0.5687  0.4064
   22MOL    C66 8928   4.644   1.632   1.971 -0.4031 -0.0817 -0.0756
   22MOL    C67 8929   4.621   1.525   1.855  0.6955  0.1471  0.3110
   22MOL    C68 8930   4.712   1.401   1.845  0.1392  0.2187  0.1919
   22MOL    C69 8931   4.863   1.438   1.848  0.0319  0.0520 -0.1401
   22MOL    C70 8932   4.685   1.310   1.962  1.2247 -0.3374  0.7195
   22MOL    C71 8933   4.685   1.319   1.717 -0.2096  0.0307  0.1880
   22MOL    H72 8934   4.659   1.855   2.000 -0.5016  1.0144 -1.0599
   22MOL    H73 8935   4.580   1.812   1.861  0.8321 -0.6283 -0.2044
   22MOL    H74 8936   4.733   1.614   2.032 -0.5407 -0.2761  0.0672
   22MOL    H75 8937   4.644   1.571   1.759 -1.4042 -0.6593 -0.5893
   22MOL    H76 8938   4.515   1.506   1.842  0.6987 -0.1655  0.7531
   22MOL    H77 8939   4.933   1.357   1.867  1.2013  1.6727  2.7662
   22MOL    H78 8940   4.887   1.486   1.753  0.8326 -1.4082 -0.6892
   22MOL    H79 8941   4.867   1.518   1.922 -1.5543  0.3422 -0.3477
   22MOL    H80 8942   4.600   1.243   1.944  0.1452  0.5528  2.4479
   22MOL    H81 8943   4.652   1.358   2.054  0.1072 -0.5830  0.4568
   22MOL    H82 8944   4.770   1.243   1.980  1.6230 -0.3269 -1.0079
   22MOL    H83 8945   4.745   1.228   1.717 -0.8652 -0.4120  1.5948
   22MOL    H84 8946   4.690   1.382   1.628 -1.3956  1.0287  0.8025
   22MOL    H85 8947   4.582   1.285   1.717 -0.9559  2.1633  2.4086
   22MOL    C86 8948   4.522   1.619   2.065 -0.3240  0.1905  0.4193
   22MOL    C87 8949   4.520   1.679   2.208 -0.3170  0.4087 -0.6450
   22MOL    C88 8950   4.597   1.584   2.297  0.0761 -0.1730  0.0271
   22MOL    C89 8951   4.684   1.638   2.413  0.0836  0.2326 -0.1043
   22MOL    C90 8952   4.600   1.680   2.527 -0.4543 -0.3754  0.2706
   22MOL    C91 8953   4.775   1.756   2.361  0.3207 -0.0496 -0.9949
   22MOL    C92 8954   4.776   1.524   2.457 -0.3932  0.3985 -0.0165
   22MOL    H93 8955   4.488   1.516   2.072 -2.0420  0.6262 -1.1851
   22MOL    H94 8956   4.448   1.663   1.999 -1.4082  1.2739  2.3034
   22MOL    H95 8957   4.562   1.779   2.198 -0.8469  0.6521 -0.4483
   22MOL    H96 8958   4.654   1.517   2.233  0.1647  0.1696 -0.2515
   22MOL    H97 8959   4.530   1.510   2.341  1.1054 -0.7307  0.6745
   22MOL    H98 8960   4.566   1.781   2.506  0.5418  0.0435  0.6463
   22MOL    H99 8961   4.658   1.689   2.619  1.3791  0.9713 -0.9773
   22MOL   H100 8962   4.509   1.624   2.544 -0.8843  0.3196  0.2683
   22MOL   H101 8963   4.729   1.846   2.320 -0.4516 -0.8720 -1.9374
   22MOL   H102 8964   4.839   1.782   2.445 -0.6176 -2.0124  0.3672
   22MOL   H103 8965   4.843   1.718   2.285  0.2620 -1.7584 -0.2188
   22MOL   H104 8966   4.729   1.428   2.480  0.6645 -0.3680 -0.9744
   22MOL   H105 8967   4.838   1.486   2.375  0.7563  1.1380  0.5055
   22MOL   H106 8968   4.856   1.548   2.527 -0.4173  0.3778  0.0179
   22MOL   C107 8969   4.374   1.703   2.267 -0.1067 -0.3476 -0.2321
   22MOL   C108 8970   4.294   1.819   2.201 -0.3563  0.6526 -0.3619
   22MOL   C109 8971   4.139   1.808   2.216  0.0089  0.0848  0.7176
   22MOL   C110 8972   4.054   1.742   2.097 -0.6435  0.2486  0.2036
   22MOL   C111 8973   4.090   1.599   2.084 -0.0518 -0.7527 -0.6827
   22MOL   C112 8974   4.069   1.808   1.955  0.0514  0.6667  0.0010
   22MOL   C113 8975   3.901   1.750   2.137 -0.0472 -0.0550  0.0205
   22MOL   H114 8976   4.381   1.722   2.374  1.2665  1.6826 -0.6516
   22MOL   H115 8977   4.321   1.608   2.276 -0.3492 -0.0244  2.3052
   22MOL   H116 8978   4.306   1.824   2.093  0.1444  0.5703 -0.3136
   22MOL   H117 8979   4.107   1.764   2.310 -1.8004 -0.9116 -0.3336
   22MOL   H118 8980   4.104   1.911   2.228  1.1512  0.5225  0.3957
   22MOL   H119 8981   4.196   1.588   2.058 -0.0052 -0.7528 -0.4867
   22MOL   H120 8982   4.080   1.548   2.179  0.3939  1.8388  0.7838
   22MOL   H121 8983   4.042   1.540   2.005  0.9395 -1.3101 -0.8758
   22MOL   H122 8984   4.029   1.909   1.957  1.9802  1.4589 -0.9237
   22MOL   H123 8985   4.005   1.755   1.884  0.4274 -2.8022  2.1131
   22MOL   H124 8986   4.171   1.820   1.921  0.1732  0.8992  0.4438
   22MOL   H125 8987   3.850   1.682   2.069 -1.0570  0.7585 -0.0497
   22MOL   H126 8988   3.851   1.847   2.134 -1.5761 -0.8227  0.1503
   22MOL   H127 8989   3.889   1.712   2.238 -0.1041 -1.1526 -0.3927
   22MOL   C128 8990   4.346   1.963   2.225 -0.4239  0.0862  0.0796
   22MOL   C129 8991   4.383   2.020   2.367 -1.3434  0.8464  0.4229
   22MOL   C130 8992   4.453   2.153   2.359 -0.1978 -0.0774 -0.4595
   22MOL   C131 8993   4.599   2.182   2.333 -0.0485 -0.0171 -0.7042
   22MOL   C132 8994   4.684   2.122   2.447  0.2636  0.4433  0.5532
   22MOL   C133 8995   4.610   2.338   2.344 -0.8236 -0.1483  0.0266
   22MOL   C134 8996   4.649   2.130   2.196 -0.2331 -0.3594  0.5539
   22MOL   H135 8997   4.269   2.026   2.181 -1.0269  1.2669  2.6980
   22MOL   H136 8998   4.422   1.978   2.148  0.5616  0.9543  1.1984
   22MOL   H137 8999   4.454   1.951   2.412  0.1726  2.2245  0.1884
   22MOL   H138 9000   4.389   2.216   2.298  0.8014 -0.7261 -2.2115
   22MOL   H139 9001   4.438   2.192   2.460  2.9783 -0.1638  0.1050
   22MOL   H140 9002   4.653   2.181   2.533 -1.4234  0.8499 -0.2859
   22MOL   H141 9003   4.791   2.133   2.430  0.9649 -1.8460  3.2731
   22MOL   H142 9004   4.661   2.019   2.472  0.7078 -0.0219 -0.8636
   22MOL   H143 9005   4.584   2.373   2.443 -0.2407  0.0980  0.0934
   22MOL   H144 9006   4.558   2.395   2.266 -2.8291  0.1311  1.5330
   22MOL   H145 9007   4.715   2.367   2.338 -1.0796  0.8561  0.2694
   22MOL   H146 9008   4.641   2.021   2.195  2.6678 -0.6293 -2.0868
   22MOL   H147 9009   4.600   2.163   2.104  0.4600  1.0514  0.6893
   22MOL   H148 9010   4.755   2.153   2.188 -0.5315  0.6227 -0.7675
   22MOL   C149 9011   4.249   2.029   2.446  0.3366 -0.0628  0.0109
   22MOL   C150 9012   4.242   2.092   2.586  0.8018  0.4741 -0.7510
   22MOL   C151 9013   4.345   2.032   2.681 -0.2091 -0.0088 -0.0945
   22MOL   C152 9014   4.324   1.908   2.763 -0.3812  0.0964  0.0734
   22MOL   C153 9015   4.292   1.784   2.682 -0.1850  0.6752 -0.3158
   22MOL   C154 9016   4.207   1.931   2.864 -0.3546  0.6887  0.2515
   22MOL   C155 9017   4.459   1.894   2.841  0.6666  0.9377 -0.4940
   22MOL   H156 9018   4.216   1.925   2.448  3.6519 -1.1408  1.4700
   22MOL   H157 9019   4.179   2.077   2.378 -0.4975 -0.6011  0.4821
   22MOL   H158 9020   4.149   2.070   2.639  1.6911  0.2299  0.7502
   22MOL   H159 9021   4.388   2.117   2.734  0.9005 -0.9503  0.5241
   22MOL   H160 9022   4.431   2.009   2.617  0.5794 -2.0831  1.6676
   22MOL   H161 9023   4.308   1.702   2.752  1.6397 -0.0299 -1.5270
   22MOL   H162 9024   4.186   1.779   2.658 -0.0427 -2.8596 -0.3474
   22MOL   H163 9025   4.341   1.774   2.585 -0.5832  1.7043 -0.6336
   22MOL   H164 9026   4.231   2.026   2.912  0.9450  1.1863 -1.3310
   22MOL   H165 9027   4.197   1.850   2.936 -0.9915 -0.2446 -0.8769
   22MOL   H166 9028   4.114   1.928   2.808  1.0491 -0.1103 -2.1405
   22MOL   H167 9029   4.470   1.984   2.900  0.9291 -0.1475  1.1493
   22MOL   H168 9030   4.453   1.803   2.901  2.1546  0.2762 -1.3245
   22MOL   H169 9031   4.535   1.865   2.769  1.3092  0.6526  0.2908
   22MOL   C170 9032   4.235   2.246   2.582  0.8032  0.2421 -0.0577
   22MOL   C171 9033   4.108   2.304   2.651  0.0456 -0.0196 -0.4734
   22MOL   C172 9034   3.983   2.260   2.578  0.0064 -0.3435  0.9123
   22MOL   C173 9035   3.856   2.208   2.654 -0.2261  0.2185  0.0127
   22MOL   C174 9036   3.895   2.066   2.712  0.2562 -0.4815  0.2886
   22MOL   C175 9037   3.732   2.206   2.549  0.4170 -0.0075 -0.5978
   22MOL   C176 9038   3.809   2.303   2.770 -1.0643 -0.4749  0.0524
   22MOL   H177 9039   4.236   2.287   2.482  2.2138  0.7511  0.1625
   22MOL   H178 9040   4.310   2.297   2.643 -1.5848  2.8039  0.8522
   22MOL   H179 9041   4.104   2.257   2.749  2.8467 -1.3671 -0.9558
   22MOL   H180 9042   3.947   2.350   2.528 -0.3216 -0.3233  1.1845
   22MOL   H181 9043   3.999   2.193   2.493  0.3481 -0.3892  1.0124
   22MOL   H182 9044   3.964   2.073   2.797 -0.4884  0.4968  0.8231
   22MOL   H183 9045   3.807   2.017   2.754  0.5240 -2.2690 -1.1482
   22MOL   H184 9046   3.942   1.993   2.645 -1.0587 -0.8933 -0.1967
   22MOL   H185 9047   3.696   2.306   2.522  0.7500 -0.0757 -1.3087
   22MOL   H186 9048   3.781   2.174   2.457  1.0063 -0.7791 -0.0274
   22MOL   H187 9049   3.653   2.138   2.579  2.2561 -2.4392 -1.1397
   22MOL   H188 9050   3.901   2.308   2.828 -1.5101 -2.8873  1.0305
   22MOL   H189 9051   3.773   2.398   2.730 -1.5936 -1.1449 -1.0940
   22MOL   H190 9052   3.733   2.252   2.831 -1.3680  0.2398  0.2709
   22MOL   C191 9053   4.108   2.456   2.674 -0.3721 -0.1252  0.6677
   22MOL   C192 9054   4.205   2.521   2.780  0.1203  0.2128 -0.1269
   22MOL   C193 9055   4.184   2.474   2.931 -0.3449 -0.6490  0.4006
   22MOL   C194 9056   4.310   2.445   3.018 -0.2075  0.8349  0.2263
   22MOL   C195 9057   4.379   2.319   2.969  0.1739  0.4760  0.1129
   22MOL   C196 9058   4.259   2.426   3.164  0.0171  0.7925  1.0932
   22MOL   C197 9059   4.415   2.556   3.016 -0.5121 -0.1356  0.8246
   22MOL   H198 9060   4.109   2.511   2.580  2.3150 -0.8274  0.2453
   22MOL   H199 9061   4.015   2.490   2.719 -0.8317 -0.1386 -0.2645
   22MOL   H200 9062   4.301   2.484   2.746  0.2428 -0.8000  1.2980
   22MOL   H201 9063   4.122   2.385   2.937 -1.5126  0.0451 -0.8770
   22MOL   H202 9064   4.120   2.543   2.986  1.7665  0.7535  1.1538
   22MOL   H203 9065   4.463   2.299   3.036  1.9245  2.4756 -1.4059
   22MOL   H204 9066   4.316   2.231   2.986  0.8116  0.4361  2.4798
   22MOL   H205 9067   4.395   2.336   2.863  0.6901 -1.9786 -0.2449
   22MOL   H206 9068   4.283   2.515   3.223  0.3820  0.8178  0.9102
   22MOL   H207 9069   4.152   2.410   3.174  0.2629 -1.3129  0.5525
   22MOL   H208 9070   4.292   2.336   3.215 -1.0625 -0.2138  0.0460
   22MOL   H209 9071   4.474   2.560   2.924  1.8830  1.3317  2.3425
   22MOL   H210 9072   4.375   2.654   3.041 -2.2847 -0.5534 -0.2407
   22MOL   H211 9073   4.481   2.531   3.099  1.8564 -0.3678 -1.0497
   22MOL   C212 9074   4.199   2.678   2.764 -0.2749 -0.2087  0.4000
   22MOL   C213 9075   4.328   2.749   2.723  0.5063  0.3544 -0.1398
   22MOL   C214 9076   4.310   2.902   2.718  0.4179  0.3894 -0.7003
   22MOL   C215 9077   4.290   2.990   2.838 -0.3279  0.4067 -0.2959
   22MOL   C216 9078   4.320   3.133   2.804 -0.1643 -1.2237 -0.3663
   22MOL   C217 9079   4.144   2.989   2.890  1.2077  0.2926 -0.2173
   22MOL   C218 9080   4.384   2.970   2.958  0.4407 -0.1310  0.7708
   22MOL   H219 9081   4.122   2.717   2.698 -0.4240 -0.3431  0.4944
   22MOL   H220 9082   4.177   2.710   2.866  1.0365  0.1749  0.5715
   22MOL   H221 9083   4.403   2.730   2.799 -0.0994 -2.6522 -0.2563
   22MOL   H222 9084   4.219   2.925   2.662  0.7418  2.2081 -0.5120
   22MOL   H223 9085   4.395   2.927   2.655  1.1142  0.0202  0.0985
   22MOL   H224 9086   4.253   3.174   2.729  1.0910  1.2432 -0.1784
   22MOL   H225 9087   4.425   3.144   2.778  0.0619 -1.1219  0.5797
   22MOL   H226 9088   4.310   3.191   2.895  1.4717  0.3447 -1.1757
   22MOL   H227 9089   4.067   2.994   2.812 -0.5138 -1.6415  1.2924
   22MOL   H228 9090   4.124   2.907   2.958 -0.5161  0.9365  0.0793
   22MOL   H229 9091   4.132   3.076   2.955 -0.6150  0.8852 -1.2752
   22MOL   H230 9092   4.385   2.864   2.983  0.7580  0.0084  1.3578
   22MOL   H231 9093   4.349   3.021   3.048  0.1655  1.5658 -0.2767
   22MOL   H232 9094   4.490   2.993   2.946  0.0735  1.8849  1.1730
   22MOL   C233 9095   4.391   2.699   2.592 -0.1638  1.0492  0.1923
   22MOL   C234 9096   4.542   2.723   2.576 -0.7585  0.1600  0.5569
   22MOL   C235 9097   4.630   2.607   2.642  0.3086  0.5257  0.2874
   22MOL   C236 9098   4.762   2.646   2.718  0.3072  0.0267 -0.0541
   22MOL   C237 9099   4.874   2.706   2.622  0.0581 -0.3157  0.4629
   22MOL   C238 9100   4.730   2.744   2.835 -0.0244 -0.4047 -0.8740
   22MOL   C239 9101   4.821   2.519   2.780  0.2129 -0.4232 -0.4014
   22MOL   H240 9102   4.340   2.757   2.515 -1.0178  1.8045  1.2961
   22MOL   H241 9103   4.366   2.596   2.568 -0.2372  1.3901 -1.2117
   22MOL   H242 9104   4.566   2.817   2.626  2.3155  0.1780 -0.8504
   22MOL   H243 9105   4.568   2.562   2.719  1.3499 -2.3542 -0.4767
   22MOL   H244 9106   4.654   2.530   2.568 -1.6073 -1.1934  1.4143
   22MOL   H245 9107   4.840   2.804   2.588  1.6647 -0.2230 -0.9605
   22MOL   H246 9108   4.877   2.637   2.538  0.0645 -0.5127  0.6245
   22MOL   H247 9109   4.973   2.718   2.667  1.0378 -1.5634 -1.2911
   22MOL   H248 9110   4.814   2.741   2.904 -2.5337  1.0589  2.3690
   22MOL   H249 9111   4.718   2.848   2.804  1.8788 -0.3461 -1.5135
   22MOL   H250 9112   4.647   2.713   2.897  0.1306 -0.3205 -0.6251
   22MOL   H251 9113   4.923   2.527   2.818  0.7034 -1.8650 -1.3938
   22MOL   H252 9114   4.758   2.492   2.865  0.3943  0.4663  0.0291
   22MOL   H253 9115   4.820   2.434   2.713 -0.8791  0.7424 -1.9079
   22MOL   C254 9116   4.587   2.750   2.426  0.2669 -0.4016  0.2020
   22MOL   C255 9117   4.546   2.885   2.350 -0.5285 -0.3930 -0.5619
   22MOL   C256 9118   4.612   2.893   2.207 -0.0526  0.2373 -0.4040
   22MOL   C257 9119   4.562   2.790   2.097 -0.2707  0.1002  0.5302
   22MOL   C258 9120   4.572   2.855   1.954  0.6242  0.6283 -0.1206
   22MOL   C259 9121   4.421   2.740   2.116  0.3012  0.7764 -0.1362
   22MOL   C260 9122   4.651   2.662   2.095 -0.1857  0.5856  0.0375
   22MOL   H261 9123   4.542   2.671   2.365  1.9391  0.2717 -1.9390
   22MOL   H262 9124   4.695   2.737   2.424  0.2231 -0.8712  0.7438
   22MOL   H263 9125   4.437   2.874   2.347 -0.5665  0.1301 -1.2677
   22MOL   H264 9126   4.593   2.990   2.162  1.9502  1.1616  0.6797
   22MOL   H265 9127   4.720   2.894   2.223 -0.3045  0.5936  1.3924
   22MOL   H266 9128   4.517   2.791   1.885 -3.0194  0.5716  2.7142
   22MOL   H267 9129   4.679   2.871   1.940  0.9952 -2.3581 -0.9538
   22MOL   H268 9130   4.526   2.953   1.966 -0.9510 -0.2269  1.1250
   22MOL   H269 9131   4.344   2.817   2.114 -1.3029 -0.7399  1.1090
   22MOL   H270 9132   4.401   2.684   2.208  1.7739  0.6326  0.1063
   22MOL   H271 9133   4.382   2.669   2.044  1.0843 -0.7111  0.8733
   22MOL   H272 9134   4.659   2.618   2.195  2.1665 -0.6788 -0.6714
   22MOL   H273 9135   4.613   2.576   2.039  0.0466  0.0593  0.6765
   22MOL   H274 9136   4.756   2.684   2.074 -0.5130  1.8559 -0.2996
   22MOL   C275 9137   4.588   3.003   2.436 -0.0218 -0.1104 -0.4676
   22MOL   C276 9138   4.539   3.144   2.394 -0.8683  0.3163 -0.0894
   22MOL   C277 9139   4.390   3.167   2.420  0.5883 -0.2321  0.1707
   22MOL   C278 9140   4.283   3.206   2.311  0.0030  0.1448  0.2478
   22MOL   C279 9141   4.295   3.353   2.276 -0.0672  0.2129  0.2596
   22MOL   C280 9142   4.291   3.115   2.181 -0.5248  0.4800  0.3775
   22MOL   C281 9143   4.137   3.190   2.369 -0.1647 -0.2274 -0.4887
   22MOL   H282 9144   4.557   2.997   2.540  2.7222 -3.2893  0.2703
   22MOL   H283 9145   4.696   3.014   2.445 -0.5442  5.6293  0.5613
   22MOL   H284 9146   4.549   3.154   2.286 -1.8675 -0.3720 -0.2530
   22MOL   H285 9147   4.373   3.239   2.500 -1.8879  1.7397 -2.0341
   22MOL   H286 9148   4.353   3.081   2.475  0.4518 -0.2442  0.0600
   22MOL   H287 9149   4.394   3.385   2.242 -0.9811  1.6406 -1.1534
   22MOL   H288 9150   4.217   3.382   2.206 -1.5399 -0.5848  1.5346
   22MOL   H289 9151   4.269   3.415   2.362 -0.2053  3.3135 -1.9370
   22MOL   H290 9152   4.207   3.134   2.115 -1.3893 -0.8748  1.0555
   22MOL   H291 9153   4.270   3.011   2.207 -1.4438  0.7440  0.7128
   22MOL   H292 9154   4.385   3.123   2.125 -1.1361 -1.2236 -0.9375
   22MOL   H293 9155   4.073   3.255   2.311 -0.4561  1.5162  1.7116
   22MOL   H294 9156   4.136   3.233   2.469 -2.1007 -1.7999  0.2161
   22MOL   H295 9157   4.089   3.092   2.365 -3.1992  1.1169  1.1960
   22MOL   C296 9158   4.626   3.259   2.453  0.2568 -0.0937  0.0429
   22MOL   C297 9159   4.777   3.274   2.412  0.9847 -0.4005  0.1924
   22MOL   C298 9160   4.833   3.406   2.468  0.2722  0.0955 -0.6214
   22MOL   C299 9161   4.836   3.431   2.617 -0.5164 -0.5193  0.1573
   22MOL   C300 9162   4.716   3.514   2.659  0.1595  0.5400 -0.2662
   22MOL   C301 9163   4.865   3.294   2.703 -0.2672  0.0157  0.0529
   22MOL   C302 9164   4.964   3.530   2.647  0.0697  0.5406  0.3141
   22MOL   H303 9165   4.621   3.252   2.562 -0.2653  1.0249  0.0991
   22MOL   H304 9166   4.580   3.352   2.420  3.0699  0.6536 -1.8881
   22MOL   H305 9167   4.826   3.192   2.465  0.0137 -1.0773  0.0448
   22MOL   H306 9168   4.787   3.494   2.424 -1.0525  0.0045  0.5284
   22MOL   H307 9169   4.937   3.410   2.436  0.1847  0.2962 -0.8767
   22MOL   H308 9170   4.727   3.525   2.767  3.4899  0.0863 -0.5302
   22MOL   H309 9171   4.721   3.608   2.604  1.3691  0.5858 -0.0837
   22MOL   H310 9172   4.624   3.464   2.629  1.0481 -2.1690  1.2973
   22MOL   H311 9173   4.884   3.321   2.807 -1.1487 -0.5933  0.3742
   22MOL   H312 9174   4.783   3.223   2.702 -0.5640  0.3662 -0.8454
   22MOL   H313 9175   4.952   3.237   2.671  0.4685  0.2630  1.5823
   22MOL   H314 9176   4.957   3.571   2.748 -1.6482  0.3500  0.3001
   22MOL   H315 9177   5.061   3.487   2.625 -0.0499  0.4291 -0.0091
   22MOL   H316 9178   4.960   3.610   2.573 -0.4965  1.4049  1.2620
   22MOL   C317 9179   4.809   3.260   2.252  0.5098 -0.3698  0.6597
   22MOL   C318 9180   4.957   3.228   2.217  0.5385  0.1033  0.3511
   22MOL   C319 9181   4.993   3.087   2.272  0.6588  0.3176  0.1181
   22MOL   C320 9182   5.124   3.067   2.349  0.3507 -0.0064 -0.0722
   22MOL   C321 9183   5.241   3.131   2.280  0.4225  0.3091  0.1567
   22MOL   C322 9184   5.157   2.918   2.349 -0.0083  0.1080 -0.0938
   22MOL   C323 9185   5.114   3.121   2.493  0.2915  0.0159 -0.4296
   22MOL   H324 9186   4.754   3.181   2.199  2.1232 -0.3453 -1.1000
   22MOL   H325 9187   4.786   3.354   2.203  1.1400 -1.4334 -1.7691
   22MOL   H326 9188   5.014   3.305   2.269  1.5757  0.3995 -1.1993
   22MOL   H327 9189   4.998   3.015   2.190 -1.2955  2.3430 -1.8524
   22MOL   H328 9190   4.910   3.049   2.332  0.1995  0.2411 -0.5586
   22MOL   H329 9191   5.334   3.097   2.325 -1.8724 -2.1140  3.2615
   22MOL   H330 9192   5.220   3.238   2.284 -1.3147  0.0271 -1.0705
   22MOL   H331 9193   5.238   3.110   2.173 -0.0601 -1.6568  0.5402
   22MOL   H332 9194   5.240   2.885   2.411  0.1192  2.7067  1.2169
   22MOL   H333 9195   5.079   2.846   2.374 -0.6223  0.9036  0.3202
   22MOL   H334 9196   5.186   2.884   2.250  2.4244  0.4641  0.4817
   22MOL   H335 9197   5.077   3.223   2.497 -1.3917 -0.5308 -1.5550
   22MOL   H336 9198   5.208   3.110   2.547 -0.5710  2.4589  1.6598
   22MOL   H337 9199   5.045   3.053   2.542  0.0288  0.5698 -0.0377
   22MOL   C338 9200   4.992   3.254   2.062 -0.0877  0.3127  0.0806
   22MOL   C339 9201   4.990   3.399   2.009 -0.8254 -0.5791  0.8592
   22MOL   C340 9202   4.985   3.394   1.849 -0.0287 -0.2213 -0.3092
   22MOL   C341 9203   4.845   3.380   1.778  0.1394 -0.3322 -0.8793
   22MOL   C342 9204   4.754   3.266   1.845  0.5637 -0.2081  0.0328
   22MOL   C343 9205   4.771   3.516   1.801 -0.0901 -0.3781 -0.4981
   22MOL   C344 9206   4.859   3.359   1.626 -0.6751 -0.1813 -0.2700
   22MOL   H345 9207   4.956   3.183   1.987  0.1332  0.3502 -0.0618
   22MOL   H346 9208   5.097   3.231   2.047 -0.3819 -0.4573 -0.8848
   22MOL   H347 9209   4.900   3.450   2.046  0.8275  3.0006  0.1581
   22MOL   H348 9210   5.045   3.312   1.809 -0.2081 -0.3166 -0.3810
   22MOL   H349 9211   5.030   3.489   1.818 -0.3085 -0.0626 -0.2320
   22MOL   H350 9212   4.790   3.168   1.813 -0.6042  0.6668 -4.3191
   22MOL   H351 9213   4.737   3.271   1.952  0.8217 -1.0482  0.1180
   22MOL   H352 9214   4.654   3.278   1.804  0.4402  2.2590  0.9678
   22MOL   H353 9215   4.677   3.514   1.746  0.2511 -0.1195 -1.0962
   22MOL   H354 9216   4.749   3.540   1.905  0.2080  1.1552 -0.7832
   22MOL   H355 9217   4.824   3.602   1.759  0.8835 -0.8830 -0.3118
   22MOL   H356 9218   4.881   3.254   1.605 -0.3961  0.4126 -3.2492
   22MOL   H357 9219   4.770   3.384   1.569 -0.6203 -1.4345 -0.9350
   22MOL   H358 9220   4.945   3.406   1.578  0.5786 -2.3783 -0.2587
   22MOL   C359 9221   5.104   3.484   2.067  0.6799  0.2108 -0.1804
   22MOL   C360 9222   5.071   3.638   2.072 -0.7438 -0.6741  0.4920
   22MOL   C361 9223   5.197   3.726   2.076  0.0517 -0.7375  0.0792
   22MOL   C362 9224   5.270   3.748   1.940  0.5567 -0.5138 -0.7464
   22MOL   C363 9225   5.342   3.629   1.876  0.5182 -0.0319 -0.6124
   22MOL   C364 9226   5.394   3.849   1.953  0.3906 -0.2726  0.1632
   22MOL   C365 9227   5.178   3.811   1.837  0.2957  0.6448 -0.3803
   22MOL   H366 9228   5.177   3.459   1.990 -0.9047 -0.5700 -1.4717
   22MOL   H367 9229   5.136   3.453   2.166  2.5724 -1.3199 -1.2215
   22MOL   H368 9230   5.004   3.661   1.988  1.4759 -0.5099 -1.2869
   22MOL   H369 9231   5.158   3.825   2.102 -1.1059 -0.1744 -3.5319
   22MOL   H370 9232   5.272   3.690   2.147 -0.5515 -0.5385  0.8244
   22MOL   H371 9233   5.400   3.576   1.951  0.7798 -0.3785 -1.0596
   22MOL   H372 9234   5.280   3.547   1.838 -1.0514  1.5146 -1.4613
   22MOL   H373 9235   5.395   3.656   1.785 -0.3129  0.1143 -1.0622
   22MOL   H374 9236   5.464   3.866   1.871  0.9329  0.6679  0.8042
   22MOL   H375 9237   5.469   3.819   2.027 -0.5394 -0.2827  1.1192
   22MOL   H376 9238   5.363   3.952   1.971 -1.9792 -0.9467  0.1055
   22MOL   H377 9239   5.105   3.738   1.803  0.9474 -0.2079  0.0380
   22MOL   H378 9240   5.230   3.840   1.746 -1.6181  2.2582 -1.0082
   22MOL   H379 9241   5.127   3.901   1.872 -0.5317 -0.0128  0.1125
   22MOL   C380 9242   4.998   3.662   2.209 -0.2407  0.1756 -0.2500
   22MOL   C381 9243   4.916   3.791   2.213  0.7942 -0.7176 -0.4961
   22MOL   C382 9244   4.869   3.817   2.360 -0.2017 -0.5911  0.3238
   22MOL   C383 9245   4.883   3.958   2.421  0.1891  0.7132 -0.1729
   22MOL   C384 9246   5.030   3.989   2.464 -0.4514  0.3433  0.1341
   22MOL   C385 9247   4.809   3.954   2.557 -0.5048 -0.2609  0.2324
   22MOL   C386 9248   4.828   4.078   2.336  0.4932  0.0728 -0.1405
   22MOL   H387 9249   5.065   3.658   2.295 -1.2757 -1.7339  0.5048
   22MOL   H388 9250   4.919   3.588   2.228  0.4037 -0.3475  0.4055
   22MOL   H389 9251   4.975   3.876   2.179 -2.9130  1.6562 -1.2856
   22MOL   H390 9252   4.766   3.783   2.369  0.0642 -1.3421  0.5504
   22MOL   H391 9253   4.934   3.752   2.420  0.5395 -0.0072  0.1685
   22MOL   H392 9254   5.065   3.912   2.532 -0.2817  1.0137  0.8098
   22MOL   H393 9255   5.093   3.988   2.375  0.8125  1.6903  0.9851
   22MOL   H394 9256   5.037   4.087   2.511 -0.6539  0.7360 -0.6471
   22MOL   H395 9257   4.847   3.892   2.638 -0.7554  0.1387  0.6580
   22MOL   H396 9258   4.707   3.916   2.554 -0.6136  0.0860 -0.8936
   22MOL   H397 9259   4.805   4.058   2.591  2.3400  0.1995 -0.6949
   22MOL   H398 9260   4.723   4.055   2.317  0.4250 -1.3647  1.8196
   22MOL   H399 9261   4.886   4.097   2.245  1.1123 -1.6717 -0.1289
   22MOL   H400 9262   4.820   4.170   2.393 -2.0133  0.9119 -1.7509
   22MOL   C401 9263   4.796   3.802   2.115  0.3498 -0.0168  0.0531
   22MOL   C402 9264   4.812   3.887   1.990  0.2533  0.3976 -0.3069
   22MOL   C403 9265   4.685   3.880   1.903  0.1425 -0.0172  0.1408
   22MOL   C404 9266   4.688   3.981   1.788  0.1132  0.1284  0.2458
   22MOL   C405 9267   4.823   3.984   1.709  0.4692 -0.0430  0.2660
   22MOL   C406 9268   4.666   4.122   1.837 -0.2661  0.8466  0.8027
   22MOL   C407 9269   4.580   3.942   1.689  0.0914 -0.1538 -0.3034
   22MOL   H408 9270   4.779   3.700   2.082 -1.8733  0.2675  0.2517
   22MOL   H409 9271   4.712   3.839   2.173  0.0102  0.0485 -0.4760
   22MOL   H410 9272   4.846   3.988   2.012  0.5236  0.2829 -0.1946
   22MOL   H411 9273   4.589   3.871   1.954 -1.3438  0.3958 -2.5047
   22MOL   H412 9274   4.691   3.787   1.846 -1.5768 -0.6482  0.9466
   22MOL   H413 9275   4.891   4.033   1.779  1.5326  0.0682 -0.8369
   22MOL   H414 9276   4.800   4.041   1.619 -1.4720 -1.9784 -0.5010
   22MOL   H415 9277   4.851   3.883   1.680  2.3699  0.0514  1.6648
   22MOL   H416 9278   4.685   4.194   1.758  1.4906 -1.7424 -1.2340
   22MOL   H417 9279   4.744   4.146   1.910  1.5684 -3.1404  0.3108
   22MOL   H418 9280   4.565   4.144   1.872 -1.0886  1.3890 -1.7915
   22MOL   H419 9281   4.588   3.836   1.667  0.0778  0.4114 -3.2982
   22MOL   H420 9282   4.480   3.942   1.732 -0.2640  0.1810 -1.1186
   22MOL   H421 9283   4.576   4.006   1.601 -0.1117 -1.6328 -1.3853
   22MOL   H422 9284   4.904   3.860   1.937  0.0328  2.0537 -1.5554
   23MOL     C1 9285   3.923   5.942   1.270  0.0579  0.8722 -0.6331
   23MOL     C2 9286   4.045   6.022   1.222 -0.0686 -0.0575 -0.4888
   23MOL     C3 9287   4.051   6.028   1.066  0.1513 -1.1390 -0.2823
   23MOL     C4 9288   3.998   6.160   1.006  0.5733 -0.0119 -0.2397
   23MOL     C5 9289   3.855   6.191   1.048  0.3311  0.1677 -0.7052
   23MOL     C6 9290   4.097   6.279   1.030  0.1665  0.0614 -0.1711
   23MOL     C7 9291   3.992   6.124   0.850 -0.2796  0.2665 -0.3565
   23MOL     H8 9292   3.936   5.837   1.245  0.6029  1.1343 -1.4739
   23MOL     H9 9293   3.924   5.941   1.379  0.4463  1.1776 -0.6327
   23MOL    H10 9294   4.043   6.127   1.251  0.9180 -0.4527  1.0748
   23MOL    H11 9295   4.003   5.939   1.025 -0.1109 -1.2607  0.2853
   23MOL    H12 9296   4.155   6.023   1.035 -0.0195 -0.8887 -0.9065
   23MOL    H13 9297   3.853   6.240   1.145 -0.9692 -0.1539 -0.5625
   23MOL    H14 9298   3.785   6.108   1.039 -1.4575  1.2153  2.7458
   23MOL    H15 9299   3.817   6.274   0.989 -2.1570 -0.8691 -0.6082
   23MOL    H16 9300   4.071   6.365   0.968 -0.4966 -0.2521 -0.3381
   23MOL    H17 9301   4.109   6.304   1.135 -0.2816  0.3972 -0.1987
   23MOL    H18 9302   4.200   6.249   1.009  0.8108  0.9835  1.5888
   23MOL    H19 9303   3.914   6.063   0.805 -0.9221  0.1804  0.8505
   23MOL    H20 9304   4.079   6.065   0.825 -0.9859 -0.0613 -2.1124
   23MOL    H21 9305   3.999   6.221   0.800  0.6223 -0.4256 -1.6037
   23MOL    H22 9306   3.826   5.980   1.238 -0.6050 -0.9666 -0.8758
   23MOL    C23 9307   4.173   5.960   1.288 -0.1642  0.0952 -0.4833
   23MOL    C24 9308   4.295   6.045   1.311 -0.0572  0.8393 -0.1634
   23MOL    C25 9309   4.426   5.957   1.321 -0.3852  0.5564  0.1846
   23MOL    C26 9310   4.515   5.940   1.196 -0.7347  0.2677 -0.3107
   23MOL    C27 9311   4.640   5.861   1.251  0.8650 -0.0335 -0.2629
   23MOL    C28 9312   4.438   5.864   1.084  0.6122  0.1981 -0.1723
   23MOL    C29 9313   4.565   6.072   1.144 -0.3642  0.6356 -0.5541
   23MOL    H30 9314   4.145   5.907   1.379  0.4524 -0.2543 -0.4910
   23MOL    H31 9315   4.202   5.882   1.217 -3.0180 -1.0419 -0.4456
   23MOL    H32 9316   4.302   6.124   1.237  1.1013 -1.8066 -2.9764
   23MOL    H33 9317   4.402   5.860   1.364  0.8947 -0.4184 -1.2587
   23MOL    H34 9318   4.479   6.012   1.398  1.2872  0.1023 -0.6250
   23MOL    H35 9319   4.693   5.921   1.326  0.5342 -0.4436  0.3054
   23MOL    H36 9320   4.605   5.766   1.292 -1.3330  0.9223  0.1878
   23MOL    H37 9321   4.704   5.827   1.170  0.7101 -0.0414 -0.3829
   23MOL    H38 9322   4.368   5.937   1.044  0.9241  0.1906 -0.7343
   23MOL    H39 9323   4.508   5.821   1.012  1.7216 -2.3975  2.3620
   23MOL    H40 9324   4.378   5.778   1.112  0.7806  0.1356  0.0010
   23MOL    H41 9325   4.615   6.041   1.052  0.0667 -1.1232  0.2539
   23MOL    H42 9326   4.631   6.118   1.217 -0.4415 -1.5810  0.9641
   23MOL    H43 9327   4.479   6.132   1.114 -2.4305  0.5259  4.5476
   23MOL    C44 9328   4.267   6.125   1.441  0.2956 -0.0679  1.1531
   23MOL    C45 9329   4.352   6.245   1.464 -0.0411 -0.1215 -0.4789
   23MOL    C46 9330   4.355   6.269   1.620  0.5297 -0.3912  0.9279
   23MOL    C47 9331   4.483   6.218   1.699  0.6340 -0.3760  0.3938
   23MOL    C48 9332   4.605   6.275   1.631  0.2003 -0.0981  0.3101
   23MOL    C49 9333   4.489   6.059   1.696  0.6250  0.4511 -0.3786
   23MOL    C50 9334   4.472   6.266   1.849 -0.6581 -0.4897  0.1004
   23MOL    H51 9335   4.162   6.154   1.439  0.2677 -0.2505 -0.4580
   23MOL    H52 9336   4.265   6.047   1.517  1.8680  0.5274  1.8390
   23MOL    H53 9337   4.456   6.233   1.432  0.8598  1.6265  1.6131
   23MOL    H54 9338   4.257   6.250   1.663 -0.6986  1.8328 -0.7538
   23MOL    H55 9339   4.356   6.378   1.624 -0.7010 -0.2092 -2.0340
   23MOL    H56 9340   4.640   6.223   1.542  1.8084  1.4467  0.0053
   23MOL    H57 9341   4.695   6.278   1.692  1.5726 -3.1594 -1.4490
   23MOL    H58 9342   4.589   6.382   1.615 -2.3418  0.0613  3.3237
   23MOL    H59 9343   4.589   6.023   1.721  1.1976  2.0619 -0.2647
   23MOL    H60 9344   4.419   6.008   1.762 -0.6939  0.7820 -1.5002
   23MOL    H61 9345   4.464   6.024   1.596  1.1926  3.0865 -1.5059
   23MOL    H62 9346   4.567   6.288   1.898 -0.0606 -0.1313 -1.1953
   23MOL    H63 9347   4.412   6.357   1.856  0.1728  0.2399 -1.8613
   23MOL    H64 9348   4.421   6.199   1.918  0.2291 -1.2465  0.0402
   23MOL    C65 9349   4.298   6.371   1.386 -0.4956  0.2843  0.1730
   23MOL    C66 9350   4.402   6.473   1.326  0.1077 -0.8337  0.0865
   23MOL    C67 9351   4.327   6.600   1.282 -0.3067 -0.1206  0.0026
   23MOL    C68 9352   4.304   6.719   1.380  0.4456  0.7714  0.2754
   23MOL    C69 9353   4.437   6.783   1.415  1.1046 -0.2433  0.1118
   23MOL    C70 9354   4.212   6.822   1.315 -0.0283  0.0669 -0.1377
   23MOL    C71 9355   4.235   6.682   1.507  0.7296 -0.0961  0.7135
   23MOL    H72 9356   4.246   6.331   1.299 -1.7332  0.0475  1.0050
   23MOL    H73 9357   4.207   6.412   1.430 -1.4772 -2.0646  0.3855
   23MOL    H74 9358   4.464   6.509   1.408 -0.2535  2.0744 -0.8699
   23MOL    H75 9359   4.234   6.564   1.238  0.2887  0.1120 -1.4960
   23MOL    H76 9360   4.381   6.626   1.190  1.1642  1.1523  1.2003
   23MOL    H77 9361   4.428   6.881   1.461  0.7215 -1.3483  2.4556
   23MOL    H78 9362   4.505   6.723   1.476 -0.7134 -0.6431  1.7842
   23MOL    H79 9363   4.499   6.805   1.328  1.0928  0.6741  0.3399
   23MOL    H80 9364   4.196   6.906   1.382 -2.0772 -0.0149 -0.4872
   23MOL    H81 9365   4.115   6.775   1.296 -0.6241  0.8246  1.0219
   23MOL    H82 9366   4.259   6.863   1.225  1.8551  1.1015  1.2959
   23MOL    H83 9367   4.131   6.661   1.483  0.6008  2.6947 -1.4378
   23MOL    H84 9368   4.227   6.758   1.584 -1.5708  1.1095 -0.6762
   23MOL    H85 9369   4.278   6.592   1.551 -0.9055 -2.1475 -1.7367
   23MOL    C86 9370   4.499   6.417   1.216 -0.6301  0.6185 -0.0379
   23MOL    C87 9371   4.622   6.511   1.193 -0.3605  0.1245  0.1536
   23MOL    C88 9372   4.664   6.511   1.039 -0.1953  0.0369  0.1688
   23MOL    C89 9373   4.590   6.592   0.932  0.3739  0.7328 -0.1108
   23MOL    C90 9374   4.448   6.541   0.908  0.1113  0.2796 -0.9072
   23MOL    C91 9375   4.662   6.568   0.794 -0.3381  0.1823 -0.0869
   23MOL    C92 9376   4.572   6.744   0.960 -0.1333  0.3179 -0.6532
   23MOL    H93 9377   4.452   6.392   1.121  0.8895 -2.4093 -0.0533
   23MOL    H94 9378   4.538   6.319   1.244  0.2800  1.2021  0.7657
   23MOL    H95 9379   4.603   6.615   1.219  2.4499  0.7164  0.0474
   23MOL    H96 9380   4.689   6.411   1.005 -2.2230  0.4819 -2.8225
   23MOL    H97 9381   4.764   6.554   1.040  0.5446 -1.6392 -0.5001
   23MOL    H98 9382   4.462   6.434   0.887 -4.5033 -0.7391  0.6453
   23MOL    H99 9383   4.403   6.588   0.821 -1.3586  0.2510 -0.1679
   23MOL   H100 9384   4.387   6.552   0.997 -0.2436 -0.8440 -1.0051
   23MOL   H101 9385   4.658   6.467   0.753  2.3118  0.7407 -1.7869
   23MOL   H102 9386   4.616   6.615   0.707  0.5114 -0.3311 -0.8228
   23MOL   H103 9387   4.763   6.606   0.809 -0.0069  0.3890 -2.6092
   23MOL   H104 9388   4.672   6.788   0.967  0.6249 -1.2567 -1.3854
   23MOL   H105 9389   4.517   6.792   0.879 -1.7449 -0.1513  0.1547
   23MOL   H106 9390   4.515   6.762   1.051 -1.8048  1.5674 -1.9307
   23MOL   C107 9391   4.737   6.460   1.279  0.5586 -0.3416 -0.0023
   23MOL   C108 9392   4.858   6.558   1.295 -0.0355 -0.3498 -0.2633
   23MOL   C109 9393   4.818   6.683   1.378 -0.1474 -0.6521 -0.6621
   23MOL   C110 9394   4.875   6.821   1.345  0.3956 -0.4786  0.1382
   23MOL   C111 9395   4.865   6.912   1.466 -0.5422 -0.0137  0.4573
   23MOL   C112 9396   4.803   6.896   1.231  0.2021 -0.0395 -0.5821
   23MOL   C113 9397   5.026   6.819   1.306  0.0447  0.7853 -0.2429
   23MOL   H114 9398   4.776   6.365   1.245  0.4760 -0.0971 -0.7923
   23MOL   H115 9399   4.702   6.454   1.382 -1.2522  1.4261 -0.4805
   23MOL   H116 9400   4.888   6.595   1.197  1.0292 -1.0616 -0.2135
   23MOL   H117 9401   4.709   6.695   1.377 -0.1173  0.2203  1.8820
   23MOL   H118 9402   4.838   6.674   1.485 -0.8339 -0.4754 -0.5185
   23MOL   H119 9403   4.763   6.946   1.484 -0.1552  1.2885  0.2908
   23MOL   H120 9404   4.894   6.863   1.558 -2.6130  1.2727  1.8317
   23MOL   H121 9405   4.928   7.001   1.465  1.6692 -1.5246 -2.1944
   23MOL   H122 9406   4.698   6.888   1.257  0.4934  0.8511  0.9894
   23MOL   H123 9407   4.820   6.835   1.143 -1.6219  0.2703 -1.1702
   23MOL   H124 9408   4.833   6.999   1.212 -2.7804  0.5654 -2.3737
   23MOL   H125 9409   5.061   6.917   1.274 -0.2007  2.3403  3.9285
   23MOL   H126 9410   5.054   6.735   1.243  0.7074 -0.0141  1.1000
   23MOL   H127 9411   5.087   6.799   1.394 -0.6955  2.3852  0.6760
   23MOL   C128 9412   4.974   6.487   1.375  0.2451 -0.3385 -0.2957
   23MOL   C129 9413   5.034   6.356   1.319  0.3391 -0.4493  0.2986
   23MOL   C130 9414   4.974   6.217   1.365 -0.3780 -0.3324 -0.1267
   23MOL   C131 9415   5.032   6.154   1.488  0.2762  0.0733 -0.5004
   23MOL   C132 9416   5.025   6.246   1.610  0.0972 -0.1659 -0.7551
   23MOL   C133 9417   5.177   6.104   1.470  0.0172 -0.5885 -0.5214
   23MOL   C134 9418   4.939   6.034   1.517 -0.2313  0.0120 -0.1252
   23MOL   H135 9419   4.945   6.476   1.480  0.7940 -3.4674 -0.4354
   23MOL   H136 9420   5.053   6.559   1.394 -1.0764  1.5323 -1.7414
   23MOL   H137 9421   5.138   6.361   1.349  0.6777  0.8498 -1.0265
   23MOL   H138 9422   4.870   6.240   1.390 -0.1015  1.0662 -0.2267
   23MOL   H139 9423   4.959   6.145   1.285  1.5108  0.8300 -1.5620
   23MOL   H140 9424   4.922   6.272   1.635  0.4175  1.0757 -0.6536
   23MOL   H141 9425   5.089   6.335   1.608  0.2656 -0.2910 -0.9680
   23MOL   H142 9426   5.070   6.194   1.694  0.6009  2.4144  0.6285
   23MOL   H143 9427   5.241   6.183   1.432 -0.6419  0.5241  0.6650
   23MOL   H144 9428   5.173   6.025   1.395  3.2856 -1.4678  0.1473
   23MOL   H145 9429   5.221   6.054   1.557  0.5936 -1.1136 -1.1108
   23MOL   H146 9430   4.981   5.980   1.601 -1.2042 -0.8103 -0.1667
   23MOL   H147 9431   4.832   6.052   1.525 -0.1530 -0.2556  1.7287
   23MOL   H148 9432   4.946   5.960   1.437 -1.4689  0.0941 -0.3201
   23MOL   C149 9433   5.055   6.377   1.168  0.1590  0.6183  0.0949
   23MOL   C150 9434   5.159   6.291   1.093  0.5464 -0.0672 -0.1079
   23MOL   C151 9435   5.123   6.297   0.945 -0.4198  0.0722 -0.0966
   23MOL   C152 9436   5.041   6.183   0.871  0.0883  0.2556 -0.0861
   23MOL   C153 9437   4.924   6.148   0.961 -0.2564 -0.0907 -0.0250
   23MOL   C154 9438   5.115   6.053   0.833 -0.4533 -0.1042  0.5639
   23MOL   C155 9439   4.981   6.248   0.749 -0.8402  0.0069 -0.5607
   23MOL   H156 9440   5.074   6.480   1.137  0.9487  1.1552  2.2454
   23MOL   H157 9441   4.960   6.360   1.118  0.4255 -2.0008  0.4331
   23MOL   H158 9442   5.149   6.185   1.117 -2.1738  0.4105  1.0993
   23MOL   H159 9443   5.215   6.308   0.887 -0.4448  3.1683  0.3401
   23MOL   H160 9444   5.069   6.389   0.922 -0.0130  0.3357 -0.0035
   23MOL   H161 9445   4.946   6.112   1.061 -2.2835 -0.0918  0.4383
   23MOL   H162 9446   4.868   6.241   0.976 -1.6243 -1.3867  3.5763
   23MOL   H163 9447   4.866   6.067   0.917  0.8969 -1.3239  0.7028
   23MOL   H164 9448   5.210   6.085   0.790 -0.8563 -1.4175 -1.3568
   23MOL   H165 9449   5.067   5.990   0.758 -0.3940  2.1381 -1.4393
   23MOL   H166 9450   5.119   5.993   0.924 -0.6839 -0.5645  0.2721
   23MOL   H167 9451   4.939   6.180   0.674 -0.1513 -1.1599  0.0954
   23MOL   H168 9452   4.904   6.321   0.772  0.2018  0.5959  1.1584
   23MOL   H169 9453   5.055   6.305   0.693  0.3151 -1.1223 -0.2054
   23MOL   C170 9454   5.304   6.347   1.119  0.0633  0.1772 -0.3922
   23MOL   C171 9455   5.424   6.259   1.074 -0.3373  0.0413 -0.1272
   23MOL   C172 9456   5.447   6.140   1.168 -0.9237 -0.3586 -0.2852
   23MOL   C173 9457   5.523   6.009   1.124 -0.1762  0.0573 -0.3714
   23MOL   C174 9458   5.678   6.023   1.105 -0.0658 -0.1445 -0.2768
   23MOL   C175 9459   5.460   5.961   0.988  0.4743  0.5186 -0.3259
   23MOL   C176 9460   5.505   5.903   1.235 -0.4399 -0.0858 -0.1268
   23MOL   H177 9461   5.312   6.367   1.226 -0.6124 -1.2295 -0.0621
   23MOL   H178 9462   5.307   6.447   1.076 -0.1665 -0.0400 -0.9131
   23MOL   H179 9463   5.397   6.223   0.975  2.1692 -1.5407 -0.2837
   23MOL   H180 9464   5.494   6.171   1.261 -1.6999 -0.3746  0.1201
   23MOL   H181 9465   5.347   6.111   1.200  0.2808 -1.6538  2.4215
   23MOL   H182 9466   5.712   5.922   1.083  0.5798  0.0836 -0.3427
   23MOL   H183 9467   5.702   6.086   1.019  0.5833 -1.1379 -0.8270
   23MOL   H184 9468   5.734   6.053   1.194  1.2536  2.1710 -1.8319
   23MOL   H185 9469   5.512   5.871   0.958 -1.2730 -0.1287 -1.5012
   23MOL   H186 9470   5.353   5.942   0.989  1.0396 -2.9222  1.4846
   23MOL   H187 9471   5.487   6.034   0.911 -1.3019  0.2934 -1.1940
   23MOL   H188 9472   5.402   5.872   1.248 -0.0526 -0.5396  2.1091
   23MOL   H189 9473   5.559   5.818   1.192 -0.6116  0.8173 -2.1876
   23MOL   H190 9474   5.555   5.930   1.328 -1.3423 -1.6682  0.8540
   23MOL   C191 9475   5.556   6.346   1.053  0.2418  0.1458  0.2380
   23MOL   C192 9476   5.575   6.430   0.916 -0.0194  0.2635 -0.4586
   23MOL   C193 9477   5.596   6.336   0.797 -0.3744 -0.3901 -0.3986
   23MOL   C194 9478   5.520   6.370   0.665 -0.5255  0.1449  0.2738
   23MOL   C195 9479   5.550   6.262   0.567 -0.5964  0.9489 -0.0510
   23MOL   C196 9480   5.570   6.502   0.612 -0.0315  0.1934  0.0134
   23MOL   C197 9481   5.368   6.380   0.680  0.1006 -0.5326 -0.0456
   23MOL   H198 9482   5.551   6.418   1.134  0.0068 -0.5766  0.8633
   23MOL   H199 9483   5.650   6.292   1.069  1.1510  1.2806 -1.0450
   23MOL   H200 9484   5.480   6.480   0.904 -1.3442 -2.0870 -0.1480
   23MOL   H201 9485   5.576   6.237   0.840 -0.0719  0.6249  2.1550
   23MOL   H202 9486   5.701   6.332   0.767 -0.7731  2.6364 -2.3767
   23MOL   H203 9487   5.658   6.249   0.557 -0.6969  0.8072 -0.9807
   23MOL   H204 9488   5.512   6.171   0.614 -0.0662  0.8764  0.2401
   23MOL   H205 9489   5.508   6.264   0.467  1.6486  1.4579 -1.0091
   23MOL   H206 9490   5.522   6.579   0.673  0.1640 -0.1472  0.6014
   23MOL   H207 9491   5.679   6.498   0.609 -0.1174 -3.5601 -0.9919
   23MOL   H208 9492   5.526   6.521   0.514 -0.2452 -3.3461 -0.6321
   23MOL   H209 9493   5.329   6.448   0.756 -0.7036  0.1940 -1.0946
   23MOL   H210 9494   5.325   6.411   0.584 -0.7615  2.2043  1.1673
   23MOL   H211 9495   5.330   6.280   0.699  0.6831 -0.8224 -0.4321
   23MOL   C212 9496   5.687   6.541   0.928 -1.0400  0.1957  0.0009
   23MOL   C213 9497   5.699   6.632   1.048 -0.0565 -0.3635  0.2612
   23MOL   C214 9498   5.771   6.553   1.168  0.0701 -0.0569 -0.2918
   23MOL   C215 9499   5.906   6.612   1.208  0.0244 -0.0609 -0.4051
   23MOL   C216 9500   5.959   6.523   1.324 -0.1860  0.3799 -0.1422
   23MOL   C217 9501   6.008   6.622   1.094  0.3956 -0.1757  0.5709
   23MOL   C218 9502   5.888   6.748   1.277 -0.4534 -0.3943  0.7532
   23MOL   H219 9503   5.786   6.497   0.912 -0.0622  1.6094  1.9277
   23MOL   H220 9504   5.661   6.605   0.843 -0.1912 -1.0747 -1.2483
   23MOL   H221 9505   5.766   6.705   1.003  0.4616 -0.4093  0.9460
   23MOL   H222 9506   5.789   6.450   1.139  0.3079 -0.0959 -0.0074
   23MOL   H223 9507   5.711   6.543   1.258  0.1215 -0.3604 -0.2907
   23MOL   H224 9508   5.898   6.533   1.414 -0.3774  1.3361 -0.3689
   23MOL   H225 9509   6.059   6.554   1.354  0.1898  1.4627 -2.3891
   23MOL   H226 9510   5.973   6.419   1.296  0.4409  0.2520  0.6365
   23MOL   H227 9511   6.023   6.525   1.047 -0.6159 -0.2369  0.3683
   23MOL   H228 9512   5.977   6.688   1.012  1.4193  0.4393  0.6655
   23MOL   H229 9513   6.099   6.668   1.132 -0.7294  1.1530  1.7265
   23MOL   H230 9514   5.984   6.795   1.301 -0.7071  0.3100  0.3885
   23MOL   H231 9515   5.825   6.739   1.366  1.6884  0.6825  2.4437
   23MOL   H232 9516   5.862   6.817   1.197  1.7049  1.1932  1.3643
   23MOL   C233 9517   5.572   6.710   1.090 -0.8965 -0.1742  0.0008
   23MOL   C234 9518   5.541   6.845   1.020 -0.0404  0.2844  0.0920
   23MOL   C235 9519   5.634   6.972   1.045 -0.4078 -0.3237  0.1501
   23MOL   C236 9520   5.620   7.059   1.180 -0.1932 -0.0642  0.2475
   23MOL   C237 9521   5.744   7.142   1.190 -1.0113 -0.3572 -0.5461
   23MOL   C238 9522   5.499   7.149   1.167  0.3780 -1.1195  0.7067
   23MOL   C239 9523   5.602   6.968   1.302 -1.2158 -0.2428 -0.2362
   23MOL   H240 9524   5.572   6.711   1.199 -0.1501  1.9927  0.0012
   23MOL   H241 9525   5.483   6.647   1.080 -0.1445 -1.2045 -0.2722
   23MOL   H242 9526   5.446   6.866   1.069 -0.7156  0.8479 -1.4116
   23MOL   H243 9527   5.735   6.932   1.038 -0.4324 -0.2612 -0.7219
   23MOL   H244 9528   5.617   7.032   0.955 -3.5089  0.0828  0.9630
   23MOL   H245 9529   5.764   7.205   1.103  1.0475 -0.3984 -0.1170
   23MOL   H246 9530   5.841   7.101   1.217 -0.4343  1.7358  0.6313
   23MOL   H247 9531   5.730   7.207   1.277  2.7554  2.2326 -1.7329
   23MOL   H248 9532   5.491   7.202   1.072 -1.6571 -0.0923  1.4380
   23MOL   H249 9533   5.411   7.090   1.193  1.2207 -1.2636  3.3279
   23MOL   H250 9534   5.504   7.223   1.247  1.2195  0.8094 -1.0863
   23MOL   H251 9535   5.693   6.912   1.323 -1.0671 -0.0868 -0.4624
   23MOL   H252 9536   5.584   7.036   1.385  0.9704 -2.5712  2.2355
   23MOL   H253 9537   5.512   6.906   1.292  0.0025 -1.9743 -0.6408
   23MOL   C254 9538   5.518   6.820   0.870 -0.3099 -0.3466 -0.5217
   23MOL   C255 9539   5.408   6.907   0.805 -0.3012  0.4034 -0.0820
   23MOL   C256 9540   5.268   6.850   0.841  0.0759  0.6552  0.0891
   23MOL   C257 9541   5.144   6.943   0.852 -0.2514 -0.6260 -0.3457
   23MOL   C258 9542   5.133   7.046   0.726  0.3766 -0.3242 -0.0533
   23MOL   C259 9543   5.165   7.041   0.968 -0.1687  0.1695 -0.0576
   23MOL   C260 9544   5.014   6.859   0.863 -0.0269  0.1869 -0.1970
   23MOL   H261 9545   5.487   6.716   0.861  1.3275 -1.2365  3.4069
   23MOL   H262 9546   5.617   6.835   0.825 -1.3163 -0.7170 -2.9404
   23MOL   H263 9547   5.418   7.007   0.847  1.8568  0.3644 -0.4308
   23MOL   H264 9548   5.251   6.780   0.760  3.4239  1.0170 -1.0346
   23MOL   H265 9549   5.269   6.786   0.929  1.7862 -2.4757 -2.0984
   23MOL   H266 9550   5.126   6.995   0.630 -1.8150 -0.0785 -0.0458
   23MOL   H267 9551   5.206   7.127   0.721 -2.3616  2.4614  2.7558
   23MOL   H268 9552   5.048   7.111   0.746 -0.6915 -1.6712 -0.2129
   23MOL   H269 9553   5.078   7.102   0.994  0.5743  0.1652  2.6542
   23MOL   H270 9554   5.230   7.123   0.936 -1.0610  0.8116 -0.2366
   23MOL   H271 9555   5.195   6.992   1.061  0.7658 -0.8056 -0.8658
   23MOL   H272 9556   4.921   6.914   0.862 -0.5345 -0.6453  0.5030
   23MOL   H273 9557   5.003   6.801   0.771 -0.0511 -0.4021  0.1723
   23MOL   H274 9558   5.013   6.783   0.941 -0.4026  2.5246  2.1561
   23MOL   C275 9559   5.427   6.915   0.643 -0.4922 -0.1168 -0.3662
   23MOL   C276 9560   5.547   6.984   0.589 -0.6571  0.0267 -0.8430
   23MOL   C277 9561   5.539   6.996   0.433  0.0724 -0.3297 -0.1241
   23MOL   C278 9562   5.558   6.878   0.331 -0.3580  0.0204  0.6319
   23MOL   C279 9563   5.551   6.946   0.193 -0.4112  0.9377 -0.4397
   23MOL   C280 9564   5.679   6.785   0.356 -0.4981  0.2278  0.1776
   23MOL   C281 9565   5.428   6.802   0.338 -0.4820  0.5562 -0.2616
   23MOL   H282 9566   5.428   6.814   0.602  2.1756 -0.4473  0.4018
   23MOL   H283 9567   5.338   6.956   0.595  1.2860  1.7409 -2.1335
   23MOL   H284 9568   5.636   6.922   0.606 -1.9416 -1.6750 -0.1789
   23MOL   H285 9569   5.624   7.058   0.404 -0.8403  1.0458  0.0897
   23MOL   H286 9570   5.462   7.070   0.409  0.9359  1.0302  1.2280
   23MOL   H287 9571   5.578   6.884   0.108 -1.3144 -1.5344  1.0510
   23MOL   H288 9572   5.455   6.990   0.166 -1.3564 -0.3507  0.7789
   23MOL   H289 9573   5.628   7.023   0.196 -0.3656  0.9207 -1.0308
   23MOL   H290 9574   5.674   6.706   0.280 -0.5479  1.3969 -1.0480
   23MOL   H291 9575   5.687   6.742   0.456  3.3279  1.3724  0.4344
   23MOL   H292 9576   5.773   6.837   0.336 -0.9656  1.3046  0.7744
   23MOL   H293 9577   5.403   6.743   0.250 -2.3167 -0.8779  1.1854
   23MOL   H294 9578   5.340   6.866   0.341 -1.0844 -0.3008  0.8191
   23MOL   H295 9579   5.416   6.731   0.420 -1.9885 -0.0150 -0.9533
   23MOL   C296 9580   5.574   7.118   0.661 -0.1023  0.2641  0.1113
   23MOL   C297 9581   5.713   7.177   0.647 -1.2948  0.1802  0.0425
   23MOL   C298 9582   5.824   7.084   0.714  0.3754 -0.1644  0.1201
   23MOL   C299 9583   5.954   7.064   0.633 -0.8208  0.1769  0.7595
   23MOL   C300 9584   6.022   7.195   0.597 -0.0353 -0.3463 -0.6473
   23MOL   C301 9585   6.062   6.993   0.721 -0.3264  0.7563  0.3401
   23MOL   C302 9586   5.936   6.984   0.500 -0.1254 -0.3608  0.1162
   23MOL   H303 9587   5.558   7.103   0.768  1.5277 -1.7751  0.1064
   23MOL   H304 9588   5.497   7.183   0.619 -0.3604  1.0408  1.7603
   23MOL   H305 9589   5.727   7.191   0.540  1.3020  1.1565  0.4711
   23MOL   H306 9590   5.788   6.981   0.723  1.2302 -0.2472  2.9293
   23MOL   H307 9591   5.864   7.121   0.808  1.7540 -1.7151  0.1711
   23MOL   H308 9592   6.051   7.258   0.682 -0.9463 -1.0481  0.2002
   23MOL   H309 9593   6.106   7.183   0.529  1.2102 -0.0852  0.8254
   23MOL   H310 9594   5.953   7.260   0.543  0.0125 -0.3206 -0.6786
   23MOL   H311 9595   6.092   7.051   0.809  1.5988  2.5370 -1.4212
   23MOL   H312 9596   6.007   6.908   0.761  2.4711 -0.4552  1.7234
   23MOL   H313 9597   6.145   6.953   0.663 -0.6173  0.0564  0.4051
   23MOL   H314 9598   5.901   6.882   0.514  2.0722 -0.7266  3.4780
   23MOL   H315 9599   5.864   7.041   0.441  0.3273  0.7319  0.6120
   23MOL   H316 9600   6.022   6.965   0.436  0.5540  0.2126  0.8638
   23MOL   C317 9601   5.720   7.316   0.717 -0.3000 -0.2883  0.2229
   23MOL   C318 9602   5.639   7.429   0.647 -0.5961 -0.2547 -0.5508
   23MOL   C319 9603   5.641   7.549   0.737 -0.2185 -0.3388 -0.3384
   23MOL   C320 9604   5.539   7.565   0.852  0.0342 -0.0617  0.6611
   23MOL   C321 9605   5.522   7.447   0.947  0.6499  0.8989  0.3721
   23MOL   C322 9606   5.395   7.593   0.810  0.3604 -0.1619  0.5462
   23MOL   C323 9607   5.589   7.674   0.944  0.3114  0.0145 -0.2849
   23MOL   H324 9608   5.687   7.294   0.818  0.0516  1.1989  0.6730
   23MOL   H325 9609   5.824   7.344   0.731 -0.5078  0.3648  0.4333
   23MOL   H326 9610   5.538   7.388   0.646  0.2397 -2.4427 -0.1214
   23MOL   H327 9611   5.641   7.634   0.669 -0.6622  0.5621  0.7713
   23MOL   H328 9612   5.740   7.543   0.782 -0.8134 -2.6667  0.7426
   23MOL   H329 9613   5.467   7.368   0.896  2.1718  0.8056 -1.1429
   23MOL   H330 9614   5.454   7.463   1.031  1.2387 -3.2729  1.7883
   23MOL   H331 9615   5.617   7.412   0.987  0.0964 -2.5223 -1.1441
   23MOL   H332 9616   5.320   7.596   0.889 -0.5269 -3.5100 -0.0908
   23MOL   H333 9617   5.383   7.688   0.758  1.6141 -0.4365 -0.2775
   23MOL   H334 9618   5.361   7.512   0.745 -1.7105  0.5027  0.7633
   23MOL   H335 9619   5.599   0.002   0.891 -2.3443  0.7787  0.5116
   23MOL   H336 9620   5.686   7.641   0.981  1.7708  1.4289 -2.7285
   23MOL   H337 9621   5.522   7.703   1.026  0.1237  0.7856 -0.7069
   23MOL   C338 9622   5.693   7.463   0.506  0.5128 -0.2473  0.6235
   23MOL   C339 9623   5.586   7.486   0.398  0.4449  0.5310 -0.1047
   23MOL   C340 9624   5.631   7.530   0.253 -0.1733  0.6176 -0.0020
   23MOL   C341 9625   5.739   7.444   0.177  0.2827 -0.9346 -0.4405
   23MOL   C342 9626   5.708   7.292   0.180  0.7903  0.0612 -0.3154
   23MOL   C343 9627   5.741   7.494   0.035 -0.3532 -0.2651  0.2003
   23MOL   C344 9628   5.874   7.482   0.236 -0.6684  0.2263  0.2527
   23MOL   H345 9629   5.764   7.385   0.480  2.3535  1.4023  0.5050
   23MOL   H346 9630   5.757   7.551   0.513 -0.2402  0.2296  1.6919
   23MOL   H347 9631   5.545   7.387   0.378 -1.8410  1.0133  1.8993
   23MOL   H348 9632   5.675   7.630   0.259  2.9781 -0.7994  1.6140
   23MOL   H349 9633   5.540   7.532   0.192 -0.1527 -0.5653 -0.0789
   23MOL   H350 9634   5.717   7.265   0.285  1.0104  1.9255  0.1644
   23MOL   H351 9635   5.606   7.277   0.143  0.9970  1.4190 -1.4810
   23MOL   H352 9636   5.772   7.222   0.126 -0.7915 -1.4428 -0.3004
   23MOL   H353 9637   5.760   7.601   0.028 -0.0585 -0.3037  0.4480
   23MOL   H354 9638   5.806   7.433   7.738 -1.0501 -0.5913 -0.2118
   23MOL   H355 9639   5.641   7.491   7.757 -0.2029  0.7035 -0.2162
   23MOL   H356 9640   5.889   7.588   0.217 -0.5722 -0.1813 -2.0722
   23MOL   H357 9641   5.904   7.455   0.337  0.3599  0.8155  0.1091
   23MOL   H358 9642   5.945   7.430   0.171 -2.4434 -0.4682 -1.1819
   23MOL   C359 9643   5.460   7.572   0.444  0.1887 -0.1238 -0.3315
   23MOL   C360 9644   5.325   7.542   0.386 -1.4443  0.2315 -0.0824
   23MOL   C361 9645   5.220   7.624   0.462 -0.7822 -0.5635  1.0518
   23MOL   C362 9646   5.191   0.009   0.415  0.1537 -0.4037  0.3890
   23MOL   C363 9647   5.145   0.020   0.266 -0.2716  0.0643  0.1240
   23MOL   C364 9648   5.310   0.105   0.433  0.1635  0.1721 -0.1381
   23MOL   C365 9649   5.089   0.052   0.522 -0.0962  0.2788 -0.5281
   23MOL   H366 9650   5.496   7.675   0.449  1.5204 -0.5433 -0.8707
   23MOL   H367 9651   5.433   7.534   0.543  2.5672  0.9206  0.7561
   23MOL   H368 9652   5.333   7.571   0.282  1.6998 -0.4877 -0.1001
   23MOL   H369 9653   5.128   7.572   0.434  0.5235 -1.4884 -1.6895
   23MOL   H370 9654   5.221   7.623   0.571 -1.7612  0.5416  1.0812
   23MOL   H371 9655   5.096   0.116   0.247 -0.2914  0.1178  0.4453
   23MOL   H372 9656   5.223   0.012   0.191 -0.3747  1.1214 -0.1072
   23MOL   H373 9657   5.083   7.698   0.247  0.5805 -0.0900 -2.0558
   23MOL   H374 9658   5.271   0.201   0.399  4.0988  1.2709 -1.8694
   23MOL   H375 9659   5.390   0.078   0.363 -0.1677  1.0614 -0.8710
   23MOL   H376 9660   5.351   0.113   0.534 -3.1790  0.1517  1.2797
   23MOL   H377 9661   5.070   0.159   0.519  0.6942  0.4394  0.1751
   23MOL   H378 9662   5.126   0.046   0.624 -2.4862  0.9454  0.4117
   23MOL   H379 9663   4.993   0.002   0.517  0.8030 -1.3558 -2.5703
   23MOL   C380 9664   5.285   7.391   0.384  0.0872 -0.1520 -0.1557
   23MOL   C381 9665   5.205   7.349   0.253 -0.7153 -0.5450 -0.4937
   23MOL   C382 9666   5.127   7.220   0.275  0.1778 -0.4589 -0.1280
   23MOL   C383 9667   4.974   7.225   0.313 -0.2652  0.0169 -0.2108
   23MOL   C384 9668   4.944   7.305   0.438 -0.4908 -0.1034  0.0045
   23MOL   C385 9669   4.928   7.081   0.344 -0.1198 -0.0059  0.4517
   23MOL   C386 9670   4.901   7.273   0.192 -0.8066  0.1404 -0.5206
   23MOL   H387 9671   5.223   7.364   0.469  0.3683 -0.1199  0.0601
   23MOL   H388 9672   5.365   7.317   0.387  0.3104  0.0720 -0.5052
   23MOL   H389 9673   5.145   7.436   0.228 -0.5680  0.1245  1.3623
   23MOL   H390 9674   5.136   7.152   0.190 -1.7185 -0.5777 -0.2730
   23MOL   H391 9675   5.181   7.157   0.346 -2.4961 -0.7025  1.7904
   23MOL   H392 9676   4.965   7.411   0.425 -0.4708 -0.3345 -1.9847
   23MOL   H393 9677   4.838   7.299   0.464 -0.2192  2.1921  1.9219
   23MOL   H394 9678   5.004   7.282   0.526  1.6138  0.6472 -1.1984
   23MOL   H395 9679   4.999   7.040   0.415 -0.6696  0.1331  1.0879
   23MOL   H396 9680   4.919   7.016   0.257  0.6245  0.4075  0.0585
   23MOL   H397 9681   4.832   7.077   0.395 -0.8893  0.4705 -0.9032
   23MOL   H398 9682   4.935   7.366   0.147 -0.7676  0.3410 -0.0738
   23MOL   H399 9683   4.794   7.276   0.213 -0.7871 -0.3910 -0.3171
   23MOL   H400 9684   4.913   7.203   0.108 -2.7719 -1.8417  0.7860
   23MOL   C401 9685   5.291   7.335   0.128 -0.0870 -0.4889 -0.1722
   23MOL   C402 9686   5.222   7.362   7.754  0.0685  0.5893  0.1382
   23MOL   C403 9687   5.317   7.317   7.644  0.1586  0.3547 -1.0981
   23MOL   C404 9688   5.259   7.301   7.503 -0.1054  0.1247  0.0097
   23MOL   C405 9689   5.183   7.431   7.461 -0.1816 -0.0221 -0.0332
   23MOL   C406 9690   5.169   7.178   7.484  0.2739  0.0878 -0.2466
   23MOL   C407 9691   5.369   7.295   7.404 -0.5202  0.2346  0.0438
   23MOL   H408 9692   5.369   7.410   0.133  0.6417 -1.3466  1.8848
   23MOL   H409 9693   5.344   7.240   0.138 -2.5832 -1.9823 -0.7462
   23MOL   H410 9694   5.126   7.317   7.728 -0.2501  0.6997  1.1301
   23MOL   H411 9695   5.373   7.226   7.668  1.2740  1.5908  1.1083
   23MOL   H412 9696   5.389   7.398   7.643 -0.7879  1.2430  0.6567
   23MOL   H413 9697   5.248   7.518   7.469  2.3741 -1.7456 -1.1700
   23MOL   H414 9698   5.099   7.452   7.527  0.7765  2.2452  0.5080
   23MOL   H415 9699   5.153   7.432   7.356  0.6749 -0.9710 -0.3006
   23MOL   H416 9700   5.088   7.182   7.557  2.6617  1.3017  2.4382
   23MOL   H417 9701   5.214   7.079   7.494 -2.2617 -1.3936 -2.9741
   23MOL   H418 9702   5.128   7.164   7.385  0.5961  2.1421 -0.7028
   23MOL   H419 9703   5.413   7.196   7.419  1.1222  0.8986 -0.3674
   23MOL   H420 9704   5.340   7.314   7.301 -1.5459  0.3822  0.3503
   23MOL   H421 9705   5.446   7.371   7.415 -1.4695  1.1416  0.5275
   23MOL   H422 9706   5.209   7.470   7.759  0.2158  0.5421  1.6441
   24MOL     C1 9707   7.658   3.757   3.951  0.0482  0.4551 -0.2278
   24MOL     C2 9708   7.576   3.880   3.993 -0.3092  0.6960  0.0065
   24MOL     C3 9709   7.610   3.911   4.140  0.1506  0.0170  0.6275
   24MOL     C4 9710   7.578   4.054   4.192 -0.3111  0.1392 -0.1319
   24MOL     C5 9711   7.638   4.060   4.337  0.8250 -0.3830  0.4044
   24MOL     C6 9712   7.646   4.165   4.114 -0.5683  0.4846 -0.2993
   24MOL     C7 9713   7.435   4.096   4.203  0.3271 -0.0817  0.6925
   24MOL     H8 9714   7.644   3.725   3.848  2.4157 -0.2818 -0.3394
   24MOL     H9 9715   7.764   3.778   3.967  0.2347 -0.7447  0.2344
   24MOL    H10 9716   7.618   3.950   3.922  0.5059  0.0967 -0.1120
   24MOL    H11 9717   7.716   3.898   4.161  0.2596  0.7824  0.5528
   24MOL    H12 9718   7.551   3.835   4.192  0.0164 -0.8947 -0.8519
   24MOL    H13 9719   7.746   4.045   4.342  1.0172 -0.2826 -2.7586
   24MOL    H14 9720   7.579   3.997   4.404 -0.3129 -0.7424 -0.9328
   24MOL    H15 9721   7.623   4.161   4.373  0.1536 -0.1519 -0.5301
   24MOL    H16 9722   7.645   4.265   4.157  1.3939 -0.4884  2.1523
   24MOL    H17 9723   7.748   4.135   4.089 -0.4506 -0.5762  1.3735
   24MOL    H18 9724   7.602   4.175   4.015 -1.4240 -0.4859 -0.0211
   24MOL    H19 9725   7.425   4.198   4.242 -1.5221  0.9888 -2.4142
   24MOL    H20 9726   7.373   4.029   4.263 -1.8067 -0.9726 -2.4161
   24MOL    H21 9727   7.404   4.112   4.100  2.4682 -0.3682 -0.0278
   24MOL    H22 9728   7.643   3.669   4.014 -1.1055  2.1507  1.9473
   24MOL    C23 9729   7.428   3.845   3.970 -0.5490  0.2403  0.0135
   24MOL    C24 9730   7.370   3.839   3.818  0.3170  0.0481 -0.1949
   24MOL    C25 9731   7.381   3.981   3.753  0.4822 -0.8882  0.0376
   24MOL    C26 9732   7.418   3.988   3.604  0.5499 -0.1430 -0.6226
   24MOL    C27 9733   7.419   4.136   3.558 -0.2248  0.2045 -0.1748
   24MOL    C28 9734   7.554   3.919   3.585 -0.1902 -1.0274 -0.4612
   24MOL    C29 9735   7.312   3.914   3.520  0.0982 -0.0309  0.5282
   24MOL    H30 9736   7.407   3.754   4.026  1.4024 -0.5238 -0.4660
   24MOL    H31 9737   7.364   3.911   4.028 -0.1451  1.8186 -1.3187
   24MOL    H32 9738   7.424   3.762   3.762 -1.3262 -1.1434 -0.1646
   24MOL    H33 9739   7.452   4.047   3.804 -0.3272 -0.2692  0.3730
   24MOL    H34 9740   7.288   4.038   3.761  0.5616 -0.4610 -1.9903
   24MOL    H35 9741   7.347   4.202   3.606  0.0212  0.8532 -0.6911
   24MOL    H36 9742   7.514   4.176   3.595 -0.0749 -0.9755  0.7604
   24MOL    H37 9743   7.413   4.149   3.450  1.3199 -0.8315 -0.3979
   24MOL    H38 9744   7.630   3.930   3.662 -1.1940 -1.2794  0.5913
   24MOL    H39 9745   7.541   3.811   3.576 -1.0454 -0.9869  0.1738
   24MOL    H40 9746   7.589   3.953   3.488 -0.5695  1.7706  0.3458
   24MOL    H41 9747   7.307   3.806   3.538  0.3773  0.3377  3.0517
   24MOL    H42 9748   7.313   3.937   3.414  1.1815  2.4001  1.0323
   24MOL    H43 9749   7.215   3.943   3.562 -0.3766 -0.7730 -0.0454
   24MOL    C44 9750   7.220   3.790   3.826  0.2457  0.2374 -0.0322
   24MOL    C45 9751   7.198   3.647   3.878  0.7108 -0.7264  0.3514
   24MOL    C46 9752   7.201   3.549   3.758  0.1291 -0.7480 -0.5330
   24MOL    C47 9753   7.287   3.423   3.783 -0.2679 -0.4592  0.0501
   24MOL    C48 9754   7.235   3.339   3.896 -0.0137  0.0645  0.4352
   24MOL    C49 9755   7.433   3.466   3.820 -0.3681  0.1575  0.3673
   24MOL    C50 9756   7.284   3.332   3.664 -0.5254  0.1667  0.3167
   24MOL    H51 9757   7.159   3.849   3.895  1.0423  0.5009  0.4477
   24MOL    H52 9758   7.168   3.800   3.731  1.2573 -0.8076 -0.7071
   24MOL    H53 9759   7.261   3.622   3.964  1.1201  0.0450  0.2872
   24MOL    H54 9760   7.251   3.591   3.671 -1.1555  1.2720 -0.3177
   24MOL    H55 9761   7.101   3.528   3.720 -0.6518  3.4689 -1.0966
   24MOL    H56 9762   7.291   3.246   3.912 -0.8995 -0.1922  2.1867
   24MOL    H57 9763   7.130   3.315   3.880 -0.0160  1.0082 -1.0390
   24MOL    H58 9764   7.226   3.392   3.990 -1.2141  0.8185 -0.0963
   24MOL    H59 9765   7.483   3.528   3.745  2.3479  0.8088  2.6124
   24MOL    H60 9766   7.421   3.525   3.910  1.1122  0.2860  0.4916
   24MOL    H61 9767   7.501   3.384   3.842  0.5867  0.3605 -1.6402
   24MOL    H62 9768   7.184   3.316   3.624 -0.3452 -0.5154  0.1241
   24MOL    H63 9769   7.346   3.378   3.587 -0.0863 -1.4609 -0.3419
   24MOL    H64 9770   7.340   3.240   3.682 -0.0301  0.5331  0.6756
   24MOL    C65 9771   7.056   3.649   3.940  1.0250 -0.3928 -0.1687
   24MOL    C66 9772   7.039   3.691   4.095 -0.7222 -0.1115  0.0482
   24MOL    C67 9773   7.088   3.584   4.193 -0.1469  0.2789  0.6830
   24MOL    C68 9774   7.150   3.612   4.330  0.2703  0.0284 -0.0164
   24MOL    C69 9775   7.037   3.647   4.432 -0.1562 -0.2383  1.2530
   24MOL    C70 9776   7.224   3.486   4.387 -1.0830 -0.8413  0.9661
   24MOL    C71 9777   7.258   3.731   4.321  0.3212  0.5568 -0.3597
   24MOL    H72 9778   6.984   3.688   3.868  0.0186 -3.5991 -0.9713
   24MOL    H73 9779   7.022   3.547   3.956  2.2200 -1.1156 -2.1022
   24MOL    H74 9780   7.108   3.773   4.113  0.5646 -1.7009  2.6758
   24MOL    H75 9781   7.161   3.524   4.140 -0.4744  0.7318 -0.2862
   24MOL    H76 9782   7.002   3.518   4.201  0.6818 -0.8653  0.3529
   24MOL    H77 9783   6.950   3.581   4.430 -2.0428  2.1328  2.0425
   24MOL    H78 9784   7.071   3.647   4.536  2.0370 -3.1398  0.5720
   24MOL    H79 9785   7.000   3.747   4.407 -1.2265 -0.6585  1.1060
   24MOL    H80 9786   7.305   3.475   4.315 -2.5337  1.2434 -1.0570
   24MOL    H81 9787   7.160   3.398   4.389 -0.2342 -1.4766  0.3217
   24MOL    H82 9788   7.272   3.493   4.484 -1.6216  0.7635  1.1344
   24MOL    H83 9789   7.209   3.825   4.296 -0.9429 -0.1882 -0.7254
   24MOL    H84 9790   7.333   3.712   4.244  0.9689 -0.8352  0.6050
   24MOL    H85 9791   7.307   3.750   4.416 -1.5108 -1.4674  1.0309
   24MOL    C86 9792   6.888   3.733   4.111 -0.2278 -0.2644 -0.6435
   24MOL    C87 9793   6.854   3.883   4.088 -0.3546  0.6609 -0.2396
   24MOL    C88 9794   6.929   3.974   4.179 -0.1024 -0.0681 -0.6597
   24MOL    C89 9795   6.971   4.111   4.124  0.3245  0.9867 -0.4009
   24MOL    C90 9796   7.084   4.090   4.027  0.5468  0.1450  0.0292
   24MOL    C91 9797   7.034   4.189   4.240 -0.4643 -0.1892 -0.2742
   24MOL    C92 9798   6.858   4.199   4.065  1.0088 -0.0060 -0.5289
   24MOL    H93 9799   6.856   3.708   4.212 -1.1425  0.1110 -0.8332
   24MOL    H94 9800   6.825   3.679   4.041 -0.3545  1.5005 -1.9503
   24MOL    H95 9801   6.897   3.892   3.988  0.2603  2.8121  0.1849
   24MOL    H96 9802   7.013   3.923   4.225  0.3848  1.0691 -0.2585
   24MOL    H97 9803   6.855   4.001   4.255 -0.0262  0.8451 -0.9016
   24MOL    H98 9804   7.173   4.044   4.069 -1.1342 -2.5732  0.7897
   24MOL    H99 9805   7.111   4.181   3.974  2.5680 -0.7020 -0.4323
   24MOL   H100 9806   7.056   4.021   3.948  2.7233 -1.3201  0.4909
   24MOL   H101 9807   7.097   4.272   4.207  0.4992 -1.2203 -1.0751
   24MOL   H102 9808   6.967   4.226   4.317 -0.6996  0.1087 -0.6216
   24MOL   H103 9809   7.104   4.124   4.292  1.2925  1.9180  0.0747
   24MOL   H104 9810   6.787   4.227   4.142 -0.3794 -1.5602 -1.1994
   24MOL   H105 9811   6.900   4.279   4.003  0.4098  0.9791  0.3244
   24MOL   H106 9812   6.810   4.142   3.985 -0.6858  0.6184  0.0146
   24MOL   C107 9813   6.696   3.902   4.091  0.3621 -0.0357 -0.2749
   24MOL   C108 9814   6.615   3.847   3.976  0.6315  0.7983  0.2515
   24MOL   C109 9815   6.471   3.836   4.019 -0.0259 -0.0476  0.7514
   24MOL   C110 9816   6.412   3.711   4.076  0.3670 -0.7702 -0.1403
   24MOL   C111 9817   6.266   3.753   4.108 -0.4040  0.1254 -0.5299
   24MOL   C112 9818   6.478   3.667   4.208  0.4806 -0.0121  0.7817
   24MOL   C113 9819   6.406   3.593   3.987 -0.4770 -0.2457  0.1575
   24MOL   H114 9820   6.669   4.007   4.100  0.2677 -0.1923  1.4888
   24MOL   H115 9821   6.652   3.859   4.181  3.0127 -2.3512 -0.0104
   24MOL   H116 9822   6.647   3.748   3.945 -1.5425  0.1819 -0.1231
   24MOL   H117 9823   6.458   3.919   4.089  1.7077  1.4972 -0.6622
   24MOL   H118 9824   6.407   3.864   3.936  1.2170 -1.3576 -0.6778
   24MOL   H119 9825   6.219   3.799   4.021  1.3859  1.9907 -0.5286
   24MOL   H120 9826   6.208   3.664   4.133  3.3782 -2.5037 -0.6789
   24MOL   H121 9827   6.247   3.832   4.180 -2.9289 -1.2893  0.4181
   24MOL   H122 9828   6.499   3.746   4.280 -0.0091  1.3102 -0.5214
   24MOL   H123 9829   6.582   3.644   4.188  0.7696  0.6013  1.5550
   24MOL   H124 9830   6.430   3.583   4.260 -0.9681  1.4613  1.8974
   24MOL   H125 9831   6.343   3.511   4.023  0.5564 -0.4999  1.4392
   24MOL   H126 9832   6.504   3.546   3.971  0.1040  2.0928 -3.7259
   24MOL   H127 9833   6.370   3.620   3.888 -0.2553 -0.7492 -0.0646
   24MOL   C128 9834   6.630   3.938   3.848 -0.1541  0.1429 -0.3851
   24MOL   C129 9835   6.620   3.867   3.704  0.4747  0.2746 -0.6404
   24MOL   C130 9836   6.613   3.970   3.588  0.3038 -0.0113  0.4788
   24MOL   C131 9837   6.475   4.009   3.531 -0.3990  0.0112 -0.1193
   24MOL   C132 9838   6.370   4.035   3.646  0.5541  0.3488  0.2693
   24MOL   C133 9839   6.419   3.901   3.439 -0.3250 -0.6582  0.0086
   24MOL   C134 9840   6.500   4.129   3.442  0.0303 -0.4375  0.5405
   24MOL   H135 9841   6.709   4.011   3.856  0.4555 -0.7826  2.5948
   24MOL   H136 9842   6.540   3.999   3.859 -0.1555 -0.2246  1.8844
   24MOL   H137 9843   6.537   3.796   3.703 -1.1757  2.1709 -1.4485
   24MOL   H138 9844   6.666   4.058   3.626  0.3874 -0.2886  1.0146
   24MOL   H139 9845   6.676   3.932   3.508  2.9910  1.2647  1.8825
   24MOL   H140 9846   6.354   3.944   3.704  0.3455  1.1249  1.4385
   24MOL   H141 9847   6.280   4.055   3.588  0.6351 -0.8947 -0.3034
   24MOL   H142 9848   6.396   4.107   3.724  0.1412 -0.6631  1.3516
   24MOL   H143 9849   6.491   3.883   3.359 -1.2632  2.0582 -1.4860
   24MOL   H144 9850   6.331   3.934   3.384 -0.0641 -2.0566 -1.2994
   24MOL   H145 9851   6.388   3.814   3.497  1.6794 -2.5137 -1.5589
   24MOL   H146 9852   6.584   4.109   3.375 -0.7472  1.4509 -1.0358
   24MOL   H147 9853   6.422   4.159   3.372  0.8902 -1.9659 -1.1238
   24MOL   H148 9854   6.528   4.213   3.506 -3.6590  2.1083 -1.0515
   24MOL   C149 9855   6.733   3.773   3.675 -0.1014  0.2062  0.0050
   24MOL   C150 9856   6.704   3.657   3.573 -0.0191  0.2697 -0.2276
   24MOL   C151 9857   6.843   3.602   3.516  0.4987 -0.4262 -0.7063
   24MOL   C152 9858   6.914   3.682   3.399 -0.4677  0.0997  0.5218
   24MOL   C153 9859   7.034   3.600   3.352 -0.4722  0.0149  0.0950
   24MOL   C154 9860   6.980   3.812   3.446 -0.6559 -0.8504  0.1058
   24MOL   C155 9861   6.820   3.697   3.272  0.6157  0.1548  0.1185
   24MOL   H156 9862   6.770   3.725   3.765  1.2815 -2.3251 -1.8318
   24MOL   H157 9863   6.818   3.830   3.639  1.8930 -1.9075  1.2950
   24MOL   H158 9864   6.653   3.704   3.489  1.6155  0.5731 -1.0770
   24MOL   H159 9865   6.835   3.499   3.480 -0.4621 -0.2252 -1.0850
   24MOL   H160 9866   6.910   3.594   3.602 -0.5175 -1.5090  0.0060
   24MOL   H161 9867   6.990   3.504   3.325  2.1065 -0.4772 -2.5428
   24MOL   H162 9868   7.087   3.660   3.278 -0.3012  1.2161  1.1728
   24MOL   H163 9869   7.108   3.586   3.430  1.2854  1.2436 -1.3110
   24MOL   H164 9870   7.054   3.843   3.372 -1.1544  1.1896  0.4358
   24MOL   H165 9871   7.014   3.807   3.550 -1.4576  0.2054  0.4275
   24MOL   H166 9872   6.898   3.883   3.454 -0.6612 -0.9955  1.6090
   24MOL   H167 9873   6.727   3.749   3.292 -1.3031 -2.8955 -0.6017
   24MOL   H168 9874   6.870   3.751   3.191 -0.8904  1.1322 -0.1822
   24MOL   H169 9875   6.799   3.596   3.237  0.8517 -0.8866  2.8638
   24MOL   C170 9876   6.609   3.550   3.612 -0.1335  0.0226 -0.2112
   24MOL   C171 9877   6.551   3.442   3.508 -0.5674 -0.0661  0.2770
   24MOL   C172 9878   6.438   3.510   3.423 -0.3299 -0.3772  0.5091
   24MOL   C173 9879   6.404   3.466   3.279  0.5121  0.0001  0.1983
   24MOL   C174 9880   6.522   3.469   3.187 -0.1660 -0.6148  0.5824
   24MOL   C175 9881   6.308   3.571   3.216 -0.2238  0.4143 -0.0134
   24MOL   C176 9882   6.328   3.337   3.273  0.5538  0.3387  0.1436
   24MOL   H177 9883   6.521   3.593   3.661  0.7932  1.4616  0.2192
   24MOL   H178 9884   6.654   3.491   3.693  0.5066  0.7209 -0.0506
   24MOL   H179 9885   6.636   3.426   3.442  0.0545  4.5062 -0.1372
   24MOL   H180 9886   6.345   3.515   3.479 -0.5932 -2.7762  0.3595
   24MOL   H181 9887   6.461   3.616   3.418 -1.3860 -0.1458  0.2947
   24MOL   H182 9888   6.556   3.572   3.172 -1.1354 -0.4281 -0.4743
   24MOL   H183 9889   6.586   3.389   3.222 -0.4307 -0.7378  0.7797
   24MOL   H184 9890   6.500   3.433   3.086  0.5844 -1.9113  0.8747
   24MOL   H185 9891   6.265   3.559   3.117  1.0663  0.0802 -0.5461
   24MOL   H186 9892   6.216   3.577   3.274 -0.5919  0.7916 -0.6291
   24MOL   H187 9893   6.349   3.672   3.214 -0.5283  0.5308 -3.2892
   24MOL   H188 9894   6.250   3.328   3.349 -1.2929  2.8385 -1.3403
   24MOL   H189 9895   6.272   3.311   3.183 -0.2776 -2.3996  1.3846
   24MOL   H190 9896   6.395   3.255   3.297 -0.0207  0.4399  2.2587
   24MOL   C191 9897   6.513   3.309   3.578 -0.7587  0.3980 -0.0749
   24MOL   C192 9898   6.638   3.213   3.590  0.3663 -0.4860  1.1769
   24MOL   C193 9899   6.651   3.153   3.446 -0.2025  0.0609 -0.4648
   24MOL   C194 9900   6.797   3.109   3.393  0.5124 -0.4639  0.3230
   24MOL   C195 9901   6.888   3.238   3.389  0.1509  0.0564 -0.5521
   24MOL   C196 9902   6.788   3.065   3.246 -0.0385  0.5705  0.8159
   24MOL   C197 9903   6.858   2.988   3.472 -0.5121 -1.5065  0.1621
   24MOL   H198 9904   6.485   3.340   3.678  0.0361 -1.2870  0.6954
   24MOL   H199 9905   6.434   3.250   3.531  1.5800 -2.2887 -0.7759
   24MOL   H200 9906   6.727   3.273   3.610  2.7677 -2.7026 -2.3853
   24MOL   H201 9907   6.619   3.226   3.372  2.5598  0.1118 -1.6944
   24MOL   H202 9908   6.586   3.066   3.443 -2.8288  1.9262 -0.0049
   24MOL   H203 9909   6.844   3.303   3.313 -0.3256 -0.7147 -0.9411
   24MOL   H204 9910   6.887   3.287   3.486 -2.4439  2.2723 -1.6289
   24MOL   H205 9911   6.985   3.216   3.347 -0.3703  2.4952 -3.2250
   24MOL   H206 9912   6.889   3.040   3.212  0.5756  2.3085  1.3117
   24MOL   H207 9913   6.730   2.973   3.240  0.9646 -0.0510  0.5638
   24MOL   H208 9914   6.738   3.136   3.180  0.9048  1.0578  0.6131
   24MOL   H209 9915   6.898   3.015   3.569  0.7595 -0.5884 -0.6039
   24MOL   H210 9916   6.786   2.908   3.488  1.5442 -3.5706 -0.6845
   24MOL   H211 9917   6.927   2.933   3.409  0.8494 -0.9124  1.1256
   24MOL   C212 9918   6.613   3.090   3.689 -0.1619  0.7766  0.1518
   24MOL   C213 9919   6.619   3.118   3.842  0.1098 -0.6726  0.4982
   24MOL   C214 9920   6.755   3.167   3.904  0.5168  0.4988 -0.3445
   24MOL   C215 9921   6.759   3.243   4.044 -0.1962  0.4590 -0.4839
   24MOL   C216 9922   6.687   3.376   4.056 -0.3836 -0.1165 -0.2632
   24MOL   C217 9923   6.693   3.161   4.153  0.0663  0.8238 -0.1643
   24MOL   C218 9924   6.906   3.259   4.079  0.6099 -0.2006 -0.4426
   24MOL   H219 9925   6.518   3.051   3.654 -0.3707  1.9876 -0.6526
   24MOL   H220 9926   6.685   3.011   3.668 -0.6103  0.6461 -0.9202
   24MOL   H221 9927   6.556   3.202   3.871 -0.9704 -0.9218 -1.0801
   24MOL   H222 9928   6.803   3.222   3.823  0.7475  1.2988  0.3294
   24MOL   H223 9929   6.816   3.077   3.912 -0.1807 -0.1525 -2.0812
   24MOL   H224 9930   6.706   3.428   3.962  1.5822  0.6726  0.5436
   24MOL   H225 9931   6.719   3.429   4.145 -0.6008 -1.7975  0.8375
   24MOL   H226 9932   6.580   3.354   4.058 -0.2055 -1.0854 -0.9549
   24MOL   H227 9933   6.586   3.141   4.151  0.2554 -0.1647 -1.4883
   24MOL   H228 9934   6.743   3.064   4.159 -1.1310  0.1011 -1.4812
   24MOL   H229 9935   6.706   3.202   4.253  1.3130  1.2113 -0.4777
   24MOL   H230 9936   6.940   3.310   4.169  2.5394  0.6908 -1.6228
   24MOL   H231 9937   6.948   3.324   4.001  1.6841  2.6557  2.4190
   24MOL   H232 9938   6.964   3.168   4.065  0.9332  0.1711 -1.6581
   24MOL   C233 9939   6.557   2.986   3.899 -0.3878 -1.0156  0.4344
   24MOL   C234 9940   6.410   2.948   3.887 -0.0257 -0.3640  0.1736
   24MOL   C235 9941   6.368   2.824   3.972 -0.5809 -0.0486  0.5041
   24MOL   C236 9942   6.379   2.680   3.906  0.5628  0.1340  0.0019
   24MOL   C237 9943   6.518   2.654   3.850  0.0806  0.9484 -0.7235
   24MOL   C238 9944   6.348   2.572   4.018 -0.2382  0.8392 -0.1083
   24MOL   C239 9945   6.274   2.659   3.793  0.4004  0.3588 -0.0461
   24MOL   H240 9946   6.590   2.973   4.002  0.3273  1.8531  0.5865
   24MOL   H241 9947   6.614   2.909   3.845 -0.9187 -1.0512 -0.0823
   24MOL   H242 9948   6.387   2.921   3.784  0.1657  1.9181 -0.4888
   24MOL   H243 9949   6.429   2.818   4.062 -0.6858 -1.7968  0.4687
   24MOL   H244 9950   6.268   2.837   4.012 -0.2635  0.3068  1.2044
   24MOL   H245 9951   6.534   2.555   3.809 -3.7995  0.6312 -1.7203
   24MOL   H246 9952   6.587   2.672   3.932  0.1546 -0.9714 -0.3416
   24MOL   H247 9953   6.547   2.727   3.774 -0.2861 -0.1856 -1.9761
   24MOL   H248 9954   6.370   2.468   3.993  0.6123  0.8496  0.6021
   24MOL   H249 9955   6.415   2.596   4.100 -2.1366 -2.6452  2.5842
   24MOL   H250 9956   6.253   2.572   4.071 -0.9089 -0.8885 -1.2429
   24MOL   H251 9957   6.263   2.553   3.772 -0.1695  0.3168  0.4351
   24MOL   H252 9958   6.177   2.693   3.829  0.7316  0.1701  1.0569
   24MOL   H253 9959   6.290   2.722   3.705 -0.8794 -0.7384 -1.0794
   24MOL   C254 9960   6.317   3.061   3.938  0.5839 -0.4795  0.5459
   24MOL   C255 9961   6.168   3.062   3.877 -0.1538  0.1768  0.6468
   24MOL   C256 9962   6.160   3.111   3.731 -0.2926  0.2677  0.6393
   24MOL   C257 9963   6.041   3.067   3.635 -0.6142  0.5275  0.8695
   24MOL   C258 9964   5.900   3.079   3.689 -0.3314  0.0137  0.2242
   24MOL   C259 9965   6.065   2.913   3.595  0.1589  0.4168 -0.5015
   24MOL   C260 9966   6.059   3.148   3.508  0.6002  0.2115  0.1851
   24MOL   H261 9967   6.361   3.157   3.911  1.9871 -1.8312 -2.3132
   24MOL   H262 9968   6.319   3.054   4.046 -0.0214  3.6975  0.9191
   24MOL   H263 9969   6.127   2.961   3.879 -0.7711  0.3570 -1.5589
   24MOL   H264 9970   6.158   3.220   3.722 -0.8983  0.2757  0.8602
   24MOL   H265 9971   6.260   3.093   3.690 -1.0576 -1.4930 -0.5039
   24MOL   H266 9972   5.825   3.074   3.611  0.4127 -0.2415 -0.4793
   24MOL   H267 9973   5.880   3.177   3.731 -0.1795  0.3825 -0.5552
   24MOL   H268 9974   5.880   3.012   3.773  0.2336  0.0171  0.3681
   24MOL   H269 9975   5.991   2.895   3.517 -0.9684 -0.1631  0.6830
   24MOL   H270 9976   6.042   2.834   3.667  0.3233  1.5605  0.8174
   24MOL   H271 9977   6.157   2.893   3.541 -0.4628  2.2060 -2.3091
   24MOL   H272 9978   6.162   3.140   3.473  1.5691  2.1479  2.4838
   24MOL   H273 9979   5.995   3.113   3.427  1.8265 -1.1853 -0.2046
   24MOL   H274 9980   6.037   3.255   3.511  2.2993  0.5487  1.6243
   24MOL   C275 9981   6.078   3.139   3.970 -0.3332  0.1268 -0.2912
   24MOL   C276 9982   6.036   3.069   4.105 -0.8975 -0.2838  0.7425
   24MOL   C277 9983   5.984   3.179   4.197  0.3844  0.5893 -0.6120
   24MOL   C278 9984   6.088   3.250   4.292  0.0007 -0.0155 -0.3051
   24MOL   C279 9985   6.189   3.337   4.213  0.7086 -0.1911 -0.3857
   24MOL   C280 9986   6.008   3.351   4.372 -0.2233  0.1658  0.0647
   24MOL   C281 9987   6.161   3.150   4.383 -0.3285  0.5290  0.1149
   24MOL   H282 9988   6.124   3.236   3.986 -2.7444  1.2334  0.0302
   24MOL   H283 9989   5.979   3.161   3.931 -0.6806 -1.0089 -0.0909
   24MOL   H284 9990   6.127   3.034   4.155 -0.3778 -1.4176 -0.9706
   24MOL   H285 9991   5.894   3.148   4.251 -0.7011  0.7101 -2.3381
   24MOL   H286 9992   5.935   3.253   4.134  3.8846  3.5681  0.0209
   24MOL   H287 9993   6.266   3.283   4.158  0.0261  0.2787 -1.8364
   24MOL   H288 9994   6.129   3.397   4.144 -0.3179 -0.4492  0.2738
   24MOL   H289 9995   6.238   3.405   4.283  3.0252 -1.1640 -1.0091
   24MOL   H290 9996   6.060   3.386   4.461  1.5378  0.8365 -1.2142
   24MOL   H291 9997   5.912   3.317   4.410  0.2753  0.1452  1.3332
   24MOL   H292 9998   5.990   3.440   4.312  2.9901  0.4543 -0.5765
   24MOL   H293 9999   6.239   3.106   4.321 -1.3967 -1.6954  0.2930
   24MOL   H29410000   6.100   3.074   4.431 -0.4777 -0.2583 -1.2951
   24MOL   H29510001   6.214   3.204   4.462 -0.9811  0.3593  0.6732
   24MOL   C29610002   5.942   2.952   4.078  0.0748 -0.2885  0.0178
   24MOL   C29710003   5.922   2.866   4.203 -0.1440 -0.3192  0.4740
   24MOL   C29810004   6.041   2.778   4.230  0.4558 -0.4714  0.0002
   24MOL   C29910005   6.063   2.702   4.366  0.4516  0.0228 -0.2319
   24MOL   C30010006   5.966   2.753   4.482  0.3239  0.1119  0.6372
   24MOL   C30110007   6.021   2.556   4.344 -0.4186 -1.2923  0.7154
   24MOL   C30210008   6.204   2.710   4.409 -0.1033  0.1957 -0.2219
   24MOL   H30310009   5.974   2.880   4.003  0.5191  0.0087 -0.0832
   24MOL   H30410010   5.848   2.988   4.037 -0.2907 -0.1433  0.9784
   24MOL   H30510011   5.906   2.928   4.291  0.4123 -0.7286  0.8667
   24MOL   H30610012   6.126   2.845   4.217 -2.0080  2.1852 -3.3658
   24MOL   H30710013   6.050   2.716   4.140  1.7102  0.4450 -0.5194
   24MOL   H30810014   5.988   2.857   4.506  0.8975 -0.2212  1.5958
   24MOL   H30910015   5.861   2.754   4.455  0.1727  0.2622  1.2246
   24MOL   H31010016   5.989   2.691   4.569  1.2382  0.4574  0.6419
   24MOL   H31110017   6.024   2.502   4.439 -2.9069  1.4915  2.4742
   24MOL   H31210018   5.921   2.546   4.302 -0.4675 -3.7825  1.3606
   24MOL   H31310019   6.093   2.506   4.279  0.5732  0.0173  0.7683
   24MOL   H31410020   6.211   2.801   4.468 -1.6644  0.1067  0.1441
   24MOL   H31510021   6.238   2.625   4.469  2.1981 -0.0118 -1.7711
   24MOL   H31610022   6.262   2.711   4.317 -0.2530 -0.1116 -0.3208
   24MOL   C31710023   5.793   2.773   4.185 -0.3991  0.3615  0.9884
   24MOL   C31810024   5.654   2.848   4.197  0.0703  0.4355 -0.5655
   24MOL   C31910025   5.541   2.752   4.141  0.3786  1.1056 -0.3841
   24MOL   C32010026   5.494   2.781   3.999 -0.5334 -0.3182 -0.2007
   24MOL   C32110027   5.613   2.766   3.895  1.1147  0.7122  0.3911
   24MOL   C32210028   5.427   2.913   3.990  0.3281 -0.5866  0.0344
   24MOL   C32310029   5.385   2.684   3.965  0.1532  0.3180  0.5306
   24MOL   H32410030   5.791   2.723   4.088  0.5468 -1.2060  1.7602
   24MOL   H32510031   5.785   2.686   4.249 -1.2421 -1.0691 -1.0021
   24MOL   H32610032   5.654   2.940   4.139 -1.2605  1.4009  0.9049
   24MOL   H32710033   5.451   2.761   4.201 -1.2017 -2.1901 -2.1159
   24MOL   H32810034   5.571   2.649   4.155  2.1591  1.7024  0.3047
   24MOL   H32910035   5.697   2.835   3.892  0.5659  1.4338  1.3070
   24MOL   H33010036   5.579   2.763   3.791  2.2685 -1.5443  0.0455
   24MOL   H33110037   5.654   2.667   3.912 -0.4975 -0.1815 -0.7177
   24MOL   H33210038   5.387   2.933   3.890  1.7194  0.1752 -0.3832
   24MOL   H33310039   5.344   2.918   4.061 -0.4897  0.6363 -0.9917
   24MOL   H33410040   5.497   2.989   4.024 -0.9391  1.6086 -2.1280
   24MOL   H33510041   5.299   2.691   4.031 -1.0931 -1.0745 -0.8970
   24MOL   H33610042   5.418   2.580   3.969  0.1572  0.2980  0.0116
   24MOL   H33710043   5.353   2.691   3.861  0.0594 -2.2240  0.3505
   24MOL   C33810044   5.627   2.868   4.350  0.7182 -0.1478 -0.1756
   24MOL   C33910045   5.509   2.955   4.399  0.3972  0.4080  0.2909
   24MOL   C34010046   5.550   3.097   4.374 -0.0663 -0.9147  0.5123
   24MOL   C34110047   5.439   3.207   4.358  0.4914  0.0412  0.5554
   24MOL   C34210048   5.508   3.331   4.301  0.6341 -0.3944  0.8660
   24MOL   C34310049   5.338   3.161   4.256  0.0404 -0.3737  0.2619
   24MOL   C34410050   5.372   3.242   4.490 -0.8303  0.9694  0.2201
   24MOL   H34510051   5.720   2.900   4.398 -1.2882 -0.0225  3.8060
   24MOL   H34610052   5.604   2.767   4.383  0.9328  0.0369  0.5480
   24MOL   H34710053   5.415   2.931   4.349 -0.8131 -0.7524  3.0479
   24MOL   H34810054   5.614   3.100   4.285 -2.3245  0.2051 -1.1489
   24MOL   H34910055   5.617   3.136   4.451  0.8962 -0.3244 -0.6028
   24MOL   H35010056   5.586   3.380   4.359  1.0048 -1.2112  1.0653
   24MOL   H35110057   5.546   3.310   4.201  1.1245 -1.0779  1.1891
   24MOL   H35210058   5.443   3.418   4.306  2.7818  1.3333 -0.2874
   24MOL   H35310059   5.388   3.104   4.178 -1.4003 -3.4053  1.4716
   24MOL   H35410060   5.270   3.095   4.310  1.0118  0.2177  2.2567
   24MOL   H35510061   5.284   3.242   4.207  2.6100  1.4577  0.3675
   24MOL   H35610062   5.310   3.160   4.527 -0.4473 -0.3140 -1.9081
   24MOL   H35710063   5.444   3.274   4.565 -0.7343 -2.5051  1.6990
   24MOL   H35810064   5.297   3.321   4.478 -0.7702  1.0290  0.2314
   24MOL   C35910065   5.489   2.930   4.548 -0.2427  0.0064  0.3348
   24MOL   C36010066   5.412   2.795   4.586  0.3231 -0.2040 -0.9246
   24MOL   C36110067   5.260   2.806   4.552 -0.7508  0.0036 -0.3560
   24MOL   C36210068   5.188   2.673   4.517  0.2415 -0.7586 -0.0542
   24MOL   C36310069   5.047   2.697   4.466 -0.1682  0.0294 -0.3150
   24MOL   C36410070   5.155   2.594   4.650  0.2624 -0.0671  0.2203
   24MOL   C36510071   5.279   2.584   4.430  0.2483 -0.2931  0.2660
   24MOL   H36610072   5.459   3.025   4.593  0.9969  1.0334 -0.9569
   24MOL   H36710073   5.581   2.923   4.607 -1.2518 -1.5757  1.8024
   24MOL   H36810074   5.460   2.717   4.527 -0.0718 -0.7717 -0.4963
   24MOL   H36910075   5.213   2.859   4.634 -1.7242 -0.5593 -0.5314
   24MOL   H37010076   5.245   2.867   4.463 -1.1420 -0.5959 -0.7087
   24MOL   H37110077   5.046   2.747   4.370 -1.1143 -3.2403 -2.0681
   24MOL   H37210078   5.001   2.601   4.441 -0.4473  0.0497  0.1041
   24MOL   H37310079   4.972   2.743   4.531 -1.7642 -1.2286 -1.2394
   24MOL   H37410080   5.246   2.544   4.682  0.7719 -1.5050 -3.2240
   24MOL   H37510081   5.083   2.513   4.642  1.8779 -1.4405 -0.8233
   24MOL   H37610082   5.120   2.663   4.726  0.9860  0.6741 -0.1066
   24MOL   H37710083   5.326   2.642   4.350 -0.8184  2.0900  1.3271
   24MOL   H37810084   5.216   2.507   4.387 -2.8438  2.0190  0.4959
   24MOL   H37910085   5.366   2.536   4.475  1.8723  0.5627 -1.8782
   24MOL   C38010086   5.428   2.762   4.740 -0.3073  0.2361  0.5280
   24MOL   C38110087   5.556   2.702   4.786 -0.3342 -0.5810 -0.5889
   24MOL   C38210088   5.552   2.549   4.786 -0.2254 -0.2765 -0.4369
   24MOL   C38310089   5.675   2.463   4.737  0.1653 -0.7054 -0.6740
   24MOL   C38410090   5.802   2.489   4.822  0.0405 -0.4679  0.7437
   24MOL   C38510091   5.696   2.498   4.591 -0.1056  0.0082 -0.5232
   24MOL   C38610092   5.632   2.313   4.731 -0.8367  0.1275 -0.1901
   24MOL   H38710093   5.341   2.704   4.771 -2.0350  1.2263 -2.2490
   24MOL   H38810094   5.421   2.855   4.796 -0.6518  1.6419 -1.7614
   24MOL   H38910095   5.635   2.741   4.723 -0.9741  1.7954  0.0280
   24MOL   H39010096   5.534   2.522   4.890 -0.8254  1.3087 -0.1205
   24MOL   H39110097   5.462   2.510   4.738  0.0573  1.2555 -2.2330
   24MOL   H39210098   5.816   2.597   4.821 -0.8644 -0.3417 -0.4883
   24MOL   H39310099   5.805   2.452   4.924 -1.0473  0.0911  0.9879
   24MOL   H39410100   5.887   2.437   4.779  0.5178  0.3955  0.6341
   24MOL   H39510101   5.605   2.461   4.544  1.4014 -2.9958 -1.1914
   24MOL   H39610102   5.773   2.428   4.557 -0.7227 -0.4535 -0.9789
   24MOL   H39710103   5.714   2.604   4.570 -2.3471  0.4883 -0.1171
   24MOL   H39810104   5.704   2.241   4.693  0.2471  0.7210  0.6950
   24MOL   H39910105   5.543   2.300   4.671 -0.9309  1.5066 -0.3614
   24MOL   H40010106   5.582   2.289   4.825  0.0585  1.8711  0.7560
   24MOL   C40110107   5.606   2.754   4.923  0.3662 -0.1698 -0.3472
   24MOL   C40210108   5.657   2.900   4.935  0.1422 -0.0068 -0.2478
   24MOL   C40310109   5.777   2.934   4.845  0.6670 -0.9473  0.3499
   24MOL   C40410110   5.822   3.087   4.844 -0.2767 -0.3866  0.3421
   24MOL   C40510111   5.706   3.179   4.804 -0.3680  0.2496  0.2189
   24MOL   C40610112   5.928   3.111   4.737  0.2188 -0.1722 -0.4519
   24MOL   C40710113   5.870   3.138   4.977  0.2161 -0.1302 -0.0998
   24MOL   H40810114   5.521   2.743   4.989 -0.0985 -0.8307 -1.0440
   24MOL   H40910115   5.682   2.689   4.965  0.0229 -0.8258 -0.7288
   24MOL   H41010116   5.576   2.967   4.907  0.3137 -0.3665 -1.6560
   24MOL   H41110117   5.749   2.901   4.745 -0.2715  1.5515 -0.2387
   24MOL   H41210118   5.851   2.860   4.874 -0.6333 -2.4028  0.0353
   24MOL   H41310119   5.670   3.163   4.703 -0.5254  0.9666  0.1583
   24MOL   H41410120   5.746   3.281   4.798  0.3134  0.0481  1.1264
   24MOL   H41510121   5.621   3.183   4.872  0.6154  2.9439  1.3760
   24MOL   H41610122   6.019   3.053   4.756  1.3326  1.9351  0.8462
   24MOL   H41710123   5.962   3.214   4.736  0.4729 -0.2479  0.1658
   24MOL   H41810124   5.895   3.075   4.640  0.2118  0.3588 -0.6436
   24MOL   H41910125   5.960   3.080   4.999 -1.4804 -1.5227  3.5241
   24MOL   H42010126   5.888   3.245   4.987  0.3675 -0.0944 -0.7231
   24MOL   H42110127   5.797   3.113   5.053  1.6461 -1.7274  0.7580
   24MOL   H42210128   5.684   2.915   5.040  1.7033 -1.3512 -0.4331
   25MOL     C110129   0.332   7.554   2.127 -0.1769  0.5551 -0.3685
   25MOL     C210130   0.392   7.651   2.231  0.3749 -0.0356  0.0824
   25MOL     C310131   0.524   7.702   2.179 -0.3245 -0.3040  0.2793
   25MOL     C410132   0.553   0.087   2.209  0.3031  0.4023  0.2619
   25MOL     C510133   0.534   0.129   2.357 -0.3159  0.0236 -0.0599
   25MOL     C610134   0.701   0.101   2.184  0.1109 -0.0196 -0.0698
   25MOL     C710135   0.467   0.188   2.123  0.1735  0.0886 -0.1309
   25MOL     H810136   0.394   7.465   2.128  1.1567  1.4640 -0.2286
   25MOL     H910137   0.231   7.518   2.143  0.9332 -2.4717  0.2061
   25MOL    H1010138   0.318   7.731   2.240  0.9883  0.6771 -1.0215
   25MOL    H1110139   0.529   7.697   2.070 -0.7178  0.6575  0.2099
   25MOL    H1210140   0.598   7.633   2.218 -1.7005 -1.3091  1.1161
   25MOL    H1310141   0.428   0.133   2.381 -0.4641 -1.1088 -0.4895
   25MOL    H1410142   0.574   0.228   2.377  0.2651 -0.2839  0.3176
   25MOL    H1510143   0.582   0.069   2.435  0.7693  0.6040 -0.2739
   25MOL    H1610144   0.717   0.062   2.083 -0.1531 -0.0576 -0.0968
   25MOL    H1710145   0.740   0.203   2.190 -0.2985  0.0831  0.8673
   25MOL    H1810146   0.761   0.027   2.237  1.0002  0.0462 -0.9645
   25MOL    H1910147   0.460   0.163   2.018 -1.5200  0.6499 -0.1699
   25MOL    H2010148   0.509   0.289   2.128  1.2931 -0.4055  0.6723
   25MOL    H2110149   0.364   0.188   2.160 -0.3903  3.7312 -1.4093
   25MOL    H2210150   0.329   7.603   2.030  3.4263  0.1874 -0.7314
   25MOL    C2310151   0.386   7.594   2.377  0.4056  0.0359 -0.2781
   25MOL    C2410152   0.246   7.560   2.438 -0.5098  0.8654 -0.0740
   25MOL    C2510153   0.149   7.682   2.464 -0.2083  0.9186 -0.1774
   25MOL    C2610154   7.763   7.665   2.458  0.3700  0.0389  0.6227
   25MOL    C2710155   7.724   7.603   2.322  0.5721 -0.0155  0.4068
   25MOL    C2810156   7.710   7.585   2.576 -0.0772  0.3959 -0.0533
   25MOL    C2910157   7.708   0.041   2.470  0.5989 -0.3703 -0.9424
   25MOL    H3010158   0.460   7.514   2.383  1.1323  0.6887 -0.4896
   25MOL    H3110159   0.437   7.665   2.441  0.9200 -1.9125  1.5356
   25MOL    H3210160   0.201   7.485   2.372 -1.2263  2.0154 -0.9051
   25MOL    H3310161   0.192   0.003   2.414  1.9120 -0.5643 -1.0148
   25MOL    H3410162   0.167   7.713   2.567  3.6598  1.9089 -1.0898
   25MOL    H3510163   0.036   7.637   2.253  0.3196 -1.0368 -0.4071
   25MOL    H3610164   7.735   7.494   2.326  0.3491 -0.0891 -0.7780
   25MOL    H3710165   7.626   7.639   2.291  1.2948  2.0077  0.4063
   25MOL    H3810166   7.765   7.609   2.667  3.0882  3.0681 -2.5453
   25MOL    H3910167   7.606   7.605   2.597 -1.0262 -1.5712 -2.5590
   25MOL    H4010168   7.707   7.479   2.551  1.9727  0.0126  1.1821
   25MOL    H4110169   7.602   0.035   2.494  0.4036 -1.2684 -2.0032
   25MOL    H4210170   7.724   0.097   2.378 -0.7213  0.9285 -0.3985
   25MOL    H4310171   7.744   0.100   2.554  0.2728  0.6968 -1.5418
   25MOL    C4410172   0.273   7.488   2.573  0.5648 -0.2667 -0.1991
   25MOL    C4510173   0.320   7.339   2.572  0.1005  0.4894  0.3643
   25MOL    C4610174   0.198   7.247   2.533 -1.0567 -0.5191 -0.1018
   25MOL    C4710175   0.221   7.126   2.441 -0.2684  0.0627 -0.1450
   25MOL    C4810176   0.339   7.035   2.483  0.7684  0.3075 -0.6403
   25MOL    C4910177   0.259   7.176   2.299  0.3977 -0.0344  0.5057
   25MOL    C5010178   0.089   7.055   2.435  0.2037  0.4912  0.0710
   25MOL    H5110179   0.340   7.555   2.627  0.0012  0.5632 -0.5279
   25MOL    H5210180   0.184   7.491   2.636 -0.4535 -1.1434 -1.5674
   25MOL    H5310181   0.399   7.328   2.498 -1.2894 -0.5537 -0.9989
   25MOL    H5410182   0.116   7.307   2.495 -0.5669 -0.2107 -0.6771
   25MOL    H5510183   0.161   7.217   2.631 -0.7522 -1.1369 -0.1739
   25MOL    H5610184   0.312   6.998   2.582  0.7988  2.0276  0.0372
   25MOL    H5710185   0.427   7.095   2.505  0.0228  1.2621 -0.1918
   25MOL    H5810186   0.353   6.944   2.425 -0.7533 -1.9310  2.3407
   25MOL    H5910187   0.355   7.228   2.291  0.8929 -0.6573  2.0914
   25MOL    H6010188   0.257   7.091   2.231 -2.4911  1.1622 -0.9804
   25MOL    H6110189   0.179   7.236   2.256  0.2188  0.1917  1.1418
   25MOL    H6210190   0.010   7.117   2.394 -0.4594 -1.7372 -2.1590
   25MOL    H6310191   0.089   6.966   2.371 -1.7844  0.4020  0.1552
   25MOL    H6410192   0.065   7.019   2.535  0.8877 -1.2556 -0.3682
   25MOL    C6510193   0.371   7.312   2.714  1.0748  0.5555 -1.0497
   25MOL    C6610194   0.503   7.381   2.756  0.2592 -0.7492 -0.1878
   25MOL    C6710195   0.633   7.332   2.683  0.4593 -0.2419 -0.4152
   25MOL    C6810196   0.746   7.429   2.641 -0.3016 -0.1017 -0.4451
   25MOL    C6910197   0.798   7.510   2.760  0.3077  0.1834  0.1683
   25MOL    C7010198   0.865   7.346   2.589 -0.7974  0.0553 -1.0275
   25MOL    C7110199   0.701   7.523   2.529 -0.3266 -0.6265 -0.3211
   25MOL    H7210200   0.284   7.337   2.775 -0.4357 -0.5700 -2.7075
   25MOL    H7310201   0.381   7.206   2.734  4.6576  1.1840  0.9936
   25MOL    H7410202   0.503   7.488   2.735 -1.6836 -0.3954  1.4155
   25MOL    H7510203   0.606   7.280   2.591  1.5017 -2.2184  0.3708
   25MOL    H7610204   0.679   7.252   2.741  3.1068  1.3426 -0.2838
   25MOL    H7710205   0.726   7.579   2.803  1.2098  1.1339  0.1867
   25MOL    H7810206   0.831   7.442   2.839  1.6737  1.5366  0.7963
   25MOL    H7910207   0.883   7.572   2.730  0.7716 -0.0767  0.9353
   25MOL    H8010208   0.839   7.272   2.513 -0.4202 -0.1774 -0.9362
   25MOL    H8110209   0.902   7.269   2.658 -0.2066  1.3230  0.0864
   25MOL    H8210210   0.946   7.406   2.548 -1.4229  0.4243 -1.7137
   25MOL    H8310211   0.621   7.592   2.555 -0.6560 -0.9360 -0.5054
   25MOL    H8410212   0.669   7.474   2.436  1.9777 -2.2582 -0.3031
   25MOL    H8510213   0.782   7.589   2.500 -0.6063 -0.3246 -0.4262
   25MOL    C8610214   0.532   7.389   2.916  0.1979  0.0004  0.8371
   25MOL    C8710215   0.477   7.505   3.014  0.2418 -0.9305  0.0653
   25MOL    C8810216   0.477   7.450   3.158  0.0191 -0.1138  1.0455
   25MOL    C8910217   0.604   7.427   3.234 -0.2459 -0.1978 -0.4357
   25MOL    C9010218   0.564   7.412   3.392  0.7000 -0.5890 -0.1080
   25MOL    C9110219   0.702   7.547   3.207 -0.3963 -0.6479 -0.1072
   25MOL    C9210220   0.674   7.296   3.200 -0.3533  0.1807  0.2047
   25MOL    H9310221   0.640   7.378   2.927  0.2098 -0.9858 -0.0617
   25MOL    H9410222   0.501   7.295   2.960  0.7503  0.2610  1.7892
   25MOL    H9510223   0.539   7.594   3.005 -0.2982 -0.5716 -0.1061
   25MOL    H9610224   0.408   7.366   3.160 -0.3348  0.0901 -1.1545
   25MOL    H9710225   0.416   7.517   3.219 -2.7402 -1.3285 -0.2913
   25MOL    H9810226   0.642   7.414   3.468  0.8447  0.1837 -0.2847
   25MOL    H9910227   0.508   7.318   3.398 -0.1523 -0.1403 -0.9136
   25MOL   H10010228   0.504   7.492   3.436  0.4009 -0.5306 -0.6218
   25MOL   H10110229   0.795   7.555   3.263  0.1885  0.2744 -1.2002
   25MOL   H10210230   0.741   7.550   3.106  0.5077 -0.1686  0.2494
   25MOL   H10310231   0.647   7.637   3.237  0.1473 -0.6914  1.0686
   25MOL   H10410232   0.611   7.207   3.206 -1.5019  1.0703  1.5872
   25MOL   H10510233   0.729   7.293   3.106 -1.0567 -0.7986 -0.1963
   25MOL   H10610234   0.752   7.276   3.273 -1.6241 -0.1815  1.4809
   25MOL   C10710235   0.344   7.554   2.963 -0.2507 -0.0320 -0.4254
   25MOL   C10810236   0.261   7.658   3.045  0.2682 -0.4034  0.3770
   25MOL   C10910237   0.184   7.757   2.950 -0.1473 -0.0489 -0.1891
   25MOL   C11010238   0.249   0.126   2.900 -0.2926  0.2153 -0.1277
   25MOL   C11110239   0.375   0.101   2.810  0.6829  0.1938  0.2825
   25MOL   C11210240   0.283   0.218   3.014 -0.6895 -0.2729 -0.4609
   25MOL   C11310241   0.147   0.195   2.811 -0.2556  0.1825 -0.4447
   25MOL   H11410242   0.283   7.464   2.955  1.3704 -1.1470 -0.4271
   25MOL   H11510243   0.354   7.593   2.862 -0.7361 -0.3053 -0.5834
   25MOL   H11610244   0.328   7.728   3.095  1.6339 -0.5227 -1.2468
   25MOL   H11710245   0.139   7.692   2.875  0.2978 -1.1835  0.5084
   25MOL   H11810246   0.093   0.019   3.005 -0.0170  1.3210 -0.6531
   25MOL   H11910247   0.452   0.043   2.861 -1.4594 -1.7322  1.4310
   25MOL   H12010248   0.352   0.062   2.711 -1.9970 -0.0357  0.9576
   25MOL   H12110249   0.434   0.193   2.807  1.1563  0.0454  3.1283
   25MOL   H12210250   0.215   0.219   3.099  0.5163 -0.0612  0.5325
   25MOL   H12310251   0.303   0.317   2.973  0.1566  0.1471  0.9139
   25MOL   H12410252   0.377   0.186   3.060  0.0029  4.0602  1.4047
   25MOL   H12510253   0.187   0.294   2.792 -0.8332  0.5809  0.3799
   25MOL   H12610254   0.052   0.206   2.864  0.7253  0.8254  1.1774
   25MOL   H12710255   0.117   0.153   2.715  0.3005  0.0132 -0.5442
   25MOL   C12810256   0.151   7.581   3.133  0.0737 -0.7137  0.1373
   25MOL   C12910257   0.086   7.650   3.251 -0.4882  0.9636 -0.6697
   25MOL   C13010258   7.724   7.567   3.297 -0.0000 -0.1801  0.5909
   25MOL   C13110259   7.582   7.608   3.234 -0.2630 -0.6248 -0.4330
   25MOL   C13210260   7.580   7.615   3.086  0.5038 -0.2005 -0.3007
   25MOL   C13310261   7.537   7.742   3.292  0.8186 -0.3141  0.2446
   25MOL   C13410262   7.482   7.495   3.269 -0.0253 -0.0763 -0.3852
   25MOL   H13510263   0.190   7.482   3.159  0.0459 -0.6529  0.4109
   25MOL   H13610264   0.065   7.552   3.073 -0.9130 -0.3180  1.3544
   25MOL   H13710265   0.050   7.752   3.236  0.5180  1.6702  1.5821
   25MOL   H13810266   7.731   7.462   3.270  2.2401 -0.3899  1.8114
   25MOL   H13910267   7.702   7.561   3.404 -2.3617  0.0860  0.1502
   25MOL   H14010268   7.613   7.516   3.055 -0.3490 -0.4042 -0.5850
   25MOL   H14110269   7.648   7.685   3.037  1.7226 -0.2502  1.2840
   25MOL   H14210270   7.476   7.628   3.054  0.9211 -0.8036 -1.9841
   25MOL   H14310271   7.590   0.061   3.249 -1.0891  0.2909 -0.9906
   25MOL   H14410272   7.556   7.746   3.399  0.2988 -0.6597  0.3480
   25MOL   H14510273   7.431   7.754   3.271  0.6529 -1.1637  0.5927
   25MOL   H14610274   7.382   7.520   3.234 -0.4333  0.1140  0.8943
   25MOL   H14710275   7.517   7.396   3.239  0.5121  0.3299 -1.1205
   25MOL   H14810276   7.481   7.489   3.378  0.1644  1.0417 -0.3134
   25MOL   C14910277   0.187   7.650   3.374  0.3817  0.1970  0.0111
   25MOL   C15010278   0.155   7.762   3.487  0.4032  0.4721 -0.4293
   25MOL   C15110279   0.252   7.723   3.605 -0.1216 -0.6947  0.2719
   25MOL   C15210280   0.198   7.632   3.725  0.2634  0.2620  0.2007
   25MOL   C15310281   0.093   7.702   3.807  0.3379 -0.0688 -0.4207
   25MOL   C15410282   0.307   7.605   3.830 -0.4952 -0.1772 -0.1534
   25MOL   C15510283   0.136   7.504   3.675  0.1524  0.1744  0.1044
   25MOL   H15610284   0.291   7.668   3.348 -0.3712 -0.2119 -3.5486
   25MOL   H15710285   0.195   7.548   3.412  5.5099  0.2342 -0.6191
   25MOL   H15810286   0.052   7.761   3.520  0.0595  2.3200 -1.3797
   25MOL   H15910287   0.287   0.050   3.650 -1.1907 -0.3936  0.4981
   25MOL   H16010288   0.343   7.667   3.583  0.9894  1.2564 -0.2343
   25MOL   H16110289   0.124   0.032   3.849  2.2690 -0.7787 -0.1623
   25MOL   H16210290   7.764   7.735   3.764 -0.0062  0.6578  0.8683
   25MOL   H16310291   0.074   7.643   3.897 -1.9394  0.6585 -0.3817
   25MOL   H16410292   0.278   7.525   3.899 -0.2571 -0.7451 -0.7117
   25MOL   H16510293   0.328   7.693   3.890  0.7261 -1.9936  2.1815
   25MOL   H16610294   0.403   7.566   3.796 -1.5806 -2.0937 -1.1302
   25MOL   H16710295   0.055   7.533   3.607  0.6267 -0.1973 -0.6298
   25MOL   H16810296   0.216   7.453   3.622 -0.8985  0.4655 -1.8194
   25MOL   H16910297   0.103   7.442   3.758 -0.6914  0.8755  0.3014
   25MOL   C17010298   0.181   0.137   3.431  0.4121 -0.0459  0.5487
   25MOL   C17110299   0.109   0.259   3.494  0.3731  0.0960  0.3894
   25MOL   C17210300   7.722   0.257   3.449 -0.6194 -0.4148 -0.0370
   25MOL   C17310301   7.612   0.288   3.552 -1.0899 -0.1607 -0.1945
   25MOL   C17410302   7.626   0.430   3.605 -0.5821  0.8743  0.0045
   25MOL   C17510303   7.631   0.195   3.669  0.1686  0.3394  0.4831
   25MOL   C17610304   7.485   0.282   3.474  0.4514 -0.0940 -0.1738
   25MOL   H17710305   0.161   0.146   3.324 -1.6418 -1.8226  0.7604
   25MOL   H17810306   0.290   0.146   3.429  0.3479  1.7732  3.2998
   25MOL   H17910307   0.118   0.253   3.603 -1.5571  3.0379  0.7660
   25MOL   H18010308   7.713   0.324   3.364 -1.0574 -1.5840 -0.9293
   25MOL   H18110309   7.707   0.158   3.405  0.5014 -0.7721  0.3626
   25MOL   H18210310   7.616   0.505   3.527 -0.3995  0.8690 -0.0235
   25MOL   H18310311   7.555   0.466   3.680 -1.3133  0.0499 -0.2885
   25MOL   H18410312   7.725   0.453   3.645 -0.1211  2.9045 -2.1671
   25MOL   H18510313   7.716   0.213   3.736  1.9667  0.7542 -1.8449
   25MOL   H18610314   7.542   0.200   3.731  0.9147  2.7685  1.4033
   25MOL   H18710315   7.637   0.095   3.624  1.8121 -0.2041  1.8191
   25MOL   H18810316   7.398   0.311   3.533  1.4405  0.4427  1.0658
   25MOL   H18910317   7.483   0.357   3.396  1.9294  2.0703  1.7866
   25MOL   H19010318   7.465   0.183   3.433 -1.2844 -0.1667  0.7906
   25MOL   C19110319   0.186   0.393   3.465  0.1060  0.3461  0.1110
   25MOL   C19210320   0.312   0.417   3.549  0.8680  0.3843  0.7201
   25MOL   C19310321   0.285   0.460   3.696 -0.2747 -0.2885  0.2833
   25MOL   C19410322   0.381   0.403   3.812 -0.4700  0.0631 -0.3622
   25MOL   C19510323   0.379   0.249   3.806  0.3217  0.1286  0.4683
   25MOL   C19610324   0.320   0.446   3.952  0.6980 -0.5448  0.3641
   25MOL   C19710325   0.532   0.447   3.798  0.1424  0.0459 -0.3328
   25MOL   H19810326   0.226   0.379   3.364 -0.1519  3.6625 -0.4939
   25MOL   H19910327   0.120   0.478   3.479  0.0935  0.2088  0.9108
   25MOL   H20010328   0.381   0.334   3.543  0.6786  0.2890 -0.2722
   25MOL   H20110329   0.178   0.448   3.713 -0.9586  1.2674 -2.5144
   25MOL   H20210330   0.283   0.569   3.706  0.5256 -0.1454 -1.0272
   25MOL   H20310331   0.280   0.212   3.832  0.6825 -0.6434  0.7653
   25MOL   H20410332   0.410   0.206   3.710  1.2277  0.9619  0.3765
   25MOL   H20510333   0.465   0.206   3.858  2.9799  0.4575 -3.3961
   25MOL   H20610334   0.216   0.418   3.969  0.4036  0.6357  0.5608
   25MOL   H20710335   0.369   0.398   4.037 -1.1296 -0.9081  1.2279
   25MOL   H20810336   0.317   0.554   3.968  2.1946 -0.7615  2.3472
   25MOL   H20910337   0.604   0.398   3.864  0.2549 -0.1051 -0.5695
   25MOL   H21010338   0.568   0.430   3.697  1.2878  0.3452  0.0245
   25MOL   H21110339   0.549   0.554   3.809  1.0090 -0.1391  0.1231
   25MOL   C21210340   0.380   0.540   3.473 -0.9944  0.3830 -0.2886
   25MOL   C21310341   0.452   0.518   3.336 -0.0476 -0.1492  0.0176
   25MOL   C21410342   0.591   0.458   3.354 -0.4290  0.4478  0.3954
   25MOL   C21510343   0.638   0.336   3.267 -0.0695 -0.4086 -0.0137
   25MOL   C21610344   0.548   0.219   3.308 -0.0527 -0.4297 -0.1663
   25MOL   C21710345   0.617   0.355   3.110 -0.2593  0.5909 -0.8319
   25MOL   C21810346   0.787   0.307   3.292 -0.3540 -0.3147 -0.5473
   25MOL   H21910347   0.308   0.622   3.469 -0.5834  0.8371  1.3010
   25MOL   H22010348   0.454   0.580   3.541 -2.1401  1.6720  0.2243
   25MOL   H22110349   0.398   0.463   3.259 -0.8896  1.3901 -0.5109
   25MOL   H22210350   0.587   0.419   3.456 -0.4269  1.0561  0.6276
   25MOL   H22310351   0.669   0.532   3.368  0.9507 -0.7065 -0.9576
   25MOL   H22410352   0.571   0.127   3.254  2.3065 -1.6318  2.7414
   25MOL   H22510353   0.443   0.242   3.294  0.0148 -0.7089 -1.1512
   25MOL   H22610354   0.562   0.189   3.412  0.1126 -1.3813 -0.4557
   25MOL   H22710355   0.512   0.362   3.082 -0.6769 -1.5475  0.1174
   25MOL   H22810356   0.678   0.437   3.073 -0.6106  1.5563  0.6650
   25MOL   H22910357   0.657   0.267   3.059 -2.5779 -0.6400 -0.5890
   25MOL   H23010358   0.802   0.266   3.393 -0.0525  2.9863  0.8005
   25MOL   H23110359   0.858   0.385   3.266 -2.5629  2.0820  0.4531
   25MOL   H23210360   0.817   0.218   3.237 -1.1054 -0.3978 -0.8181
   25MOL   C23310361   0.460   0.659   3.279 -0.1992  0.1087  0.1240
   25MOL   C23410362   0.323   0.710   3.215 -0.4769 -0.1813  0.1055
   25MOL   C23510363   0.305   0.860   3.227 -0.3749  0.0436  0.0751
   25MOL   C23610364   0.257   0.928   3.360  0.3706  0.3321  0.0793
   25MOL   C23710365   0.229   1.072   3.335  0.5397  0.5090 -0.1244
   25MOL   C23810366   0.111   0.870   3.405  0.0550  0.3142 -0.2926
   25MOL   C23910367   0.349   0.924   3.482  0.4726  0.2558 -0.4512
   25MOL   H24010368   0.537   0.662   3.203 -0.1405 -0.4195  0.1647
   25MOL   H24110369   0.495   0.722   3.361  3.1053 -3.0666  1.2524
   25MOL   H24210370   0.241   0.656   3.261 -0.1196 -2.9133 -2.2706
   25MOL   H24310371   0.395   0.905   3.185 -2.2207  2.9221 -0.8586
   25MOL   H24410372   0.228   0.890   3.156 -0.3506 -0.4920 -0.1765
   25MOL   H24510373   0.176   1.122   3.416 -1.2227 -1.6074  0.0744
   25MOL   H24610374   0.169   1.093   3.246 -1.5945 -0.7473  0.9718
   25MOL   H24710375   0.323   1.125   3.322 -0.3602  2.2039  0.1802
   25MOL   H24810376   0.035   0.885   3.328 -0.1570 -1.9289 -0.5492
   25MOL   H24910377   0.107   0.763   3.428  2.2532 -0.0324 -1.4338
   25MOL   H25010378   0.069   0.927   3.488 -1.0669  0.5172 -0.9829
   25MOL   H25110379   0.447   0.970   3.477  0.2395  0.9795  1.4356
   25MOL   H25210380   0.293   0.967   3.564  0.0870 -0.0140 -0.5700
   25MOL   H25310381   0.368   0.829   3.531  0.9450  0.2499 -0.6434
   25MOL   C25410382   0.313   0.663   3.071 -0.6474  0.7992 -0.2320
   25MOL   C25510383   0.164   0.670   3.023 -0.0122  0.4714 -0.5810
   25MOL   C25610384   0.078   0.542   3.065 -0.6212 -0.4339 -0.2956
   25MOL   C25710385   7.699   0.542   3.112 -0.5959 -0.9319 -0.5576
   25MOL   C25810386   7.701   0.583   3.260  0.1180 -0.0209 -0.5109
   25MOL   C25910387   7.644   0.396   3.102  0.7295 -0.2566 -0.4146
   25MOL   C26010388   7.605   0.630   3.023 -0.1795 -0.2031  0.4580
   25MOL   H26110389   0.345   0.559   3.057  1.0753  1.4635 -1.3629
   25MOL   H26210390   0.373   0.718   2.998  0.9813 -3.1714 -2.0549
   25MOL   H26310391   0.109   0.754   3.064 -1.2381 -0.1076 -1.0181
   25MOL   H26410392   0.091   0.473   2.982  2.5960  0.7875 -0.9012
   25MOL   H26510393   0.138   0.493   3.142  0.9561  2.3650  0.3582
   25MOL   H26610394   7.757   0.526   3.333  0.2765  1.5411  0.6285
   25MOL   H26710395   7.596   0.589   3.288 -0.3555 -1.6145 -1.8423
   25MOL   H26810396   7.734   0.686   3.277  0.2377 -0.2679  0.7308
   25MOL   H26910397   7.704   0.327   3.160 -0.3691 -2.5238 -1.9077
   25MOL   H27010398   7.634   0.364   2.998 -1.3881 -0.8297 -0.0638
   25MOL   H27110399   7.551   0.388   3.158  1.0762 -0.8682  0.0700
   25MOL   H27210400   7.500   0.612   3.047 -0.4775  1.3939  0.3677
   25MOL   H27310401   7.636   0.732   3.045 -1.3214 -0.4500  3.4459
   25MOL   H27410402   7.621   0.614   2.916 -0.7018  1.3347  0.1471
   25MOL   C27510403   0.158   0.684   2.869 -0.0312  0.0515  0.5995
   25MOL   C27610404   0.203   0.817   2.802 -0.7193  1.0699  0.1408
   25MOL   C27710405   0.232   0.787   2.644  0.5891 -0.3065 -0.2624
   25MOL   C27810406   0.382   0.762   2.601 -0.2121  0.2165 -0.5777
   25MOL   C27910407   0.473   0.882   2.632  0.8518  0.4958 -0.3313
   25MOL   C28010408   0.438   0.631   2.673  0.3487  0.5266 -0.1857
   25MOL   C28110409   0.390   0.744   2.450 -0.2346 -0.8580  0.7621
   25MOL   H28210410   0.214   0.602   2.824 -0.9073  0.7352 -1.8285
   25MOL   H28310411   0.056   0.673   2.830 -0.2087  0.1270  1.0398
   25MOL   H28410412   0.289   0.860   2.854 -1.5377  0.9651  1.5914
   25MOL   H28510413   0.189   0.873   2.592 -3.0761 -0.9756  1.5046
   25MOL   H28610414   0.176   0.703   2.604  3.1570 -0.8510 -2.8687
   25MOL   H28710415   0.415   0.970   2.604 -0.6392 -0.8148 -1.4537
   25MOL   H28810416   0.499   0.876   2.738 -1.7379 -0.9392  0.2746
   25MOL   H28910417   0.562   0.881   2.570  2.4165  0.7964  1.8700
   25MOL   H29010418   0.544   0.623   2.652  0.2923  0.4966 -0.4571
   25MOL   H29110419   0.376   0.544   2.651  1.4012  0.0708 -1.3593
   25MOL   H29210420   0.425   0.649   2.780 -1.3175  0.1215 -0.2981
   25MOL   H29310421   0.488   0.726   2.406 -0.8685 -0.5723 -0.8364
   25MOL   H29410422   0.340   0.829   2.401  0.9246 -1.7322 -2.0272
   25MOL   H29510423   0.334   0.651   2.436 -0.6282 -0.5420  0.1791
   25MOL   C29610424   0.094   0.927   2.823 -0.4314 -0.9309 -0.0709
   25MOL   C29710425   0.139   1.076   2.796 -0.5474  0.4886 -0.4797
   25MOL   C29810426   0.199   1.134   2.926  0.3065  0.3492 -0.3438
   25MOL   C29910427   0.320   1.229   2.917 -0.1178 -0.7916 -0.1151
   25MOL   C30010428   0.359   1.264   3.064  0.1461  1.0195  0.5701
   25MOL   C30110429   0.441   1.168   2.852  0.2875  0.5741 -0.0303
   25MOL   C30210430   0.276   1.361   2.849 -0.9682  0.3717 -0.1561
   25MOL   H30310431   0.049   0.922   2.922  0.9857 -0.4188  0.6098
   25MOL   H30410432   0.007   0.901   2.764 -0.9333 -0.2546  0.3624
   25MOL   H30510433   0.218   1.080   2.721  0.3116  0.7121  0.4345
   25MOL   H30610434   0.240   1.049   2.979  0.1633  0.8739  0.6173
   25MOL   H30710435   0.123   1.165   2.999  0.5390  0.3666 -0.1091
   25MOL   H30810436   0.378   1.169   3.114 -2.5980 -0.2508 -0.7227
   25MOL   H30910437   0.451   1.323   3.058  0.4905  0.5449  1.0923
   25MOL   H31010438   0.276   1.315   3.113 -0.2175 -0.0627  1.0829
   25MOL   H31110439   0.530   1.230   2.855  0.7082  0.1872 -2.8523
   25MOL   H31210440   0.459   1.070   2.897  0.6763  0.7698  0.2383
   25MOL   H31310441   0.431   1.156   2.744  0.4172  1.2567 -0.1213
   25MOL   H31410442   0.258   1.347   2.742  2.1886  1.9955 -0.9625
   25MOL   H31510443   0.186   1.401   2.895 -0.0918  1.0929  0.9770
   25MOL   H31610444   0.359   1.432   2.850  0.5356 -1.3273  1.5174
   25MOL   C31710445   0.023   1.159   2.741  0.7659 -0.6879  0.1401
   25MOL   C31810446   0.002   1.145   2.590  0.5855  0.4864  0.5551
   25MOL   C31910447   7.617   1.196   2.562 -0.2918  0.4548 -0.0191
   25MOL   C32010448   7.497   1.095   2.570 -0.4088 -0.2890  0.2972
   25MOL   C32110449   7.380   1.179   2.512 -0.2283 -1.1767 -0.1699
   25MOL   C32210450   7.458   1.050   2.711  0.2628 -0.3063  0.3533
   25MOL   C32310451   7.515   0.967   2.479  0.4133  0.0612 -0.8360
   25MOL   H32410452   7.699   1.137   2.799  0.3107  1.4307  0.2832
   25MOL   H32510453   0.040   1.265   2.760  0.9537 -1.0073  1.8178
   25MOL   H32610454   0.014   1.041   2.562  1.9342  0.2189  2.0304
   25MOL   H32710455   7.609   1.243   2.464 -1.0690 -0.2455 -0.2994
   25MOL   H32810456   7.595   1.279   2.629 -0.7304 -1.1002  1.7881
   25MOL   H32910457   7.368   1.256   2.588 -1.0605 -0.7227 -0.7524
   25MOL   H33010458   7.290   1.118   2.498  1.4783 -3.2324 -2.7189
   25MOL   H33110459   7.401   1.219   2.413 -0.4411 -2.5118 -0.7704
   25MOL   H33210460   7.354   1.019   2.720  0.3283 -0.9664 -1.1435
   25MOL   H33310461   7.516   0.961   2.736 -2.9165 -1.6158  3.4638
   25MOL   H33410462   7.476   1.131   2.782 -1.5798  1.1289 -0.7681
   25MOL   H33510463   7.545   0.999   2.379  0.4001  1.0896 -0.5087
   25MOL   H33610464   7.420   0.912   2.475  0.5829 -0.4386  1.5099
   25MOL   H33710465   7.590   0.899   2.519 -2.6802 -2.3426  1.0925
   25MOL   C33810466   0.105   1.226   2.508  0.2331  0.1224 -0.4952
   25MOL   C33910467   0.171   1.171   2.381  0.1323  0.6396  0.3752
   25MOL   C34010468   0.239   1.275   2.288  0.3774  0.6255  0.0433
   25MOL   C34110469   0.378   1.350   2.325 -0.3212 -1.0067  0.4684
   25MOL   C34210470   0.430   1.411   2.191 -0.4281  0.2968  0.1871
   25MOL   C34310471   0.368   1.469   2.429 -0.7107  0.2527 -0.4278
   25MOL   C34410472   0.488   1.257   2.368  0.3349  0.2117 -0.5645
   25MOL   H34510473   0.191   1.246   2.573 -0.3616 -0.0388  0.3496
   25MOL   H34610474   0.054   1.319   2.482  0.0537 -0.4119 -2.0680
   25MOL   H34710475   0.238   1.092   2.417 -1.2116 -0.4984  0.4380
   25MOL   H34810476   0.170   1.352   2.252  1.1889  1.2101 -0.2743
   25MOL   H34910477   0.260   1.224   2.194 -1.6573  0.3866 -0.3033
   25MOL   H35010478   0.518   1.474   2.181 -0.4590  0.3708  0.3890
   25MOL   H35110479   0.442   1.340   2.109  0.3654  2.3475 -1.5342
   25MOL   H35210480   0.358   1.484   2.153  1.8468  1.9404 -1.1424
   25MOL   H35310481   0.315   1.557   2.393  1.7188  2.4535  1.3009
   25MOL   H35410482   0.311   1.434   2.515 -0.6011 -0.6139 -0.6986
   25MOL   H35510483   0.467   1.503   2.458  0.2002  0.8361 -3.9031
   25MOL   H35610484   0.473   1.205   2.463 -0.7220  0.9804 -0.3004
   25MOL   H35710485   0.489   1.182   2.289 -1.4483  0.8178 -1.1912
   25MOL   H35810486   0.585   1.306   2.364  0.5892 -0.3104 -0.9428
   25MOL   C35910487   0.068   1.107   2.290  0.4672  0.6494 -0.4025
   25MOL   C36010488   0.082   1.057   2.147  0.2192 -0.1360 -0.1668
   25MOL   C36110489   7.704   1.013   2.087 -1.0237  0.5383  0.3836
   25MOL   C36210490   7.635   1.094   1.979  0.1697 -0.4131  0.0011
   25MOL   C36310491   7.557   1.204   2.054 -0.2404  0.9681 -0.2283
   25MOL   C36410492   7.537   1.000   1.912  0.4559  0.6015  0.0745
   25MOL   C36510493   7.731   1.148   1.873 -0.6304 -0.9474  0.5963
   25MOL   H36610494   7.751   1.177   2.280  2.4433  2.9255 -1.4017
   25MOL   H36710495   0.029   1.019   2.340  0.2566  0.3923 -1.0077
   25MOL   H36810496   0.112   1.137   2.079 -3.2427  1.2934 -0.0960
   25MOL   H36910497   7.713   0.914   2.044  2.1801 -0.9489  4.1588
   25MOL   H37010498   7.634   0.988   2.167 -1.0340 -1.1013 -0.1198
   25MOL   H37110499   7.480   1.260   2.000 -1.2315 -0.9906 -0.8713
   25MOL   H37210500   7.502   1.163   2.139  0.6513 -1.5300 -0.8354
   25MOL   H37310501   7.624   1.275   2.103  0.4329  0.6558 -0.6924
   25MOL   H37410502   7.473   0.946   1.981  2.6392 -1.9368  0.1842
   25MOL   H37510503   7.585   0.938   1.837  1.5823 -0.3922  1.5736
   25MOL   H37610504   7.464   1.057   1.854  0.7971  2.5510  1.4980
   25MOL   H37710505   0.044   1.215   1.905 -1.6712  0.3936  0.3925
   25MOL   H37810506   7.666   1.199   1.802  1.3972  0.7948 -0.0691
   25MOL   H37910507   0.036   1.071   1.843 -0.3732 -0.9987  1.3331
   25MOL   C38010508   0.182   0.934   2.155 -0.1330  0.2489 -0.5458
   25MOL   C38110509   0.240   0.881   2.028  0.1718 -0.2833 -0.6599
   25MOL   C38210510   0.323   0.751   2.043  0.3739  0.9343 -0.7042
   25MOL   C38310511   0.260   0.614   2.004 -0.1798  0.4293  0.4701
   25MOL   C38410512   0.366   0.513   2.046 -0.1537 -0.4956 -0.1300
   25MOL   C38510513   0.236   0.615   1.849 -0.0250  0.3509  0.6006
   25MOL   C38610514   0.132   0.596   2.092 -0.3233  0.1396 -0.0544
   25MOL   H38710515   0.131   0.864   2.221  2.5226 -0.9885  0.2279
   25MOL   H38810516   0.266   0.972   2.211  0.1035  0.3035 -0.9375
   25MOL   H38910517   0.148   0.859   1.973 -0.4997  0.4974  0.1448
   25MOL   H39010518   0.420   0.764   1.996  0.3525  1.2152 -0.6718
   25MOL   H39110519   0.355   0.741   2.147  0.1951 -0.2903 -0.7629
   25MOL   H39210520   0.344   0.412   2.013 -0.0695 -0.4319 -0.3782
   25MOL   H39310521   0.458   0.532   1.991 -1.1895 -0.1086 -1.7672
   25MOL   H39410522   0.374   0.511   2.155  3.9617  0.3251 -0.3263
   25MOL   H39510523   0.330   0.641   1.801  0.1050 -1.7760 -0.3493
   25MOL   H39610524   0.169   0.696   1.822  0.4383  0.5147 -0.0834
   25MOL   H39710525   0.206   0.519   1.805  0.7051 -0.1520  1.1841
   25MOL   H39810526   0.068   0.683   2.078 -0.3371  0.1976  0.3783
   25MOL   H39910527   0.171   0.592   2.194  0.4100  0.0375 -0.3349
   25MOL   H40010528   0.079   0.504   2.067  2.0596 -2.7718  4.9206
   25MOL   C40110529   0.307   0.985   1.935 -0.3330  0.4745  0.7352
   25MOL   C40210530   0.352   0.944   1.800 -0.9213  0.2856  1.0553
   25MOL   C40310531   0.453   1.043   1.739  0.2213  0.4821 -0.7710
   25MOL   C40410532   0.502   1.008   1.594 -0.3949 -0.0723  0.2585
   25MOL   C40510533   0.593   1.129   1.549  0.7925 -0.5620  0.2391
   25MOL   C40610534   0.389   0.981   1.497  0.5392 -0.4356  0.7324
   25MOL   C40710535   0.596   0.881   1.587  0.4991  0.2221 -0.3926
   25MOL   H40810536   0.249   1.075   1.920  0.2182  0.5000 -1.3931
   25MOL   H40910537   0.398   1.015   1.987  0.1370 -0.9316  0.7617
   25MOL   H41010538   0.406   0.850   1.806 -2.0054 -0.3736  0.5938
   25MOL   H41110539   0.536   1.036   1.810 -2.2488 -0.4089  2.1447
   25MOL   H41210540   0.415   1.145   1.729  1.4190  0.9587 -0.5717
   25MOL   H41310541   0.687   1.139   1.603  0.9537 -0.3916 -0.0673
   25MOL   H41410542   0.535   1.222   1.547  0.1637 -0.9323 -3.3616
   25MOL   H41510543   0.624   1.104   1.447  1.9851 -1.7254  0.8762
   25MOL   H41610544   0.335   0.895   1.537  1.6779 -1.0236  1.0192
   25MOL   H41710545   0.426   0.963   1.396 -0.6093 -0.1086  0.2436
   25MOL   H41810546   0.316   1.061   1.502  1.2175  0.2736 -0.4465
   25MOL   H41910547   0.579   0.815   1.502 -0.6393  0.2043 -0.1595
   25MOL   H42010548   0.701   0.909   1.601  0.5506  0.0180 -0.3588
   25MOL   H42110549   0.566   0.803   1.658  0.5553 -1.5703 -2.2778
   25MOL   H42210550   0.272   0.916   1.732  0.2368 -2.2080  0.6847
   26MOL     C110551   5.794   0.092   6.903  0.0607 -0.2551 -0.4605
   26MOL     C210552   5.887   7.748   6.840 -0.2107 -0.0695 -0.3623
   26MOL     C310553   6.040   0.025   6.820  0.4473 -0.5472 -0.5727
   26MOL     C410554   6.132   0.041   6.941  0.1536 -0.2726 -0.2821
   26MOL     C510555   6.106   7.704   7.054 -0.0192 -0.4647  0.0857
   26MOL     C610556   6.279   0.015   6.899 -0.6758  0.1743 -0.3961
   26MOL     C710557   6.106   0.180   6.996  0.1307 -0.4265 -0.4867
   26MOL     H810558   5.797   0.186   6.848 -0.5286 -1.1888 -2.1299
   26MOL     H910559   5.693   0.054   6.886  0.0476 -0.7457  0.6478
   26MOL    H1010560   5.884   7.663   6.908 -0.6149 -0.4098 -0.8010
   26MOL    H1110561   6.044   0.116   6.760 -0.0728 -1.0078 -1.3068
   26MOL    H1210562   6.084   7.701   6.778 -0.8403 -1.3167 -0.2988
   26MOL    H1310563   6.188   7.718   7.124  1.3416 -0.6140 -1.4345
   26MOL    H1410564   6.102   7.608   7.002 -0.6352 -0.0887 -0.5764
   26MOL    H1510565   6.014   7.735   7.102 -0.0702 -0.9459  0.3010
   26MOL    H1610566   6.287   7.691   6.838  1.8408 -0.1539  0.3537
   26MOL    H1710567   6.315   0.090   6.828 -0.0645  0.1073 -0.1583
   26MOL    H1810568   6.353   0.011   6.979 -0.5659 -4.0707 -0.5920
   26MOL    H1910569   6.001   0.204   7.014  0.6784  0.0560  2.3604
   26MOL    H2010570   6.151   0.256   6.932  1.8279  1.8863  3.2704
   26MOL    H2110571   6.159   0.192   7.091 -0.0669  1.6929 -0.6128
   26MOL    H2210572   5.783   0.101   7.011 -1.2675 -0.1740 -0.5956
   26MOL    C2310573   5.845   7.715   6.697 -0.0577  0.0548  0.6141
   26MOL    C2410574   5.869   7.565   6.656  0.1241 -0.3316  0.9470
   26MOL    C2510575   5.985   7.546   6.547 -0.1929  0.2480 -0.1224
   26MOL    C2610576   6.070   7.418   6.549  0.1813 -0.0248  0.1364
   26MOL    C2710577   6.175   7.447   6.439  0.6963 -0.7691 -0.5348
   26MOL    C2810578   6.152   7.393   6.675 -0.3040  0.1271  0.2812
   26MOL    C2910579   6.002   7.292   6.514  0.6131 -0.2663  0.1251
   26MOL    H3010580   5.738   7.732   6.687 -0.3359 -0.7600  1.9985
   26MOL    H3110581   5.890   0.022   6.630 -2.4909  1.2916  0.2900
   26MOL    H3210582   5.904   7.520   6.748 -2.2850  0.1354  2.1249
   26MOL    H3310583   6.052   7.631   6.561 -0.5319  0.2453  1.6646
   26MOL    H3410584   5.953   7.571   6.445  2.0545 -0.7058 -1.0948
   26MOL    H3510585   6.280   7.433   6.464  0.5339  0.6880  1.0296
   26MOL    H3610586   6.153   7.398   6.343  0.5173 -0.5083 -0.6270
   26MOL    H3710587   6.176   7.554   6.420 -0.0460 -0.5471  0.6633
   26MOL    H3810588   6.218   7.478   6.691  1.5210 -0.7846 -1.9699
   26MOL    H3910589   6.093   7.392   6.766 -1.3868  0.6442 -0.4071
   26MOL    H4010590   6.221   7.309   6.671 -0.7280 -0.1483 -2.4284
   26MOL    H4110591   5.915   7.283   6.580 -0.7989  0.1711 -1.6378
   26MOL    H4210592   6.061   7.202   6.502  1.9098  0.4121  1.2366
   26MOL    H4310593   5.955   7.310   6.417  3.9738 -0.7800 -1.6442
   26MOL    C4410594   5.739   7.489   6.605 -0.0395 -0.5551 -0.6358
   26MOL    C4510595   5.647   7.442   6.714 -0.0988 -0.4090  0.3424
   26MOL    C4610596   5.709   7.320   6.797 -0.0178 -0.5895  0.1029
   26MOL    C4710597   5.671   7.305   6.954 -0.5016  0.0920 -0.5025
   26MOL    C4810598   5.737   7.176   7.003  0.1673  1.0285  0.4381
   26MOL    C4910599   5.519   7.294   6.974  0.4956  0.2187  0.0097
   26MOL    C5010600   5.718   7.427   7.038 -0.0268 -0.4819 -0.1881
   26MOL    H5110601   5.686   7.562   6.544  0.7623 -0.8432 -1.7136
   26MOL    H5210602   5.757   7.402   6.542  1.1960  0.2687 -1.4499
   26MOL    H5310603   5.617   7.526   6.777 -0.2519  1.0282 -1.5969
   26MOL    H5410604   5.815   7.343   6.809 -0.1904 -0.6601  1.9431
   26MOL    H5510605   5.704   7.226   6.742  0.5710 -0.9954  0.7430
   26MOL    H5610606   5.845   7.188   6.987 -0.1798  2.6645 -0.8195
   26MOL    H5710607   5.710   7.078   6.965  1.2158  0.3604  1.3668
   26MOL    H5810608   5.732   7.161   7.111  2.2480  1.1676  0.5779
   26MOL    H5910609   5.509   7.262   7.077  1.1796 -0.6814 -0.1983
   26MOL    H6010610   5.462   7.385   6.957  0.0219  0.0648  0.7654
   26MOL    H6110611   5.477   7.213   6.915  3.1713 -1.2083 -0.0132
   26MOL    H6210612   5.827   7.425   7.033  0.1428  0.7231  2.1795
   26MOL    H6310613   5.669   7.522   7.017  2.2123  0.0303 -3.4276
   26MOL    H6410614   5.707   7.400   7.143 -0.9906  1.3838  0.2117
   26MOL    C6510615   5.513   7.404   6.651  0.4339  0.2386 -0.2553
   26MOL    C6610616   5.413   7.517   6.614 -0.6123  0.0550  0.9635
   26MOL    C6710617   5.350   7.576   6.740  0.3176 -0.1007 -0.0708
   26MOL    C6810618   5.308   7.722   6.735 -0.5046 -0.4527  0.5889
   26MOL    C6910619   5.429   0.059   6.718 -1.2149 -0.5667 -0.1664
   26MOL    C7010620   5.194   7.759   6.628  0.1496 -0.5808 -1.0109
   26MOL    C7110621   5.247   7.748   6.876 -0.1159  0.0324  1.4463
   26MOL    H7210622   5.537   7.342   6.565 -0.4379 -2.4317  1.3576
   26MOL    H7310623   5.464   7.328   6.711 -0.4737  0.6692 -0.4369
   26MOL    H7410624   5.466   7.596   6.560 -1.4337 -0.1790 -0.1994
   26MOL    H7510625   5.424   7.559   6.818  0.2344 -1.4468 -0.2761
   26MOL    H7610626   5.263   7.514   6.762 -0.9094  1.9653  1.1394
   26MOL    H7710627   5.487   0.035   6.629 -1.0922  2.5095 -0.9703
   26MOL    H7810628   5.408   0.166   6.720 -0.3986 -0.4005 -0.0310
   26MOL    H7910629   5.502   0.048   6.798 -0.5519 -1.6842 -0.9151
   26MOL    H8010630   5.110   7.692   6.650  0.3830 -0.5061  0.1209
   26MOL    H8110631   5.217   7.741   6.523  0.9834  0.0678 -0.9384
   26MOL    H8210632   5.165   0.098   6.638 -1.6005 -1.1772  0.6324
   26MOL    H8310633   5.200   0.079   6.887 -0.3157  0.3426 -1.6609
   26MOL    H8410634   5.315   7.725   6.958  0.2546  0.4218  1.2490
   26MOL    H8510635   5.163   7.683   6.899  0.4693 -1.3181 -0.0844
   26MOL    C8610636   5.299   7.462   6.524  0.2452  0.4427  0.2866
   26MOL    C8710637   5.325   7.431   6.379 -1.1288 -0.6202 -0.0081
   26MOL    C8810638   5.323   7.570   6.305  0.4426  0.6641  0.2537
   26MOL    C8910639   5.404   7.587   6.163 -0.3815  0.7876  0.5526
   26MOL    C9010640   5.549   7.581   6.198 -1.1002  0.5289  0.2147
   26MOL    C9110641   5.363   7.717   6.096 -0.2307  0.0384 -0.2261
   26MOL    C9210642   5.372   7.472   6.058  0.4958  0.1798  0.3309
   26MOL    H9310643   5.207   7.520   6.525 -0.5267 -0.7727  0.8557
   26MOL    H9410644   5.264   7.370   6.571 -1.8881  0.2943 -1.4901
   26MOL    H9510645   5.423   7.385   6.376 -0.3883  0.9508 -0.5478
   26MOL    H9610646   5.366   7.647   6.368 -0.7044  0.2000  1.6132
   26MOL    H9710647   5.216   7.586   6.307  0.0078 -1.9977  0.2959
   26MOL    H9810648   5.593   7.672   6.237  1.2608 -1.0605  1.3937
   26MOL    H9910649   5.613   7.567   6.111 -0.1295  0.2722  0.9549
   26MOL   H10010650   5.568   7.499   6.268 -1.7168 -0.2652 -0.5320
   26MOL   H10110651   5.258   7.733   6.074 -0.2961  0.3980  0.3125
   26MOL   H10210652   5.389   0.040   6.155 -0.3649 -0.2471  0.2631
   26MOL   H10310653   5.424   7.729   6.007 -0.6437  1.0829 -0.3821
   26MOL   H10410654   5.389   7.372   6.096  2.1546  0.4651  0.3614
   26MOL   H10510655   5.263   7.473   6.047  0.5810  2.3671 -0.7565
   26MOL   H10610656   5.420   7.469   5.960 -1.4636 -1.0779 -0.6236
   26MOL   C10710657   5.218   7.331   6.330 -0.2457 -0.0142 -0.5359
   26MOL   C10810658   5.228   7.179   6.345 -0.2391 -0.2527  0.2239
   26MOL   C10910659   5.326   7.120   6.453  0.0849 -0.0819 -0.0269
   26MOL   C11010660   5.447   7.027   6.422  0.3426  0.0673  0.1944
   26MOL   C11110661   5.574   7.107   6.386 -0.2370  0.2096 -0.0816
   26MOL   C11210662   5.411   6.932   6.309  0.6871  0.4383 -0.0949
   26MOL   C11310663   5.481   6.944   6.550  0.9512 -0.8436  0.2065
   26MOL   H11410664   5.189   7.358   6.228  1.0627 -1.0301 -1.2004
   26MOL   H11510665   5.128   7.353   6.387 -0.6341  0.1169 -1.1891
   26MOL   H11610666   5.276   7.149   6.252 -1.0327 -1.1524  0.0932
   26MOL   H11710667   5.362   7.197   6.522 -1.8470 -0.9066  1.9701
   26MOL   H11810668   5.265   7.067   6.527  1.4611 -0.4289  0.8839
   26MOL   H11910669   5.606   7.175   6.465 -0.8076  0.4457 -0.0543
   26MOL   H12010670   5.663   7.047   6.367 -0.9507 -0.1159 -2.7015
   26MOL   H12110671   5.554   7.170   6.300  0.0636 -1.0655 -1.1144
   26MOL   H12210672   5.483   6.851   6.296  2.2857  1.3910  2.4029
   26MOL   H12310673   5.410   6.982   6.213 -3.3308  0.6621 -0.0239
   26MOL   H12410674   5.313   6.884   6.311  0.8573  0.0619 -0.6051
   26MOL   H12510675   5.407   6.864   6.560 -0.7803  0.8979  1.8698
   26MOL   H12610676   5.490   7.000   6.643 -1.7656  0.9609 -0.5502
   26MOL   H12710677   5.583   6.909   6.538  0.3504 -1.8855 -2.1925
   26MOL   C12810678   5.097   7.101   6.338  0.4408  0.7698  0.3165
   26MOL   C12910679   5.014   7.110   6.204 -0.6464  0.2503 -0.4284
   26MOL   C13010680   5.052   6.990   6.108 -0.1057 -0.3606  0.0055
   26MOL   C13110681   5.068   7.028   5.959  0.5500 -0.2582 -0.4400
   26MOL   C13210682   5.114   6.920   5.865 -0.3322 -0.0885  1.2282
   26MOL   C13310683   5.180   7.138   5.945  0.2824 -0.5264  0.0381
   26MOL   C13410684   4.940   7.080   5.896 -1.3707 -0.1523 -0.2816
   26MOL   H13510685   5.032   7.132   6.420  0.9608 -1.2380  1.5152
   26MOL   H13610686   5.116   6.997   6.362  0.9743  1.4325  2.8890
   26MOL   H13710687   5.048   7.208   6.170 -2.9239  1.3157  0.2502
   26MOL   H13810688   5.148   6.956   6.147  0.7122 -0.7182 -2.2429
   26MOL   H13910689   4.978   6.910   6.117 -1.5833  1.1072  1.2832
   26MOL   H14010690   5.199   6.863   5.902  1.3169 -0.4774 -2.8843
   26MOL   H14110691   5.139   6.948   5.763 -4.4053  0.0270  0.1567
   26MOL   H14210692   5.030   6.853   5.843 -0.1268 -1.0978  3.3923
   26MOL   H14310693   5.274   7.121   5.998 -0.0318  0.7506  1.0585
   26MOL   H14410694   5.157   7.241   5.973  1.6403 -0.0054 -0.7255
   26MOL   H14510695   5.203   7.148   5.839 -1.5602  3.2768 -0.1174
   26MOL   H14610696   4.905   7.164   5.957  1.4544  1.5537 -0.9277
   26MOL   H14710697   4.955   7.112   5.793 -1.8387 -1.0947 -0.6490
   26MOL   H14810698   4.861   7.005   5.899 -2.4357  1.0065  1.3506
   26MOL   C14910699   4.860   7.103   6.240  0.3352 -0.0900  0.6815
   26MOL   C15010700   4.790   7.243   6.242  0.5109  0.4217  0.1020
   26MOL   C15110701   4.644   7.217   6.308  0.5421  0.8774 -0.1586
   26MOL   C15210702   4.516   7.232   6.216 -0.4412  0.3108 -0.3063
   26MOL   C15310703   4.399   7.198   6.310  0.2216  0.1216  0.1170
   26MOL   C15410704   4.508   7.137   6.098 -0.0849  0.6785  0.2620
   26MOL   C15510705   4.483   7.375   6.157 -0.2849 -0.0518  0.4094
   26MOL   H15610706   4.858   7.053   6.337 -0.0198 -1.1739  0.1291
   26MOL   H15710707   4.801   7.034   6.179 -1.3596 -0.0901  2.3053
   26MOL   H15810708   4.774   7.275   6.139  3.0015  0.5216 -0.2897
   26MOL   H15910709   4.617   7.299   6.374  0.3135  0.8150 -0.1744
   26MOL   H16010710   4.642   7.124   6.365 -0.2553  1.2353  0.4136
   26MOL   H16110711   4.300   7.199   6.263  0.2095 -0.2277  0.1362
   26MOL   H16210712   4.417   7.097   6.347 -0.1262  0.7992  2.1848
   26MOL   H16310713   4.403   7.278   6.383  0.6857 -0.3299  0.5873
   26MOL   H16410714   4.424   7.165   6.035  0.4044 -1.2690 -1.3141
   26MOL   H16510715   4.488   7.035   6.129  0.8815  0.4399  0.1203
   26MOL   H16610716   4.590   7.152   6.027 -1.1391  0.5812 -0.9888
   26MOL   H16710717   4.552   7.404   6.078  0.2911  1.1419  1.3193
   26MOL   H16810718   4.384   7.366   6.111  0.2790  1.4862 -1.1799
   26MOL   H16910719   4.496   7.445   6.240  2.7730 -0.5232  0.3653
   26MOL   C17010720   4.872   7.353   6.316 -0.0952 -0.4919 -0.1528
   26MOL   C17110721   4.799   7.486   6.343 -0.3510  0.5439  0.0100
   26MOL   C17210722   4.894   7.611   6.315  0.5695  0.3080 -0.0520
   26MOL   C17310723   4.885   7.665   6.171 -0.8692  0.2660  0.3272
   26MOL   C17410724   4.744   7.704   6.127 -0.0490 -0.3900 -0.0151
   26MOL   C17510725   4.933   7.565   6.063 -0.2139  0.1309 -0.7053
   26MOL   C17610726   4.975   0.025   6.162 -0.3356  0.1365  0.2912
   26MOL   H17710727   4.961   7.378   6.258 -0.9164 -1.3578 -1.8283
   26MOL   H17810728   4.901   7.301   6.407  1.8707 -0.7469 -0.9052
   26MOL   H17910729   4.712   7.480   6.279  0.5099  0.3507 -1.1518
   26MOL   H18010730   4.872   7.689   6.387  2.0950 -0.9674  1.8514
   26MOL   H18110731   4.998   7.595   6.341  0.7284 -1.0545 -1.4272
   26MOL   H18210732   4.696   0.004   6.200  0.9486 -1.4893  1.6686
   26MOL   H18310733   4.746   7.739   6.024  0.4523  0.3496  0.2468
   26MOL   H18410734   4.685   7.612   6.121  0.2283 -0.5642 -0.0862
   26MOL   H18510735   4.878   7.471   6.060  0.2273 -0.1337 -0.3423
   26MOL   H18610736   4.922   7.601   5.960  0.2389 -0.4864 -0.9726
   26MOL   H18710737   5.036   7.541   6.088 -0.7378 -0.6296  0.7463
   26MOL   H18810738   4.938   0.126   6.182  3.1543  1.5908 -0.2473
   26MOL   H18910739   5.061   0.012   6.228 -1.0221 -1.0208  0.9670
   26MOL   H19010740   5.027   0.031   6.066  1.3295 -0.4221  1.1391
   26MOL   C19110741   4.769   7.481   6.494  0.1180 -0.4758 -0.2816
   26MOL   C19210742   4.677   7.587   6.559  0.4595 -0.4700 -0.1470
   26MOL   C19310743   4.647   7.551   6.717  0.4944  0.2491  1.1486
   26MOL   C19410744   4.730   7.619   6.829 -0.4070 -0.0148 -0.4929
   26MOL   C19510745   4.881   7.591   6.801  0.3686  0.6191 -0.0964
   26MOL   C19610746   4.702   7.554   6.963  0.0713  0.2005 -0.8197
   26MOL   C19710747   4.708   0.004   6.836  0.5622  0.3078 -0.6985
   26MOL   H19810748   4.716   7.387   6.511  0.0746 -0.4588 -0.3209
   26MOL   H19910749   4.865   7.481   6.546 -0.3388 -0.7166  0.5694
   26MOL   H20010750   4.726   7.684   6.553 -0.2480 -0.2490 -3.2519
   26MOL   H20110751   4.666   7.444   6.724 -2.2585 -0.2684  1.2585
   26MOL   H20210752   4.541   7.569   6.737 -0.0293 -0.5073 -0.7668
   26MOL   H20310753   4.945   7.644   6.872  1.0797 -0.4857  0.0956
   26MOL   H20410754   4.899   7.484   6.791  1.4424  0.4335  3.1079
   26MOL   H20510755   4.896   7.654   6.713 -1.4453 -0.0133 -0.8765
   26MOL   H20610756   4.788   7.568   7.028 -1.4905 -0.2577  1.3857
   26MOL   H20710757   4.610   7.592   7.008 -0.1552 -0.1232 -1.0030
   26MOL   H20810758   4.680   7.448   6.952  0.5279  0.0287 -0.0921
   26MOL   H20910759   4.755   0.050   6.924  1.2243 -1.3581 -0.1738
   26MOL   H21010760   4.762   0.044   6.750  1.4597  2.7525  0.9272
   26MOL   H21110761   4.603   0.033   6.843 -0.3962 -3.3149  1.0156
   26MOL   C21210762   4.542   7.608   6.481  1.0538  0.0830 -0.1703
   26MOL   C21310763   4.469   7.738   6.518  0.3244 -0.0504  0.6432
   26MOL   C21410764   4.323   7.733   6.461  0.1341  0.3689 -0.0108
   26MOL   C21510765   4.207   7.666   6.536  0.1975  0.0883  0.2231
   26MOL   C21610766   4.156   7.759   6.649  0.2335  0.1148 -0.2656
   26MOL   C21710767   4.075   7.647   6.446 -0.5566  0.0017  0.2085
   26MOL   C21810768   4.240   7.525   6.594 -0.0352 -0.2752  0.4247
   26MOL   H21910769   4.560   7.600   6.374  0.7342  1.3987 -0.3288
   26MOL   H22010770   4.479   7.523   6.508  0.5571  0.9188  1.3806
   26MOL   H22110771   4.456   7.748   6.625  0.1030  1.1086  0.5239
   26MOL   H22210772   4.340   7.691   6.362  1.4723 -0.5453  0.5922
   26MOL   H22310773   4.289   0.066   6.429  0.3246  0.1689 -0.8509
   26MOL   H22410774   4.075   7.718   6.709  2.3405 -0.4714  2.2808
   26MOL   H22510775   4.120   0.091   6.616  1.5689  1.1543  1.2452
   26MOL   H22610776   4.242   0.015   6.713 -0.0329 -2.4911  1.0540
   26MOL   H22710777   4.041   7.741   6.402  0.6974  1.5065  2.3815
   26MOL   H22810778   4.101   7.560   6.386  0.8542  0.5641 -0.0400
   26MOL   H22910779   4.000   7.611   6.516 -1.2919 -1.9746 -1.5541
   26MOL   H23010780   4.246   7.449   6.516  0.0904  0.0157  0.1501
   26MOL   H23110781   4.155   7.495   6.656 -1.1140  1.7621 -0.0422
   26MOL   H23210782   4.325   7.524   6.663  2.5841 -1.5950 -2.7063
   26MOL   C23310783   4.540   0.108   6.461 -0.1687  0.0192 -0.3441
   26MOL   C23410784   4.550   0.236   6.553 -0.4970  0.2045 -0.0041
   26MOL   C23510785   4.638   0.330   6.473 -0.6093  0.4850 -0.0477
   26MOL   C23610786   4.790   0.354   6.516 -0.5631  1.1342  0.6933
   26MOL   C23710787   4.799   0.430   6.648 -0.3967  0.2091  0.0506
   26MOL   C23810788   4.877   0.233   6.523  0.2618 -0.3273 -0.1247
   26MOL   C23910789   4.863   0.446   6.415  0.1709  0.2151 -0.9655
   26MOL   H24010790   4.492   0.129   6.365  0.6725  0.0363 -0.7699
   26MOL   H24110791   4.642   0.075   6.439  0.1676  0.4794  0.5164
   26MOL   H24210792   4.601   0.201   6.643  2.9649 -0.2197 -2.0058
   26MOL   H24310793   4.623   0.309   6.367 -1.8939 -0.3933  0.3124
   26MOL   H24410794   4.599   0.432   6.480 -0.4892  0.3670  3.1431
   26MOL   H24510795   4.778   0.360   6.729 -0.8955 -1.0039 -1.1065
   26MOL   H24610796   4.726   0.511   6.651  1.5278  2.1556 -2.8032
   26MOL   H24710797   4.900   0.470   6.657  1.5002 -4.4175  0.4271
   26MOL   H24810798   4.873   0.169   6.435 -1.2081 -1.6104  0.8623
   26MOL   H24910799   4.979   0.258   6.555 -0.0685  0.4217  0.3613
   26MOL   H25010800   4.840   0.164   6.599 -0.0092  0.6527  0.6382
   26MOL   H25110801   4.820   0.545   6.430 -1.5926 -0.8450  1.2342
   26MOL   H25210802   4.970   0.460   6.428 -0.0747  0.2945  1.3321
   26MOL   H25310803   4.839   0.408   6.316 -4.1010  0.1343  0.0181
   26MOL   C25410804   4.417   0.305   6.584  0.0340  0.5976 -0.1607
   26MOL   C25510805   4.428   0.428   6.684  0.1506 -0.4739  0.0475
   26MOL   C25610806   4.456   0.362   6.824 -0.0141  0.3840  0.3770
   26MOL   C25710807   4.461   0.450   6.954  0.2083 -0.1359 -0.5172
   26MOL   C25810808   4.524   0.587   6.932 -0.4307  0.2251  0.0171
   26MOL   C25910809   4.545   0.367   7.062 -0.4112 -0.2674  0.1623
   26MOL   C26010810   4.319   0.460   7.018  0.3439 -0.7478  0.2908
   26MOL   H26110811   4.344   0.231   6.616 -1.0566  2.4344  1.7911
   26MOL   H26210812   4.374   0.329   6.487 -1.4371 -2.2356 -0.2638
   26MOL   H26310813   4.512   0.493   6.660 -0.1419 -0.7149 -1.6772
   26MOL   H26410814   4.382   0.284   6.841  0.9585 -1.1711 -2.1535
   26MOL   H26510815   4.542   0.295   6.825 -0.3684 -0.0694  2.3677
   26MOL   H26610816   4.505   0.646   7.022  2.1037  2.2057 -0.6745
   26MOL   H26710817   4.475   0.652   6.860 -0.2962 -2.3000 -2.4216
   26MOL   H26810818   4.627   0.578   6.895 -1.6658  2.8017 -4.4303
   26MOL   H26910819   4.646   0.360   7.023 -0.4166  0.9356 -0.0890
   26MOL   H27010820   4.512   0.264   7.077 -0.3769 -0.1458  1.0879
   26MOL   H27110821   4.557   0.419   7.157 -2.3872 -0.3068  0.4706
   26MOL   H27210822   4.271   0.362   7.024  1.1838 -1.1477  0.6414
   26MOL   H27310823   4.344   0.504   7.115  0.7032  0.3523 -0.2891
   26MOL   H27410824   4.249   0.530   6.973  0.3231  0.2589  1.8720
   26MOL   C27510825   4.298   0.521   6.689  0.5951 -0.8796  0.0887
   26MOL   C27610826   4.233   0.550   6.558  0.5550 -0.2631 -0.6288
   26MOL   C27710827   4.101   0.631   6.582 -0.6457  0.6862  0.3466
   26MOL   C27810828   3.972   0.547   6.617 -0.5163  0.5335 -0.0911
   26MOL   C27910829   3.860   0.633   6.632  0.9232 -0.7211 -0.0281
   26MOL   C28010830   3.929   0.448   6.504  0.3382  0.3746 -0.0160
   26MOL   C28110831   3.984   0.457   6.745 -0.8906 -0.4252 -0.1615
   26MOL   H28210832   4.238   0.471   6.765  1.8590 -0.7702  1.1685
   26MOL   H28310833   4.337   0.617   6.723  0.7578  0.0269 -2.5271
   26MOL   H28410834   4.204   0.459   6.506 -0.4407  0.9309 -2.2229
   26MOL   H28510835   4.082   0.700   6.500  1.9470 -0.4272 -1.2785
   26MOL   H28610836   4.124   0.696   6.666  1.3956  0.0570  0.3219
   26MOL   H28710837   3.879   0.702   6.714 -4.5483  0.9972  0.0087
   26MOL   H28810838   3.839   0.700   6.548 -2.6170 -0.1679  1.1931
   26MOL   H28910839   3.768   0.578   6.654  0.7437  0.4435  2.2510
   26MOL   H29010840   3.880   0.491   6.417  0.4927  1.3455  0.3716
   26MOL   H29110841   3.882   0.357   6.542 -0.0146  1.2876  1.7855
   26MOL   H29210842   4.018   0.400   6.461  0.3166 -0.7352  1.1366
   26MOL   H29310843   4.044   0.371   6.717 -1.8835 -1.6973  1.5132
   26MOL   H29410844   3.890   0.411   6.777 -0.3450 -1.6025 -0.2490
   26MOL   H29510845   4.022   0.495   6.840 -0.5221  0.6891 -0.7503
   26MOL   C29610846   4.341   0.632   6.473 -0.4857  0.0968  0.4940
   26MOL   C29710847   4.313   0.653   6.321  0.4908 -0.8971  0.3657
   26MOL   C29810848   4.303   0.513   6.242 -1.2064  0.3260 -0.3591
   26MOL   C29910849   4.210   0.497   6.120  0.5068 -0.0216 -0.7108
   26MOL   C30010850   4.223   0.349   6.080 -1.3547  0.1116 -0.2756
   26MOL   C30110851   4.060   0.522   6.147 -0.1092 -0.3238  0.8457
   26MOL   C30210852   4.261   0.577   6.000  0.1033 -0.3409  0.0287
   26MOL   H30310853   4.438   0.584   6.479  0.1717  1.4521  0.9823
   26MOL   H30410854   4.364   0.727   6.522 -1.4681 -0.3605  1.8713
   26MOL   H30510855   4.215   0.696   6.302  1.2636  1.1678  0.8850
   26MOL   H30610856   4.276   0.440   6.319  0.4796 -0.0827 -0.1500
   26MOL   H30710857   4.402   0.472   6.225 -0.9176  0.3572  1.2404
   26MOL   H30810858   4.324   0.322   6.048 -0.9002  0.0156  1.1741
   26MOL   H30910859   4.192   0.271   6.150  0.3217 -0.9177 -0.6430
   26MOL   H31010860   4.171   0.328   5.987  0.4090  0.0424 -1.2686
   26MOL   H31110861   4.039   0.622   6.186  1.1827  0.0818  0.5332
   26MOL   H31210862   4.000   0.499   6.059  0.5175  1.4897 -0.0884
   26MOL   H31310863   4.034   0.464   6.235 -3.1711 -0.3089 -0.0012
   26MOL   H31410864   4.369   0.564   5.990  0.2327 -0.3056  1.2684
   26MOL   H31510865   4.220   0.553   5.902  1.5093  1.0032 -0.9131
   26MOL   H31610866   4.245   0.685   6.009  2.5282 -0.0871  1.8455
   26MOL   C31710867   4.427   0.736   6.256  0.6861  0.8804  0.4536
   26MOL   C31810868   4.461   0.871   6.320  0.1241 -0.2539  0.0892
   26MOL   C31910869   4.580   0.938   6.244  0.0370  0.0916 -0.0814
   26MOL   C32010870   4.727   0.888   6.256 -0.4044  0.1268 -0.0701
   26MOL   C32110871   4.815   1.005   6.206  0.6048  0.0660  0.2107
   26MOL   C32210872   4.756   0.762   6.176 -0.0573  0.3268 -0.7532
   26MOL   C32310873   4.763   0.878   6.402 -0.6348  0.1766  0.5769
   26MOL   H32410874   4.517   0.676   6.272 -1.3049 -2.6072 -0.7531
   26MOL   H32510875   4.417   0.740   6.147  0.9346 -2.2667  0.2601
   26MOL   H32610876   4.480   0.870   6.427  1.5852  0.8767 -0.1494
   26MOL   H32710877   4.576   1.047   6.251  0.8796  0.3690 -3.1620
   26MOL   H32810878   4.566   0.919   6.138 -1.9129 -0.8941  0.3366
   26MOL   H32910879   4.827   1.089   6.274  0.5836 -0.8071  1.3027
   26MOL   H33010880   4.779   1.045   6.111  3.0052  0.0879 -0.7011
   26MOL   H33110881   4.913   0.970   6.174  1.0575 -0.2819  1.9479
   26MOL   H33210882   4.726   0.672   6.230 -0.6953  0.1125 -1.4582
   26MOL   H33310883   4.701   0.759   6.082 -0.8951 -1.0446 -0.2409
   26MOL   H33410884   4.861   0.747   6.151  0.2943 -0.0774  0.8559
   26MOL   H33510885   4.870   0.870   6.422 -0.4050 -0.6586 -0.9171
   26MOL   H33610886   4.717   0.787   6.440  0.1271 -0.0691  0.9177
   26MOL   H33710887   4.723   0.964   6.455 -0.1399  0.5326  0.3765
   26MOL   C33810888   4.348   0.974   6.306  1.4923 -0.0831  0.4232
   26MOL   C33910889   4.338   1.092   6.408  0.5792  0.5306 -0.4290
   26MOL   C34010890   4.253   1.032   6.531 -0.3469 -0.3221 -0.2309
   26MOL   C34110891   4.279   1.091   6.669  0.2678  0.0941  0.2190
   26MOL   C34210892   4.283   1.244   6.668 -0.4020 -0.7841  0.0650
   26MOL   C34310893   4.173   1.029   6.766  0.7817 -0.3731 -0.4517
   26MOL   C34410894   4.410   1.034   6.724 -0.2897  0.1378 -0.3886
   26MOL   H34510895   4.250   0.927   6.301  1.4585 -0.0768  1.0425
   26MOL   H34610896   4.349   1.015   6.205 -0.4542  1.0928  0.8642
   26MOL   H34710897   4.439   1.119   6.441  1.2245  0.1427 -2.0280
   26MOL   H34810898   4.251   0.924   6.548  0.4984  0.1191  3.1762
   26MOL   H34910899   4.147   1.051   6.514 -0.4687 -2.6455 -2.3450
   26MOL   H35010900   4.353   1.295   6.602 -1.9533  0.4732 -0.6494
   26MOL   H35110901   4.185   1.287   6.648 -0.6768 -1.3407  0.2235
   26MOL   H35210902   4.300   1.269   6.773  2.0928  0.6163 -0.6195
   26MOL   H35310903   4.163   0.921   6.750  1.3386 -0.2382 -1.6889
   26MOL   H35410904   4.197   1.073   6.863  1.2486  1.5902 -1.4472
   26MOL   H35510905   4.076   1.069   6.737  1.1694 -0.8759 -2.4710
   26MOL   H35610906   4.428   1.047   6.830 -0.1462  0.1242 -0.4113
   26MOL   H35710907   4.403   0.926   6.718 -1.3681  0.0672  1.8772
   26MOL   H35810908   4.494   1.050   6.656 -2.0418  0.8815 -2.4521
   26MOL   C35910909   4.267   1.219   6.340  0.1833 -0.5362  0.1907
   26MOL   C36010910   4.334   1.295   6.224  0.1398  0.1526 -0.1185
   26MOL   C36110911   4.436   1.390   6.295  0.1065  0.2297 -0.1707
   26MOL   C36210912   4.565   1.436   6.219  0.4907  0.0639 -0.3751
   26MOL   C36310913   4.665   1.319   6.198 -0.4587 -0.9700 -0.9882
   26MOL   C36410914   4.638   1.542   6.312 -0.4161  0.6609  0.4663
   26MOL   C36510915   4.531   1.487   6.076 -0.2453  0.6061  0.4773
   26MOL   H36610916   4.229   1.298   6.404  2.0853  0.4234  0.1611
   26MOL   H36710917   4.169   1.182   6.309  0.7546 -1.1693 -0.9219
   26MOL   H36810918   4.383   1.219   6.163 -1.6084 -0.6413 -0.5721
   26MOL   H36910919   4.384   1.484   6.318 -0.8274 -0.9193  2.7024
   26MOL   H37010920   4.468   1.347   6.390 -1.9766 -1.5303 -0.2292
   26MOL   H37110921   4.657   1.260   6.290 -1.8238 -1.3225 -1.3184
   26MOL   H37210922   4.626   1.249   6.123 -1.4817 -2.4097  0.8464
   26MOL   H37310923   4.767   1.350   6.175 -0.4064 -0.7782 -0.5011
   26MOL   H37410924   4.562   1.608   6.354 -1.4524  0.2600 -0.7305
   26MOL   H37510925   4.717   1.600   6.264 -0.2658  1.8993  2.1728
   26MOL   H37610926   4.677   1.494   6.401 -0.2534  0.2087  0.1538
   26MOL   H37710927   4.479   1.407   6.022 -1.6923  1.0623  1.1824
   26MOL   H37810928   4.626   1.502   6.024  0.2803  0.4691  1.3933
   26MOL   H37910929   4.478   1.580   6.057 -0.3253  0.3471 -0.6207
   26MOL   C38010930   4.219   1.372   6.146 -0.1900  0.9347 -0.1184
   26MOL   C38110931   4.134   1.294   6.038  0.5479  0.0898  0.7917
   26MOL   C38210932   4.219   1.279   5.908 -0.2506 -0.7523 -0.2050
   26MOL   C38310933   4.174   1.176   5.793 -0.3476 -0.2362 -0.0933
   26MOL   C38410934   4.154   1.041   5.860  0.7209  0.0028 -0.2297
   26MOL   C38510935   4.290   1.173   5.691  0.0594 -0.2402  0.5758
   26MOL   C38610936   4.040   1.223   5.721  0.1905  0.3829  0.2744
   26MOL   H38710937   4.264   1.463   6.106  0.8145  0.5069  0.0402
   26MOL   H38810938   4.150   1.414   6.219  0.0067  0.8714  0.1018
   26MOL   H38910939   4.110   1.193   6.072  1.1279  0.5756  2.7209
   26MOL   H39010940   4.251   1.374   5.867 -0.6769 -0.0954  0.9744
   26MOL   H39110941   4.318   1.247   5.943  0.1186 -0.0439 -0.6001
   26MOL   H39210942   4.071   1.044   5.930  1.2788 -1.3294  0.5250
   26MOL   H39310943   4.137   0.962   5.786  1.0919 -1.0132  0.7428
   26MOL   H39410944   4.247   1.013   5.911  0.9521  1.3072  0.0718
   26MOL   H39510945   4.285   1.260   5.626 -0.4779 -0.5535  0.1965
   26MOL   H39610946   4.274   1.092   5.620  2.4370 -0.7048  0.5202
   26MOL   H39710947   4.395   1.169   5.719 -0.1406 -2.2900  1.1483
   26MOL   H39810948   3.941   1.197   5.760  0.5819 -1.5783  0.0190
   26MOL   H39910949   4.036   1.180   5.620  0.2356 -2.1109  1.3041
   26MOL   H40010950   4.053   1.330   5.708 -6.6144  1.3962 -0.2961
   26MOL   C40110951   4.001   1.374   6.020 -0.7474 -1.1505  0.3358
   26MOL   C40210952   3.879   1.288   6.060 -0.1900  0.1023  0.2888
   26MOL   C40310953   3.842   1.264   6.207  0.3120 -0.3189  0.5947
   26MOL   C40410954   3.744   1.151   6.223 -0.0417  0.0802 -0.3324
   26MOL   C40510955   3.817   1.018   6.213  0.3212 -1.2010  0.1701
   26MOL   C40610956   3.627   1.150   6.125 -0.0620 -0.0821 -0.1166
   26MOL   C40710957   3.675   1.160   6.365 -0.2571  0.2845 -0.1563
   26MOL   H40810958   3.994   1.466   6.078  1.7593  0.2461 -1.4369
   26MOL   H40910959   3.997   1.410   5.917 -0.9908  1.1948  1.1297
   26MOL   H41010960   3.794   1.333   6.008 -0.2792  1.2084  1.3615
   26MOL   H41110961   3.803   1.360   6.241  1.3808  0.9361 -1.6287
   26MOL   H41210962   3.933   1.248   6.264 -1.3294  0.9691  3.7230
   26MOL   H41310963   3.856   1.015   6.111  1.0016 -0.1940  0.3898
   26MOL   H41410964   3.749   0.935   6.231  0.6973 -1.6677 -0.5381
   26MOL   H41510965   3.908   1.024   6.273  2.3156 -0.2397 -2.7848
   26MOL   H41610966   3.570   1.242   6.114 -0.3893 -0.4498 -1.6701
   26MOL   H41710967   3.559   1.067   6.146  0.3829 -0.1480  1.0596
   26MOL   H41810968   3.668   1.122   6.028  1.5116  0.3438  0.4079
   26MOL   H41910969   3.594   1.087   6.377 -0.9699  1.2763  1.2783
   26MOL   H42010970   3.742   1.140   6.449  1.8751  1.7065 -1.5007
   26MOL   H42110971   3.613   1.249   6.376  1.3635  1.1978  1.9175
   26MOL   H42210972   3.898   1.193   6.011  1.6947  0.4753  0.2376
   27MOL     C110973   2.630   3.764   0.544 -0.2297  0.7830 -0.3530
   27MOL     C210974   2.501   3.679   0.513 -0.2726 -0.3152 -0.5240
   27MOL     C310975   2.518   3.602   0.381 -0.0465  0.0027  0.3019
   27MOL     C410976   2.499   3.447   0.378 -0.1376 -0.1801  0.4549
   27MOL     C510977   2.374   3.401   0.454  0.4377 -1.0340 -0.1456
   27MOL     C610978   2.486   3.399   0.239 -0.2277  0.1039  0.4977
   27MOL     C710979   2.634   3.377   0.430  0.5375  0.5438 -0.6240
   27MOL     H810980   2.723   3.713   0.519 -1.7821 -1.5968 -1.4463
   27MOL     H910981   2.638   3.840   0.465 -1.3035  1.6271  0.3236
   27MOL    H1010982   2.498   3.600   0.588  1.6335 -0.3690 -0.4755
   27MOL    H1110983   2.617   3.616   0.338  0.6218  0.6328  1.9986
   27MOL    H1210984   2.456   3.650   0.305 -0.6694  0.7720  1.2897
   27MOL    H1310985   2.375   3.424   0.561 -1.0246 -0.8340 -0.1570
   27MOL    H1410986   2.364   3.293   0.462 -0.1437 -0.8220  2.6316
   27MOL    H1510987   2.283   3.442   0.410 -0.3000  2.0734  3.9126
   27MOL    H1610988   2.394   3.429   0.189  1.0801  0.0394 -2.0587
   27MOL    H1710989   2.568   3.429   0.174  1.5336  0.4290  2.8252
   27MOL    H1810990   2.482   3.290   0.237  0.0157  0.1049 -0.1645
   27MOL    H1910991   2.615   3.278   0.472  2.9716 -0.1634 -1.1231
   27MOL    H2010992   2.680   3.442   0.505  2.1430  0.4622 -1.5199
   27MOL    H2110993   2.713   3.362   0.356 -0.2598  1.4956 -1.6964
   27MOL    H2210994   2.637   3.811   0.643 -2.1925 -1.5432  0.9266
   27MOL    C2310995   2.368   3.764   0.505 -0.5741 -0.1571 -0.1702
   27MOL    C2410996   2.328   3.848   0.621 -0.2021 -0.1595 -0.4239
   27MOL    C2510997   2.310   3.775   0.763  0.3275  1.1769 -0.5859
   27MOL    C2610998   2.335   3.851   0.891  0.2792 -0.3515  0.0158
   27MOL    C2710999   2.220   3.951   0.926  0.3487  0.3890  0.6175
   27MOL    C2811000   2.360   3.753   1.009  0.5418  0.0668  0.5621
   27MOL    C2911001   2.469   3.930   0.885  0.3462 -0.2839  0.3965
   27MOL    H3011002   2.373   3.835   0.422 -0.3751  0.9927  0.8223
   27MOL    H3111003   2.281   3.701   0.486 -0.9942  0.0201  1.0929
   27MOL    H3211004   2.412   3.916   0.631 -0.0549 -0.3357 -0.4641
   27MOL    H3311005   2.378   3.689   0.762 -1.7062 -0.4854  0.9731
   27MOL    H3411006   2.214   3.725   0.763  0.4818  0.8218  2.3062
   27MOL    H3511007   2.196   4.031   0.856  1.7575  0.8514  0.6570
   27MOL    H3611008   2.124   3.900   0.933  0.5727 -0.0486  0.4704
   27MOL    H3711009   2.229   4.005   1.021 -3.0594  0.2192  1.1278
   27MOL    H3811010   2.453   3.698   0.992  1.2521  0.5260  2.8295
   27MOL    H3911011   2.364   3.798   1.108  2.6094 -1.3133  1.1437
   27MOL    H4011012   2.272   3.688   1.005  0.2342  0.5752 -1.7548
   27MOL    H4111013   2.492   3.968   0.984 -1.5790  0.9631  0.3989
   27MOL    H4211014   2.464   4.010   0.810 -0.3635 -1.9323 -1.3584
   27MOL    H4311015   2.553   3.871   0.849  0.9188  0.5155  0.4191
   27MOL    C4411016   2.195   3.917   0.589 -0.0192 -0.1190  0.1572
   27MOL    C4511017   2.210   4.056   0.508 -1.0308  0.4094 -0.3104
   27MOL    C4611018   2.272   4.176   0.591  0.7121  0.4874  0.8672
   27MOL    C4711019   2.385   4.257   0.526  0.6178  0.0162  0.1686
   27MOL    C4811020   2.514   4.175   0.483 -0.5874 -0.1151 -0.1541
   27MOL    C4911021   2.424   4.367   0.626  0.6247  0.0241 -0.5872
   27MOL    C5011022   2.340   4.334   0.402 -0.0651  0.4929  0.5091
   27MOL    H5111023   2.127   3.849   0.538  0.5510 -0.6231  0.0617
   27MOL    H5211024   2.154   3.947   0.686 -2.9442 -0.6413 -0.8626
   27MOL    H5311025   2.277   4.041   0.423 -0.3528  1.8924 -0.0511
   27MOL    H5411026   2.302   4.132   0.686  2.0597  0.8351  0.5987
   27MOL    H5511027   2.182   4.235   0.609 -0.5723 -1.0406 -0.3739
   27MOL    H5611028   2.507   4.096   0.408 -1.5555 -1.5119  1.3392
   27MOL    H5711029   2.568   4.116   0.557  1.3767  1.9280  0.0837
   27MOL    H5811030   2.592   4.244   0.454  1.5849 -2.0667  0.8644
   27MOL    H5911031   2.465   4.344   0.725 -0.3965  0.9786  0.0720
   27MOL    H6011032   2.472   4.454   0.581 -0.1029 -0.2704 -1.9657
   27MOL    H6111033   2.330   4.412   0.658  0.3093  0.9009 -2.6457
   27MOL    H6211034   2.407   4.414   0.369 -0.1950  1.4085  2.4209
   27MOL    H6311035   2.329   4.275   0.311  2.7682 -1.4070  1.3142
   27MOL    H6411036   2.253   4.399   0.412  0.9389  1.4878  3.4769
   27MOL    C6511037   2.075   4.087   0.439  0.1176 -0.2052  0.4787
   27MOL    C6611038   2.061   4.012   0.304  1.3279  0.4673  0.4205
   27MOL    C6711039   2.125   4.080   0.183 -0.1942 -0.2208  0.1014
   27MOL    C6811040   2.047   4.194   0.106  0.2356 -0.8649 -0.2791
   27MOL    C6911041   2.148   4.272   0.018  0.4513  0.2867 -0.0797
   27MOL    C7011042   1.944   4.126   0.009  0.7365  0.1878 -0.3474
   27MOL    C7111043   1.983   4.301   0.190  0.2341 -0.1002 -0.5631
   27MOL    H7211044   1.994   4.072   0.510  0.6012 -1.0599  0.8768
   27MOL    H7311045   2.060   4.192   0.418 -1.7409 -0.2908  1.2790
   27MOL    H7411046   2.117   3.919   0.308  0.7426  0.1543  1.7275
   27MOL    H7511047   2.172   4.005   0.119  0.6895 -1.2265  1.9044
   27MOL    H7611048   2.217   4.125   0.222 -1.4418  0.6358  2.1044
   27MOL    H7711049   2.093   4.340   7.720  1.6115  3.7184  2.4416
   27MOL    H7811050   2.217   4.338   0.070  2.9882 -0.1831 -2.7342
   27MOL    H7911051   2.200   4.201   7.720 -0.4143 -0.3828 -0.0616
   27MOL    H8011052   1.850   4.097   0.056  0.3375 -0.2563 -1.4155
   27MOL    H8111053   1.978   4.027   7.742 -3.5294 -0.9126 -1.6837
   27MOL    H8211054   1.918   4.182   7.686 -0.6200 -1.1708 -0.8173
   27MOL    H8311055   1.923   4.376   0.138 -0.3362 -0.2229 -0.0784
   27MOL    H8411056   2.059   4.353   0.248 -2.2182  3.8132 -0.6586
   27MOL    H8511057   1.915   4.270   0.269 -1.4110  3.1309 -0.6285
   27MOL    C8611058   1.916   3.966   0.287  0.2392 -0.5294 -0.1141
   27MOL    C8711059   1.858   3.867   0.393 -0.2822  0.1358  0.1488
   27MOL    C8811060   1.819   3.721   0.345 -0.3925  0.4483  0.4928
   27MOL    C8911061   1.924   3.616   0.373  0.4760 -0.0627  0.4655
   27MOL    C9011062   2.051   3.647   0.299  0.6040  0.5484  0.3436
   27MOL    C9111063   1.869   3.469   0.331  0.3283  0.3436 -0.1219
   27MOL    C9211064   1.960   3.591   0.521  0.6306  0.2875 -0.5322
   27MOL    H9311065   1.905   3.901   0.200 -1.1635  1.3891 -1.4055
   27MOL    H9411066   1.848   4.050   0.272 -1.4052 -2.0677 -1.4232
   27MOL    H9511067   1.924   3.850   0.477 -1.0633 -0.5992  0.6229
   27MOL    H9611068   1.806   3.719   0.236 -1.5340  1.7630  0.5836
   27MOL    H9711069   1.715   3.689   0.356 -0.1015 -0.5281  0.4062
   27MOL    H9811070   2.023   3.680   0.198 -0.5241 -3.0442 -0.5755
   27MOL    H9911071   2.125   3.567   0.290  0.5071  0.4762  0.1810
   27MOL   H10011072   2.102   3.728   0.352  1.6098 -0.3158  0.7081
   27MOL   H10111073   1.951   3.398   0.321  0.0067  0.0004 -0.3462
   27MOL   H10211074   1.808   3.422   0.408 -0.2694  0.8372 -0.2852
   27MOL   H10311075   1.809   3.474   0.240  3.4911  0.9551 -2.2730
   27MOL   H10411076   1.873   3.563   0.581  0.4002  1.4052 -0.3403
   27MOL   H10511077   2.022   3.503   0.536  0.3064  0.0151 -0.7691
   27MOL   H10611078   2.008   3.677   0.567 -0.0758  2.1556 -3.2259
   27MOL   C10711079   1.722   3.926   0.445 -0.5130 -0.3090 -0.2882
   27MOL   C10811080   1.658   3.877   0.578 -0.0024 -0.3984  0.2213
   27MOL   C10911081   1.733   3.962   0.689 -0.2328  0.2855  0.3562
   27MOL   C11011082   1.765   3.901   0.827  0.2388 -0.1008  0.1381
   27MOL   C11111083   1.840   3.995   0.920  0.2783 -0.1247 -0.2813
   27MOL   C11211084   1.838   3.764   0.817 -0.3676 -0.5715  0.5907
   27MOL   C11311085   1.630   3.872   0.907 -0.2154  0.1880 -0.2859
   27MOL   H11411086   1.655   3.912   0.360 -0.2299 -0.9572 -0.4049
   27MOL   H11511087   1.735   4.034   0.454  0.1639 -0.4769  0.8544
   27MOL   H11611088   1.697   3.775   0.580  2.4286  0.5239  1.1455
   27MOL   H11711089   1.824   4.006   0.650 -0.3600  0.2215 -0.0143
   27MOL   H11811090   1.671   4.052   0.696  0.6431  1.0599 -1.6975
   27MOL   H11911091   1.871   3.947   1.012  1.4814 -1.5103 -1.3763
   27MOL   H12011092   1.935   4.036   0.883  0.5671  0.1687  0.7783
   27MOL   H12111093   1.784   4.084   0.949  0.2429  0.1709 -1.2296
   27MOL   H12211094   1.856   3.719   0.915 -1.7926 -0.7156  0.7969
   27MOL   H12311095   1.940   3.771   0.777 -0.3219  2.1644  1.0959
   27MOL   H12411096   1.776   3.701   0.753 -0.0940 -0.4826  0.2329
   27MOL   H12511097   1.565   3.954   0.936  0.0445  0.1304  0.4664
   27MOL   H12611098   1.662   3.813   0.993 -1.2266  1.6551  1.1283
   27MOL   H12711099   1.577   3.797   0.848  1.9240 -2.6404  1.2684
   27MOL   C12811100   1.502   3.896   0.569 -0.1204  0.1475 -0.6604
   27MOL   C12911101   1.413   3.774   0.517 -0.1850  0.1429 -0.2240
   27MOL   C13011102   1.421   3.663   0.613 -0.3235  0.5774 -0.1336
   27MOL   C13111103   1.394   3.513   0.563  0.4017 -0.4502  0.2220
   27MOL   C13211104   1.271   3.473   0.487 -0.6813  0.3702  0.2627
   27MOL   C13311105   1.402   3.409   0.680 -0.0243 -0.6646 -0.8051
   27MOL   C13411106   1.522   3.481   0.476  0.5029  0.1489 -0.1429
   27MOL   H13511107   1.484   3.974   0.495  1.2841  1.5864  0.4823
   27MOL   H13611108   1.463   3.941   0.661  2.4732  0.0674  0.5192
   27MOL   H13711109   1.444   3.751   0.415 -0.1712  1.5233 -0.5413
   27MOL   H13811110   1.513   3.670   0.671 -1.0356 -1.7984  1.4035
   27MOL   H13911111   1.339   3.673   0.685 -1.4181 -1.5889 -1.0274
   27MOL   H14011112   1.253   3.366   0.496 -1.9867  0.5690  0.0936
   27MOL   H14111113   1.279   3.492   0.380  0.3679 -1.4894 -0.0131
   27MOL   H14211114   1.182   3.524   0.525  1.1400  1.9721  2.4868
   27MOL   H14311115   1.390   3.310   0.636  1.4313  0.0385 -2.8123
   27MOL   H14411116   1.314   3.425   0.742  0.7784  0.1916  0.1408
   27MOL   H14511117   1.488   3.404   0.748 -0.2275  1.6470 -0.3324
   27MOL   H14611118   1.611   3.487   0.539  0.3421  1.5843 -0.0354
   27MOL   H14711119   1.514   3.387   0.422 -0.4379 -0.4738  1.0585
   27MOL   H14811120   1.527   3.547   0.389 -2.1219  1.2662  0.5241
   27MOL   C14911121   1.266   3.825   0.493  0.0702  0.4167  0.1649
   27MOL   C15011122   1.247   3.939   0.390  0.5464 -0.3051 -0.2020
   27MOL   C15111123   1.116   3.916   0.307  0.0989 -0.3467 -0.5410
   27MOL   C15211124   1.104   3.822   0.181 -0.1554  0.2175 -0.4343
   27MOL   C15311125   1.161   3.680   0.202  0.1962 -0.0215  0.1887
   27MOL   C15411126   1.179   3.891   0.063  0.3302 -0.1426 -0.2333
   27MOL   C15511127   0.949   3.814   0.149 -0.0019  0.3706 -0.8277
   27MOL   H15611128   1.219   3.860   0.585 -0.1801  0.7783 -0.1015
   27MOL   H15711129   1.207   3.738   0.463 -0.4328  0.1956  1.7406
   27MOL   H15811130   1.331   3.938   0.320  2.3261  1.6183  1.8314
   27MOL   H15911131   1.060   4.008   0.294  1.2855  0.4213 -0.3200
   27MOL   H16011132   1.051   3.857   0.372 -2.3349  2.0146 -0.7562
   27MOL   H16111133   1.130   3.625   0.290 -1.3602  1.2755  0.4821
   27MOL   H16211134   1.115   3.622   0.123  0.4129  0.2679 -0.1546
   27MOL   H16311135   1.270   3.683   0.194  0.2704  0.7275  1.3153
   27MOL   H16411136   1.170   4.000   0.070  1.1840 -0.1598  1.3781
   27MOL   H16511137   1.153   3.855   7.730 -0.2171 -1.7651  0.4887
   27MOL   H16611138   1.286   3.878   0.075  0.0473 -1.9203  0.5381
   27MOL   H16711139   0.893   3.774   0.233  0.9828 -0.7585 -0.6983
   27MOL   H16811140   0.915   3.916   0.130 -0.8891 -0.3607 -3.2414
   27MOL   H16911141   0.930   3.748   0.065  1.3135  0.8377 -1.5031
   27MOL   C17011142   1.223   4.082   0.459 -0.2183 -0.9739  0.7234
   27MOL   C17111143   1.241   4.225   0.384 -0.1893 -0.5387  0.4566
   27MOL   C17211144   1.394   4.240   0.337  0.9200  0.6162  0.6453
   27MOL   C17311145   1.442   4.329   0.217 -0.6409 -0.0872 -0.4253
   27MOL   C17411146   1.593   4.297   0.191 -0.2653  0.4112 -0.4441
   27MOL   C17511147   1.427   4.485   0.236 -0.1334 -0.2275 -0.8837
   27MOL   C17611148   1.372   4.292   0.091 -0.4294  0.2533  0.2908
   27MOL   H17711149   1.274   4.091   0.555  2.0078  0.1677 -0.5200
   27MOL   H17811150   1.123   4.088   0.502  0.1123  0.8584  1.3123
   27MOL   H17911151   1.175   4.219   0.298 -0.8897 -0.3576  0.9712
   27MOL   H18011152   1.463   4.244   0.422 -0.4234  2.7687  1.6826
   27MOL   H18111153   1.422   4.142   0.299 -1.5213  0.3612 -0.5780
   27MOL   H18211154   1.629   4.364   0.113  2.0527 -0.2463  0.0313
   27MOL   H18311155   1.659   4.320   0.275 -0.4622 -0.7392  0.0353
   27MOL   H18411156   1.608   4.195   0.156 -0.8815  0.2435 -0.2216
   27MOL   H18511157   1.445   4.527   0.335 -0.8127  0.4120 -1.0309
   27MOL   H18611158   1.487   4.547   0.170 -1.4109  0.1457 -1.7039
   27MOL   H18711159   1.324   4.508   0.211 -0.7149 -0.2641  1.3633
   27MOL   H18811160   1.265   4.274   0.100 -0.2013 -1.6177 -0.6228
   27MOL   H18911161   1.380   4.366   0.011  0.6635 -0.8205 -0.6155
   27MOL   H19011162   1.418   4.198   0.061  1.0810  1.1368 -0.2059
   27MOL   C19111163   1.206   4.348   0.475 -0.1838  0.4294 -0.0449
   27MOL   C19211164   1.052   4.361   0.494  0.4192 -0.6049 -0.3729
   27MOL   C19311165   0.991   4.447   0.373  0.7698  0.3759 -0.0677
   27MOL   C19411166   0.860   4.392   0.308  0.2650  0.0387 -0.7923
   27MOL   C19511167   0.751   4.425   0.405  0.0409 -0.1638  0.1481
   27MOL   C19611168   0.868   4.242   0.275  0.3397  0.1672  0.1047
   27MOL   C19711169   0.832   4.474   0.186 -0.2805  0.2309  0.7754
   27MOL   H19811170   1.253   4.340   0.573 -0.2029  1.1529  0.0231
   27MOL   H19911171   1.239   4.441   0.429  3.0354 -1.8398 -2.5258
   27MOL   H20011172   1.011   4.262   0.512 -1.3250  0.0764 -0.5318
   27MOL   H20111173   1.073   4.450   0.300  2.8319  1.6248  2.2153
   27MOL   H20211174   0.978   4.551   0.401  1.5541  0.3188  0.5388
   27MOL   H20311175   0.744   4.531   0.431  0.2787  0.5450 -2.5081
   27MOL   H20411176   0.654   4.408   0.357  0.8053 -1.9340 -0.7977
   27MOL   H20511177   0.756   4.367   0.496  0.0145 -2.7122 -1.4378
   27MOL   H20611178   0.883   4.187   0.368 -1.8614 -0.2368  0.2462
   27MOL   H20711179   0.786   4.198   0.218  0.1289  1.3965 -0.5531
   27MOL   H20811180   0.957   4.226   0.214  0.6726  0.0510  0.6189
   27MOL   H20911181   0.830   4.582   0.202  0.6309  0.2631  0.7098
   27MOL   H21011182   0.900   4.462   0.101 -0.7535  0.4440  0.3672
   27MOL   H21111183   0.745   4.454   0.124  1.0196 -1.6550 -0.5108
   27MOL   C21211184   1.031   4.443   0.622  0.4379 -0.1885 -0.3902
   27MOL   C21311185   1.052   4.372   0.759  0.2243 -0.5216  0.6408
   27MOL   C21411186   0.924   4.312   0.805 -0.2224 -0.0800  0.5103
   27MOL   C21511187   0.924   4.172   0.873  0.0410 -0.1183  0.0845
   27MOL   C21611188   0.778   4.139   0.915 -0.8900 -0.5493 -0.7986
   27MOL   C21711189   0.976   4.054   0.785  0.1358  0.0173  0.2793
   27MOL   C21811190   1.014   4.178   1.000 -0.6322  0.4937 -0.1794
   27MOL   H21911191   1.087   4.536   0.610 -0.1405  0.3395  0.9051
   27MOL   H22011192   0.931   4.486   0.630  0.1262 -1.4013  2.8331
   27MOL   H22111193   1.121   4.289   0.750 -0.5907 -1.2633  1.1276
   27MOL   H22211194   0.860   4.284   0.721  0.8042 -2.7641  0.5754
   27MOL   H22311195   0.862   4.381   0.863 -0.2376 -0.5655  1.0730
   27MOL   H22411196   0.727   4.227   0.955 -1.8257 -1.6743  0.5111
   27MOL   H22511197   0.767   4.053   0.981  1.0317 -1.2801 -1.4021
   27MOL   H22611198   0.722   4.101   0.830 -1.3124 -1.8436  0.0494
   27MOL   H22711199   1.081   4.071   0.761 -0.3315 -0.0695 -1.9348
   27MOL   H22811200   0.949   3.955   0.823 -1.5184  0.3014 -0.1151
   27MOL   H22911201   0.942   4.050   0.681  1.1482  0.5638 -0.0717
   27MOL   H23011202   1.024   4.082   1.050 -1.8060 -0.1632 -1.1837
   27MOL   H23111203   0.973   4.249   1.072  2.3175  1.4442  0.6465
   27MOL   H23211204   1.118   4.201   0.976 -0.1262 -0.7829  0.6938
   27MOL   C23311205   1.109   4.474   0.863  0.3302  1.1119  0.2230
   27MOL   C23411206   1.260   4.514   0.852 -0.9062 -0.3960  0.2133
   27MOL   C23511207   1.284   4.635   0.949  0.4501 -0.0203  0.4752
   27MOL   C23611208   1.288   4.775   0.884 -0.1525 -0.3430  0.0042
   27MOL   C23711209   1.159   4.812   0.806  0.8360  0.2542  0.5645
   27MOL   C23811210   1.304   4.879   0.995  0.4200  0.0451 -0.4692
   27MOL   C23911211   1.407   4.793   0.787  0.7201 -0.3211 -0.2768
   27MOL   H24011212   1.091   4.443   0.966 -1.7080 -1.7831 -0.9298
   27MOL   H24111213   1.048   4.564   0.857 -0.4278  0.6846  1.3287
   27MOL   H24211214   1.301   4.520   0.751  1.2435 -2.2811  0.9269
   27MOL   H24311215   1.217   4.628   1.035  0.6184 -0.3207  0.5825
   27MOL   H24411216   1.380   4.605   0.990  0.4226  0.7057  1.0851
   27MOL   H24511217   1.176   4.777   0.704  0.7794  1.5386  0.1039
   27MOL   H24611218   1.150   4.921   0.808 -1.2314  0.1115  0.1744
   27MOL   H24711219   1.060   4.779   0.838  0.8138  0.1551  0.3927
   27MOL   H24811220   1.393   4.851   1.051  0.7783  0.8400 -0.6161
   27MOL   H24911221   1.324   4.978   0.952  0.7344  1.1368  2.1201
   27MOL   H25011222   1.215   4.878   1.057 -0.6383 -0.2981 -1.9823
   27MOL   H25111223   1.488   4.800   0.860  2.5351  1.5995 -2.3622
   27MOL   H25211224   1.423   4.707   0.723  0.1903 -0.0776 -0.7428
   27MOL   H25311225   1.405   4.890   0.737 -3.8662 -0.1371  0.0938
   27MOL   C25411226   1.337   4.394   0.917  1.0028 -0.2340 -0.0659
   27MOL   C25511227   1.489   4.387   0.906 -0.2559  0.1628  0.3685
   27MOL   C25611228   1.545   4.366   0.763 -0.6658  0.8116 -0.1718
   27MOL   C25711229   1.688   4.422   0.720 -0.3757  0.1812 -0.5515
   27MOL   C25811230   1.679   4.578   0.723  0.0741 -0.1134  0.1187
   27MOL   C25911231   1.725   4.380   0.582  0.7878  0.5804 -0.0531
   27MOL   C26011232   1.805   4.370   0.808  0.4262  0.3430  0.4939
   27MOL   H26111233   1.296   4.301   0.877  0.3378 -1.5930  3.5915
   27MOL   H26211234   1.309   4.396   1.022 -0.6072  0.7069 -0.4805
   27MOL   H26311235   1.538   4.481   0.932  1.0103 -0.2095 -0.5877
   27MOL   H26411236   1.538   4.265   0.725 -0.9227  0.9827 -0.5871
   27MOL   H26511237   1.486   4.424   0.692 -3.3310 -1.6965 -0.0774
   27MOL   H26611238   1.779   4.623   0.722 -0.1165  0.3319  1.3430
   27MOL   H26711239   1.620   4.618   0.805 -0.2186  0.9186 -0.5879
   27MOL   H26811240   1.639   4.628   0.635  0.3237  0.9462  0.6004
   27MOL   H26911241   1.829   4.401   0.558  0.7141 -0.9114 -1.7591
   27MOL   H27011242   1.658   4.424   0.508 -1.1794  1.0861  1.9650
   27MOL   H27111243   1.721   4.272   0.570  0.3679  0.4676  1.0046
   27MOL   H27211244   1.821   4.263   0.793  2.0601  0.8295 -1.5098
   27MOL   H27311245   1.891   4.436   0.794 -0.0243  0.7874 -0.2330
   27MOL   H27411246   1.785   4.382   0.914  1.9951  3.0393  0.5352
   27MOL   C27511247   1.537   4.263   0.997  0.2786 -0.2401  0.5178
   27MOL   C27611248   1.548   4.286   1.149  0.2426 -0.1478  0.4771
   27MOL   C27711249   1.562   4.145   1.225 -0.6003 -0.3357 -0.0394
   27MOL   C27811250   1.437   4.097   1.305  0.4022 -0.0153  0.0865
   27MOL   C27911251   1.466   3.954   1.352  0.7352  0.3580  0.2548
   27MOL   C28011252   1.419   4.180   1.434 -0.0305 -0.1950  0.3387
   27MOL   C28111253   1.306   4.091   1.221 -0.9543  0.1477  0.2944
   27MOL   H28211254   1.471   4.178   0.979 -0.7398  0.4798  0.7968
   27MOL   H28311255   1.637   4.226   0.974  0.4030  0.2099  0.3284
   27MOL   H28411256   1.460   4.338   1.188 -1.5129 -1.7892 -1.1739
   27MOL   H28511257   1.636   4.160   1.303  1.5086 -1.7321 -1.7319
   27MOL   H28611258   1.607   4.065   1.166 -0.9394 -0.5908  0.0453
   27MOL   H28711259   1.374   3.903   1.380  0.8042 -0.2676 -0.6333
   27MOL   H28811260   1.509   3.884   1.280 -0.3345  0.3765 -0.4100
   27MOL   H28911261   1.533   3.953   1.438  1.7972  2.7439 -0.4805
   27MOL   H29011262   1.351   4.140   1.509 -0.5412 -1.7396 -0.9187
   27MOL   H29111263   1.377   4.278   1.415 -0.2062 -0.2880  0.2423
   27MOL   H29211264   1.513   4.209   1.481  0.4112  1.8213 -1.7232
   27MOL   H29311265   1.287   4.195   1.196  0.8242  0.4435  0.1382
   27MOL   H29411266   1.222   4.047   1.275 -0.6472  0.1021  0.7430
   27MOL   H29511267   1.307   4.033   1.128 -0.3617  2.1737 -0.9936
   27MOL   C29611268   1.664   4.387   1.179 -0.1271  0.5197  0.3061
   27MOL   C29711269   1.681   4.441   1.325 -0.1515  0.0444  0.1031
   27MOL   C29811270   1.587   4.557   1.351 -0.2178 -0.9002 -0.2828
   27MOL   C29911271   1.613   4.707   1.318  0.5435 -0.6898 -1.0074
   27MOL   C30011272   1.728   4.767   1.396 -0.2159 -0.3972 -0.4577
   27MOL   C30111273   1.627   4.732   1.171  0.1759 -0.2439 -0.9743
   27MOL   C30211274   1.485   4.779   1.354  0.7299 -0.0947 -0.2577
   27MOL   H30311275   1.646   4.470   1.110 -1.9850 -1.4083 -1.5833
   27MOL   H30411276   1.748   4.330   1.139 -0.3693  1.2057 -1.2148
   27MOL   H30511277   1.654   4.370   1.403 -0.2632 -2.1676 -1.9237
   27MOL   H30611278   1.584   4.552   1.459  3.2906 -1.3196 -0.1620
   27MOL   H30711279   1.491   4.529   1.307 -0.0175  0.7181 -1.8297
   27MOL   H30811280   1.828   4.736   1.366  0.9564  2.8655 -0.0990
   27MOL   H30911281   1.737   4.875   1.385 -0.0046 -0.4505 -0.8110
   27MOL   H31011282   1.720   4.750   1.504 -0.2132 -1.8551 -0.6703
   27MOL   H31111283   1.716   4.684   1.132 -0.7452 -0.2581 -3.1564
   27MOL   H31211284   1.540   4.686   1.124 -0.0932  0.5103 -1.2253
   27MOL   H31311285   1.658   4.828   1.129 -1.7637  0.0461 -1.8043
   27MOL   H31411286   1.455   4.761   1.457 -2.2576  1.4348 -0.7923
   27MOL   H31511287   1.505   4.886   1.361 -2.2468  0.4347  1.0571
   27MOL   H31611288   1.397   4.754   1.295  1.3303 -1.5924 -0.5211
   27MOL   C31711289   1.833   4.478   1.344  0.2869 -0.2936 -0.3424
   27MOL   C31811290   1.940   4.366   1.333 -0.3583 -0.4283  0.4145
   27MOL   C31911291   2.087   4.431   1.318  0.0228  0.5080 -0.2652
   27MOL   C32011292   2.150   4.447   1.173  0.9064  1.0026  0.2475
   27MOL   C32111293   2.296   4.504   1.176  0.4406 -0.0968 -0.4048
   27MOL   C32211294   2.068   4.537   1.079  1.4369 -0.3469 -0.0294
   27MOL   C32311295   2.150   4.310   1.111  0.1967 -0.6362 -0.3536
   27MOL   H32411296   1.859   4.546   1.263 -2.0422  1.5129  0.3672
   27MOL   H32511297   1.842   4.515   1.446 -0.6113 -0.2735 -0.2682
   27MOL   H32611298   1.914   4.301   1.250 -0.1730 -0.8330  0.6682
   27MOL   H32711299   2.158   4.373   1.377  0.1092 -1.5023 -2.3131
   27MOL   H32811300   2.080   4.528   1.367 -1.3787  0.2375  0.0778
   27MOL   H32911301   2.294   4.601   1.227  1.2069 -1.0581  1.4894
   27MOL   H33011302   2.337   4.520   1.076  1.8199 -1.8094 -0.1182
   27MOL   H33111303   2.375   4.453   1.230  2.2593  2.0283 -0.9969
   27MOL   H33211304   1.985   4.481   1.036  0.4106 -0.7844  2.4793
   27MOL   H33311305   2.030   4.627   1.127  0.1252  0.2468 -2.1128
   27MOL   H33411306   2.134   4.552   0.993  1.0364  3.9450  0.3002
   27MOL   H33511307   2.208   4.308   1.019  0.2424 -2.4035 -0.3075
   27MOL   H33611308   2.050   4.274   1.083  0.6472 -2.3031  0.1105
   27MOL   H33711309   2.175   4.232   1.183  0.8801  1.6374  1.9110
   27MOL   C33811310   1.941   4.285   1.462  0.2701  0.1276 -0.1677
   27MOL   C33911311   2.019   4.148   1.464  0.3872 -0.5554  0.4658
   27MOL   C34011312   1.922   4.034   1.420  0.6592 -0.1384 -0.2745
   27MOL   C34111313   1.977   3.895   1.390  0.1797 -0.2929 -0.7977
   27MOL   C34211314   1.857   3.815   1.332  0.5193 -0.5002 -0.0661
   27MOL   C34311315   2.091   3.894   1.292 -0.0154  0.9915  0.0897
   27MOL   C34411316   2.032   3.802   1.511  0.3830  0.2225  0.1374
   27MOL   H34511317   1.837   4.267   1.489 -0.4641  0.3389 -2.7689
   27MOL   H34611318   1.975   4.348   1.545  1.3354  0.1272 -0.5919
   27MOL   H34711319   2.090   4.149   1.381  1.1108 -2.8095  1.0296
   27MOL   H34811320   1.880   4.076   1.329 -0.2695  0.6625  0.5122
   27MOL   H34911321   1.843   4.006   1.489 -0.8165  1.5671 -1.2599
   27MOL   H35011322   1.876   3.714   1.295  0.9837 -0.7075  0.7338
   27MOL   H35111323   1.770   3.816   1.398  0.9204 -1.6844  0.4872
   27MOL   H35211324   1.819   3.859   1.240  0.3915 -4.0769 -1.8006
   27MOL   H35311325   2.062   3.953   1.205 -1.8182 -0.5475 -0.3833
   27MOL   H35411326   2.189   3.930   1.324  1.1848 -0.3125 -2.0000
   27MOL   H35511327   2.101   3.790   1.261  0.7584  1.0228  0.2248
   27MOL   H35611328   1.953   3.791   1.586 -0.4462 -0.1331 -0.7718
   27MOL   H35711329   2.068   3.710   1.464  1.0802  0.0803  0.9397
   27MOL   H35811330   2.119   3.859   1.544  1.2119 -0.4896 -0.7980
   27MOL   C35911331   2.083   4.138   1.604 -0.7196 -0.2321  0.1275
   27MOL   C36011332   2.203   4.229   1.649 -0.0279  0.1963  0.0715
   27MOL   C36111333   2.323   4.172   1.565 -0.1180 -0.0853 -0.3131
   27MOL   C36211334   2.462   4.258   1.560  0.6909  0.1175 -0.6757
   27MOL   C36311335   2.522   4.238   1.418 -0.0449  0.1584 -1.0094
   27MOL   C36411336   2.555   4.196   1.666 -0.2559  0.2174  0.1323
   27MOL   C36511337   2.442   4.409   1.579  0.1683 -0.7215 -0.1070
   27MOL   H36611338   2.121   4.041   1.632  0.7395  0.8593  2.0141
   27MOL   H36711339   1.997   4.152   1.670 -0.3587  1.1770  0.3217
   27MOL   H36811340   2.191   4.334   1.623  2.4870  0.0064 -2.1261
   27MOL   H36911341   2.344   4.068   1.591 -0.0635 -0.1152 -0.4773
   27MOL   H37011342   2.286   4.168   1.462 -2.1546  1.4294  0.3330
   27MOL   H37111343   2.623   4.278   1.412  0.7353 -1.2476  1.8243
   27MOL   H37211344   2.526   4.132   1.391  0.5014 -0.3877  1.1555
   27MOL   H37311345   2.458   4.288   1.345  1.1099  1.6952 -0.9700
   27MOL   H37411346   2.654   4.241   1.666  0.7870 -1.9639  1.1285
   27MOL   H37511347   2.574   4.091   1.641 -0.0277 -0.8777  4.4895
   27MOL   H37611348   2.515   4.216   1.765  0.9916  1.7791  0.3420
   27MOL   H37711349   2.535   4.466   1.574 -0.4777  0.1968 -2.1038
   27MOL   H37811350   2.405   4.433   1.679  2.0191  0.0935  0.3906
   27MOL   H37911351   2.369   4.449   1.508  1.0430 -0.8023 -1.0570
   27MOL   C38011352   2.233   4.219   1.802  0.3542  0.6511  0.6361
   27MOL   C38111353   2.126   4.255   1.903  0.6007 -0.0328 -0.2743
   27MOL   C38211354   2.028   4.139   1.940  0.2418 -0.1868  0.4419
   27MOL   C38311355   2.050   4.086   2.081  0.2504 -0.2001 -0.0565
   27MOL   C38411356   2.185   4.017   2.090  0.1753  0.4901  0.3472
   27MOL   C38511357   1.943   3.975   2.110 -0.6620 -1.0502 -0.5693
   27MOL   C38611358   2.038   4.194   2.193  0.1239 -0.1909  0.3521
   27MOL   H38711359   2.312   4.290   1.824 -0.9113  2.0788  0.6846
   27MOL   H38811360   2.265   4.119   1.831  0.2577  0.6922  0.8807
   27MOL   H38911361   2.179   4.281   1.995 -2.6080  2.8498  0.8688
   27MOL   H39011362   1.926   4.176   1.932  0.4165 -0.4092 -4.0028
   27MOL   H39111363   2.019   4.060   1.865  0.0244 -1.3849  1.6962
   27MOL   H39211364   2.260   4.080   2.042  2.6525 -1.2516  1.8309
   27MOL   H39311365   2.232   4.005   2.188 -1.0597 -0.5218  0.8281
   27MOL   H39411366   2.193   3.915   2.055  2.0709  1.4397 -2.1311
   27MOL   H39511367   1.951   3.900   2.030 -1.0614 -0.1694 -1.4433
   27MOL   H39611368   1.843   4.018   2.108 -1.0733 -2.0151 -2.0659
   27MOL   H39711369   1.950   3.915   2.201 -1.2669 -0.2600  0.0005
   27MOL   H39811370   2.109   4.276   2.198 -0.5957  0.4437  0.2873
   27MOL   H39911371   2.029   4.144   2.290 -1.4631 -0.0682  0.2792
   27MOL   H40011372   1.944   4.249   2.184  0.9070  0.9260 -1.2072
   27MOL   C40111373   2.057   4.390   1.858 -0.1769  0.8559 -0.1421
   27MOL   C40211374   1.979   4.483   1.958  0.3010 -0.2475  0.4374
   27MOL   C40311375   1.969   4.629   1.900  0.0526  0.7634 -0.2661
   27MOL   C40411376   1.904   4.736   1.990  0.5600 -0.4272 -0.2400
   27MOL   C40511377   1.897   4.859   1.906  0.2109 -0.4293 -0.2594
   27MOL   C40611378   1.990   4.759   2.115  0.2478 -0.0996  0.1178
   27MOL   C40711379   1.755   4.707   2.031  0.1103 -0.5572 -0.0780
   27MOL   H40811380   2.140   4.450   1.820  1.6934 -0.5262  1.6572
   27MOL   H40911381   1.993   4.375   1.771  0.1987 -0.0500 -0.2614
   27MOL   H41011382   1.875   4.449   1.961 -0.4648  1.7604 -1.3512
   27MOL   H41111383   1.910   4.625   1.809 -2.4560  0.3805  1.3309
   27MOL   H41211384   2.066   4.655   1.856 -0.2174 -0.1088 -1.4130
   27MOL   H41311385   1.855   4.841   1.806  0.6099  0.0539 -0.5138
   27MOL   H41411386   1.996   4.900   1.886  0.4571 -1.2504 -0.7745
   27MOL   H41511387   1.841   4.943   1.946  0.3772 -0.9229  1.0126
   27MOL   H41611388   1.959   4.854   2.159  1.4191  0.2272  0.2572
   27MOL   H41711389   2.097   4.770   2.095  0.3865 -0.2881  0.7546
   27MOL   H41811390   1.970   4.678   2.185  2.1327 -0.5371  0.1863
   27MOL   H41911391   1.685   4.708   1.948 -1.4706 -1.0729  1.2310
   27MOL   H42011392   1.760   4.616   2.091 -0.8692 -0.7240 -0.2395
   27MOL   H42111393   1.720   4.778   2.106  0.4452 -0.7208  0.2391
   27MOL   H42211394   2.029   4.484   2.054 -1.5455  0.0748  1.4267
   28MOL     C111395   2.890   6.086   2.560  0.2452  1.3068  0.2115
   28MOL     C211396   2.925   5.934   2.565 -0.1953 -0.0029  0.2229
   28MOL     C311397   2.892   5.863   2.433 -0.1570  0.1765 -0.1877
   28MOL     C411398   2.982   5.883   2.307  0.5390  0.1600  0.3982
   28MOL     C511399   2.998   6.028   2.252  0.6158  0.2072 -0.5146
   28MOL     C611400   3.119   5.813   2.328 -0.1453  0.0878 -0.6480
   28MOL     C711401   2.910   5.813   2.186  0.4490  0.4461  0.3949
   28MOL     H811402   2.790   6.112   2.526  0.7655  1.4250 -1.2715
   28MOL     H911403   2.898   6.120   2.663  1.7976  0.4133  0.3976
   28MOL    H1011404   3.032   5.928   2.585 -0.2801 -0.2292  0.6244
   28MOL    H1111405   2.800   5.912   2.400 -0.2997  0.3750  0.5032
   28MOL    H1211406   2.871   5.757   2.452  1.8752 -0.6823 -2.4607
   28MOL    H1311407   3.056   6.092   2.319 -0.6994  1.1254 -0.2375
   28MOL    H1411408   2.908   6.087   2.234 -1.7059 -2.4835  1.8153
   28MOL    H1511409   3.054   6.024   2.159 -0.6362 -1.9730 -1.2277
   28MOL    H1611410   3.179   5.779   2.243  1.4079 -0.2258  0.5435
   28MOL    H1711411   3.191   5.882   2.372  1.4376 -2.5953  1.1427
   28MOL    H1811412   3.106   5.723   2.389  2.8583  0.7472  1.0509
   28MOL    H1911413   2.885   5.711   2.214 -1.8991  0.6945 -0.7222
   28MOL    H2011414   2.966   5.793   2.095  0.1627 -0.9496  0.5071
   28MOL    H2111415   2.817   5.853   2.147  0.1223 -1.5401 -0.9585
   28MOL    H2211416   2.964   6.137   2.498  2.1201 -1.3672  0.1778
   28MOL    C2311417   2.840   5.882   2.686 -0.4922 -0.1375  0.6003
   28MOL    C2411418   2.900   5.749   2.741  0.1187  0.1816  0.2441
   28MOL    C2511419   2.790   5.660   2.815 -0.4216  0.0658 -0.8060
   28MOL    C2611420   2.713   5.547   2.728 -0.1712  0.0567 -0.7563
   28MOL    C2711421   2.629   5.617   2.626 -0.0005 -0.1390  0.0176
   28MOL    C2811422   2.802   5.444   2.657  0.4535 -0.0688  0.1916
   28MOL    C2911423   2.620   5.475   2.834 -0.8168  0.7439  0.3244
   28MOL    H3011424   2.848   5.956   2.765 -1.8436  1.2553 -0.5194
   28MOL    H3111425   2.737   5.870   2.651  0.2159 -0.4885 -1.4597
   28MOL    H3211426   2.932   5.689   2.655  0.8913  0.2786  0.4639
   28MOL    H3311427   2.712   5.723   2.857  1.3498  0.8154  1.4730
   28MOL    H3411428   2.822   5.602   2.902 -2.5521 -0.4500 -0.3476
   28MOL    H3511429   2.686   5.690   2.569  1.1156 -1.1975 -0.2452
   28MOL    H3611430   2.568   5.549   2.566  1.6484  0.7394 -2.7793
   28MOL    H3711431   2.553   5.671   2.683 -0.8962 -0.3109 -0.9913
   28MOL    H3811432   2.741   5.358   2.629  0.9861 -0.5463  0.4921
   28MOL    H3911433   2.850   5.488   2.570  0.5263 -3.4252 -1.5487
   28MOL    H4011434   2.876   5.404   2.727 -0.3058  0.5813  1.3805
   28MOL    H4111435   2.562   5.404   2.775 -0.1985 -0.2424  0.8969
   28MOL    H4211436   2.543   5.546   2.863  0.2075  1.1305  2.1386
   28MOL    H4311437   2.674   5.434   2.919 -0.1493  1.5843  0.3155
   28MOL    C4411438   3.024   5.778   2.831 -0.2107 -0.2353  0.9258
   28MOL    C4511439   3.137   5.670   2.819  0.3520 -0.3883  0.5989
   28MOL    C4611440   3.229   5.679   2.938  0.2560 -0.0336  0.3349
   28MOL    C4711441   3.189   5.588   3.060 -0.5205 -0.1400 -0.1763
   28MOL    C4811442   3.049   5.617   3.121  0.7117  0.3383  0.0217
   28MOL    C4911443   3.297   5.618   3.163 -0.1235  0.7892  0.0877
   28MOL    C5011444   3.201   5.441   3.025 -0.1194 -0.0169  0.0084
   28MOL    H5111445   3.059   5.877   2.804 -0.5274 -0.2889  0.3001
   28MOL    H5211446   2.979   5.782   2.930  0.4034  1.6501  1.1485
   28MOL    H5311447   3.081   5.577   2.826 -0.1436 -0.0309  1.4377
   28MOL    H5411448   3.244   5.782   2.973  0.5263 -0.6316  2.0512
   28MOL    H5511449   3.326   5.646   2.902  1.4385  1.2159  2.2598
   28MOL    H5611450   2.980   5.606   3.037 -0.7443  1.7546  1.0039
   28MOL    H5711451   3.035   5.718   3.158  3.3456  0.7642 -0.0675
   28MOL    H5811452   3.012   5.548   3.198 -0.5524 -1.0915 -1.8141
   28MOL    H5911453   3.301   5.724   3.187 -1.9602  0.5544  1.5424
   28MOL    H6011454   3.275   5.588   3.265  1.5121 -1.4730 -0.1856
   28MOL    H6111455   3.398   5.583   3.140  0.3333  0.8189  1.9552
   28MOL    H6211456   3.196   5.372   3.109 -0.3877 -2.0753 -1.6647
   28MOL    H6311457   3.129   5.412   2.949  0.1852 -0.3092 -0.1687
   28MOL    H6411458   3.300   5.424   2.984 -0.0238  0.3261  0.0906
   28MOL    C6511459   3.215   5.697   2.687 -0.6351  0.1901 -0.7179
   28MOL    C6611460   3.294   5.575   2.628  0.6362 -0.3145 -0.3591
   28MOL    C6711461   3.400   5.609   2.518  0.1005 -0.3929  0.8315
   28MOL    C6811462   3.537   5.656   2.564 -0.5025 -0.9442 -0.5331
   28MOL    C6911463   3.543   5.780   2.657  0.4637  0.2635 -0.2015
   28MOL    C7011464   3.608   5.539   2.640  0.6897  0.1681 -0.0954
   28MOL    C7111465   3.619   5.703   2.435  0.2116 -0.4507 -0.0810
   28MOL    H7211466   3.152   5.736   2.607 -0.1687 -1.1271 -1.7400
   28MOL    H7311467   3.273   5.788   2.699 -1.6334  0.7396  0.1041
   28MOL    H7411468   3.354   5.529   2.707 -0.2077 -0.7532  0.0243
   28MOL    H7511469   3.373   5.692   2.452  1.7752 -1.1005 -0.7592
   28MOL    H7611470   3.417   5.527   2.449  1.2870  0.6033 -0.0597
   28MOL    H7711471   3.486   5.771   2.749  1.0756  1.0276  0.2612
   28MOL    H7811472   3.649   5.797   2.675  0.1401  0.3971  1.6506
   28MOL    H7911473   3.501   5.871   2.615 -3.3083 -0.6322  1.4681
   28MOL    H8011474   3.590   5.542   2.748  0.4196 -1.3299 -0.0778
   28MOL    H8111475   3.716   5.544   2.640  0.6896  0.2153  0.2606
   28MOL    H8211476   3.584   5.437   2.608 -0.4594  0.1022  0.9003
   28MOL    H8311477   3.571   5.796   2.408 -0.2965 -0.6107  0.2559
   28MOL    H8411478   3.607   5.635   2.351  3.6945  0.2211 -1.1976
   28MOL    H8511479   3.727   5.714   2.448 -0.0820  2.0678  0.3359
   28MOL    C8611480   3.186   5.476   2.561  0.2325 -0.0545  0.7469
   28MOL    C8711481   3.236   5.331   2.556 -0.0840 -0.0363  0.1941
   28MOL    C8811482   3.148   5.250   2.449  0.5297 -0.0704  0.2351
   28MOL    C8911483   3.197   5.228   2.303  0.2661  0.4897  0.4112
   28MOL    C9011484   3.218   5.359   2.234 -0.3397  0.4708  0.1161
   28MOL    C9111485   3.097   5.145   2.220 -0.2124  0.4669 -0.1141
   28MOL    C9211486   3.328   5.149   2.313  0.1755 -0.0435  0.5029
   28MOL    H9311487   3.169   5.510   2.459  2.1925 -0.5796  0.2102
   28MOL    H9411488   3.091   5.476   2.613 -0.6997  0.4734 -0.9196
   28MOL    H9511489   3.343   5.328   2.538 -0.4108  2.0209 -2.3907
   28MOL    H9611490   3.057   5.306   2.428  0.9315  0.5461  0.1464
   28MOL    H9711491   3.118   5.151   2.483 -0.1236 -0.2707 -0.8881
   28MOL    H9811492   3.243   5.342   2.129 -1.5448 -0.2890 -0.0524
   28MOL    H9911493   3.298   5.414   2.284 -0.2964  0.7922 -0.3076
   28MOL   H10011494   3.129   5.421   2.241  0.5515  1.9398 -1.1791
   28MOL   H10111495   3.002   5.197   2.218 -1.0444 -0.9332  1.4608
   28MOL   H10211496   3.128   5.136   2.116  1.1367  0.5537  0.2713
   28MOL   H10311497   3.094   5.048   2.269  2.1181 -0.3895 -1.5631
   28MOL   H10411498   3.321   5.057   2.372 -0.0803 -2.0233 -2.4745
   28MOL   H10511499   3.373   5.130   2.215  1.8340 -1.8976  1.5815
   28MOL   H10611500   3.411   5.209   2.350  1.1313  0.8151 -2.8380
   28MOL   C10711501   3.225   5.256   2.689 -0.3196 -0.9240  0.0829
   28MOL   C10811502   3.330   5.139   2.702  0.4245  0.6326  0.1946
   28MOL   C10911503   3.463   5.193   2.765  0.0644 -0.1030 -0.5004
   28MOL   C11011504   3.595   5.115   2.729 -0.3767 -0.0041  0.0647
   28MOL   C11111505   3.706   5.182   2.812  1.0690  0.1414  0.0909
   28MOL   C11211506   3.635   5.128   2.581  0.3726 -0.3845  0.1869
   28MOL   C11311507   3.590   4.970   2.768  0.2326  0.0498 -0.0536
   28MOL   H11411508   3.120   5.230   2.697 -0.9339  1.8085  1.8696
   28MOL   H11511509   3.248   5.327   2.769  3.5122 -1.4133 -0.4913
   28MOL   H11611510   3.352   5.107   2.600 -0.4223 -1.7809  0.7480
   28MOL   H11711511   3.472   5.299   2.739  0.3333  0.7899  2.9466
   28MOL   H11811512   3.452   5.176   2.872  0.4392 -2.1303 -0.7643
   28MOL   H11911513   3.710   5.287   2.783 -1.7370  0.3361  0.3048
   28MOL   H12011514   3.697   5.158   2.918 -2.2174  0.7131  0.0051
   28MOL   H12111515   3.804   5.139   2.790  0.2598 -1.4816 -0.4403
   28MOL   H12211516   3.633   5.225   2.532 -0.6379 -0.7036 -0.4085
   28MOL   H12311517   3.578   5.066   2.512 -0.0935 -0.2782  0.4775
   28MOL   H12411518   3.738   5.098   2.560  0.2715  0.5336 -1.7551
   28MOL   H12511519   3.525   4.914   2.701 -0.9030  1.2693  0.0075
   28MOL   H12611520   3.552   4.961   2.869  2.6103  0.7727  0.9588
   28MOL   H12711521   3.687   4.921   2.777 -0.0653 -0.2575  1.6577
   28MOL   C12811522   3.262   5.028   2.785  0.1648  0.6909 -0.2055
   28MOL   C12911523   3.162   4.934   2.719 -0.0223  0.3013  0.2223
   28MOL   C13011524   3.220   4.863   2.595 -0.5840  0.0209 -0.4945
   28MOL   C13111525   3.143   4.757   2.510  0.5523  0.5372 -0.1448
   28MOL   C13211526   3.160   4.618   2.578  1.0045 -0.0504  0.2625
   28MOL   C13311527   3.220   4.737   2.372 -0.2203 -0.0202  0.6870
   28MOL   C13411528   2.992   4.802   2.488 -0.3206 -0.4015  0.4486
   28MOL   H13511529   3.223   5.070   2.878  0.5375  0.2668  0.1404
   28MOL   H13611530   3.340   4.960   2.819 -0.9587 -0.9143 -0.7574
   28MOL   H13711531   3.076   4.989   2.681  1.3042  2.2488 -0.0190
   28MOL   H13811532   3.244   4.946   2.527  0.4117  2.4551  2.6976
   28MOL   H13911533   3.320   4.821   2.610 -0.9852 -1.8920 -2.8913
   28MOL   H14011534   3.261   4.580   2.575  1.8992  2.0513  1.8863
   28MOL   H14111535   3.107   4.561   2.502 -1.8419  2.5769  0.1486
   28MOL   H14211536   3.120   4.603   2.678  1.0153 -0.3677  0.2197
   28MOL   H14311537   3.321   4.698   2.384 -0.1310  0.3421  1.1435
   28MOL   H14411538   3.220   4.823   2.305 -2.5867 -0.2722  0.3326
   28MOL   H14511539   3.165   4.660   2.319  0.6270 -2.5342  3.3361
   28MOL   H14611540   2.946   4.714   2.441  0.6642 -0.2447 -0.8405
   28MOL   H14711541   2.925   4.811   2.574 -1.3111 -0.8027 -0.2654
   28MOL   H14811542   2.974   4.882   2.416 -2.5380  0.7463  2.2118
   28MOL   C14911543   3.102   4.840   2.831 -1.4153 -0.1361 -0.3267
   28MOL   C15011544   3.028   4.901   2.952  0.3369 -0.3037  0.5229
   28MOL   C15111545   2.885   4.931   2.904 -0.3508  0.4218  0.4120
   28MOL   C15211546   2.815   5.055   2.960 -0.2529  0.6564 -0.5064
   28MOL   C15311547   2.803   5.051   3.112  1.1926 -0.6034 -0.4157
   28MOL   C15411548   2.677   5.056   2.893  0.7597  0.0347  0.2931
   28MOL   C15511549   2.883   5.181   2.904 -0.0739  0.5566  0.0455
   28MOL   H15611550   3.196   4.791   2.856 -2.4717 -1.8356  0.3728
   28MOL   H15711551   3.031   4.772   2.783 -3.6075  3.8190 -2.9765
   28MOL   H15811552   3.064   4.996   2.991  1.8093 -0.1701 -1.1041
   28MOL   H15911553   2.829   4.840   2.924  0.8743 -0.1329  1.4562
   28MOL   H16011554   2.874   4.934   2.796 -2.0829  3.8706  0.6449
   28MOL   H16111555   2.762   4.953   3.133  0.1447 -0.3195 -1.1168
   28MOL   H16211556   2.897   5.073   3.163  1.1195  1.5338 -1.1446
   28MOL   H16311557   2.740   5.132   3.150  0.3546 -3.1324  3.9401
   28MOL   H16411558   2.675   5.064   2.784 -1.2622 -0.1716  0.2943
   28MOL   H16511559   2.617   5.140   2.928  0.5979  0.4021 -0.8397
   28MOL   H16611560   2.616   4.970   2.920 -3.7246  3.1849  0.7364
   28MOL   H16711561   2.830   5.275   2.916 -1.3838 -0.0434 -0.9047
   28MOL   H16811562   2.983   5.203   2.941  0.0358  0.7145 -0.3510
   28MOL   H16911563   2.885   5.171   2.796  0.1165  2.1237 -0.1056
   28MOL   C17011564   3.028   4.788   3.065  0.2805 -0.5155 -0.9484
   28MOL   C17111565   3.144   4.780   3.170 -0.3269  0.2172  0.3317
   28MOL   C17211566   3.173   4.644   3.226  0.4883 -0.3354  0.1140
   28MOL   C17311567   3.263   4.548   3.142  0.3231  0.1442  0.2958
   28MOL   C17411568   3.287   4.422   3.232 -0.0127  0.1216 -0.8669
   28MOL   C17511569   3.392   4.625   3.105  0.3521  0.6314  0.2776
   28MOL   C17611570   3.198   4.503   3.015  0.0195  0.1208 -0.3752
   28MOL   H17711571   2.999   4.694   3.018 -1.3822  0.0338 -1.0695
   28MOL   H17811572   2.937   4.790   3.126  1.7574  1.0453  1.2701
   28MOL   H17911573   3.229   4.820   3.114  0.8777  1.1965  2.7877
   28MOL   H18011574   3.237   4.662   3.313  0.4383 -0.6199  0.2118
   28MOL   H18111575   3.078   4.604   3.262 -0.7295  2.3464 -0.0812
   28MOL   H18211576   3.348   4.438   3.320 -1.5741 -1.0861  0.4645
   28MOL   H18311577   3.195   4.373   3.265  1.1472 -0.4948  1.5303
   28MOL   H18411578   3.329   4.336   3.178  3.2179 -0.1906  2.0145
   28MOL   H18511579   3.372   4.689   3.019  0.3080 -1.0924 -1.0333
   28MOL   H18611580   3.444   4.680   3.184  1.9133  0.1488 -0.3943
   28MOL   H18711581   3.468   4.553   3.076 -0.7664 -0.0582 -1.0038
   28MOL   H18811582   3.271   4.434   2.972 -1.3256 -0.4432 -1.8139
   28MOL   H18911583   3.110   4.442   3.036  0.6043 -0.4215  0.5216
   28MOL   H19011584   3.166   4.584   2.949  0.4474 -1.4713 -2.5957
   28MOL   C19111585   3.112   4.882   3.284  0.6126 -0.3368 -0.0735
   28MOL   C19211586   3.224   4.925   3.377 -1.2959 -0.0777 -0.0393
   28MOL   C19311587   3.163   4.998   3.497 -0.1642 -1.1821  0.5237
   28MOL   C19411588   3.150   4.930   3.633 -0.2808 -0.0878 -0.3373
   28MOL   C19511589   3.035   4.831   3.626  0.0107  0.2301 -0.0847
   28MOL   C19611590   3.115   5.044   3.738  0.3942  0.4381 -0.3375
   28MOL   C19711591   3.275   4.853   3.689  0.3434  0.5924 -0.0349
   28MOL   H19811592   3.063   4.971   3.244 -0.9059  0.0278  2.5015
   28MOL   H19911593   3.038   4.833   3.347  1.5324  0.1264  1.3860
   28MOL   H20011594   3.279   4.840   3.419 -3.2705 -1.0119  0.7300
   28MOL   H20111595   3.073   5.052   3.467  0.3408 -0.9115 -0.5502
   28MOL   H20211596   3.225   5.083   3.524  0.2244 -1.3106  0.0346
   28MOL   H20311597   3.063   4.741   3.570  0.5637 -0.5624  1.4398
   28MOL   H20411598   3.012   4.796   3.726 -0.4611  1.1168  0.1172
   28MOL   H20511599   2.945   4.877   3.586  0.5529  1.2864 -0.1063
   28MOL   H20611600   3.204   5.104   3.755  0.9158  0.1335 -1.8813
   28MOL   H20711601   3.028   5.101   3.706 -1.0969 -0.8537  1.2896
   28MOL   H20811602   3.086   4.995   3.831 -2.9428  0.8472 -1.1220
   28MOL   H20911603   3.251   4.816   3.788  0.2742 -0.3372 -0.3964
   28MOL   H21011604   3.313   4.774   3.624  0.2943  0.3383  0.2497
   28MOL   H21111605   3.362   4.917   3.703  1.6593 -1.2700  0.4188
   28MOL   C21211606   3.332   5.013   3.306  0.3077  0.7071  0.0740
   28MOL   C21311607   3.476   5.035   3.367  0.8993 -1.0139 -0.3500
   28MOL   C21411608   3.551   5.153   3.305 -0.2889 -0.7889  0.0776
   28MOL   C21511609   3.535   5.292   3.374  0.1711  0.5579 -1.0722
   28MOL   C21611610   3.607   5.287   3.516 -0.4166  0.1263  0.0435
   28MOL   C21711611   3.609   5.395   3.290 -0.0548 -0.2560 -0.6935
   28MOL   C21811612   3.388   5.336   3.378 -0.4956 -0.0786  0.2271
   28MOL   H21911613   3.349   4.962   3.211  3.4372  4.4590 -1.5566
   28MOL   H22011614   3.286   5.107   3.275 -1.6285 -0.1894  0.1569
   28MOL   H22111615   3.451   5.050   3.473 -1.7837  0.8860 -1.1876
   28MOL   H22211616   3.529   5.160   3.198  1.9335  0.5230 -0.3379
   28MOL   H22311617   3.658   5.130   3.306  0.1371  1.1560  0.5927
   28MOL   H22411618   3.557   5.226   3.591 -0.2603  0.3576  0.3385
   28MOL   H22511619   3.621   5.379   3.572 -1.8885  0.9967 -0.9881
   28MOL   H22611620   3.710   5.254   3.504 -0.5273 -0.0736 -0.3840
   28MOL   H22711621   3.584   5.495   3.324  1.7346  0.0670 -0.2883
   28MOL   H22811622   3.715   5.372   3.306 -0.4389 -1.3841  0.2869
   28MOL   H22911623   3.580   5.388   3.185  0.1255  1.0203 -0.8390
   28MOL   H23011624   3.343   5.271   3.453  1.4331 -0.4397  1.0894
   28MOL   H23111625   3.335   5.332   3.283 -1.2360 -2.2192  0.7049
   28MOL   H23211626   3.363   5.438   3.407 -1.2652 -0.5477  1.2514
   28MOL   C23311627   3.565   4.914   3.358  0.1541  0.4196  0.4582
   28MOL   C23411628   3.688   4.905   3.453 -1.0207 -0.0877  1.1448
   28MOL   C23511629   3.643   4.889   3.603 -0.1655  0.7439  0.3967
   28MOL   C23611630   3.733   4.891   3.729  0.4363 -0.2217  0.5268
   28MOL   C23711631   3.653   4.904   3.855  0.1915  0.2699 -0.0604
   28MOL   C23811632   3.820   4.771   3.740  0.0949  0.3326 -0.1569
   28MOL   C23911633   3.828   5.016   3.727  0.0126 -0.2017 -0.5076
   28MOL   H24011634   3.592   4.906   3.253 -1.6268  1.4293 -0.0962
   28MOL   H24111635   3.509   4.823   3.379  0.1982  0.0635 -0.9691
   28MOL   H24211636   3.747   4.996   3.444  1.8707 -1.9974 -0.0484
   28MOL   H24311637   3.568   4.963   3.631  0.4116  0.9206  1.5009
   28MOL   H24411638   3.581   4.800   3.615  2.1981 -0.9409  0.5647
   28MOL   H24511639   3.712   4.882   3.943 -1.2556  0.8265  1.0773
   28MOL   H24611640   3.578   4.825   3.856  0.9997 -0.5094 -0.4533
   28MOL   H24711641   3.618   5.007   3.866 -0.6052  0.2954 -2.4949
   28MOL   H24811642   3.874   4.778   3.835 -0.5799 -1.2460  0.3709
   28MOL   H24911643   3.761   4.679   3.744 -1.9305  1.6658  1.1592
   28MOL   H25011644   3.906   4.782   3.675  2.0098 -1.3671  1.9697
   28MOL   H25111645   3.904   5.002   3.650  1.7432  0.3863  1.0407
   28MOL   H25211646   3.760   5.099   3.710  0.4693  0.2776 -0.0300
   28MOL   H25311647   3.878   5.027   3.823  2.0272 -0.5410 -1.4825
   28MOL   C25411648   3.777   4.785   3.406 -0.5633  0.3251  0.1179
   28MOL   C25511649   3.898   4.817   3.316 -0.2745 -0.5641 -0.7490
   28MOL   C25611650   3.951   4.695   3.230 -0.3124  0.3570  1.0235
   28MOL   C25711651   3.877   4.643   3.102 -0.5461 -0.3806  0.1015
   28MOL   C25811652   3.956   4.521   3.039  0.6913  0.2634  0.1193
   28MOL   C25911653   3.876   4.744   2.984 -0.2156 -0.9163 -0.0416
   28MOL   C26011654   3.734   4.594   3.129 -0.2621 -0.2998 -0.8767
   28MOL   H26111655   3.707   4.721   3.352  0.2575 -1.1490  0.7560
   28MOL   H26211656   3.821   4.736   3.493 -1.6732  1.6678  1.4783
   28MOL   H26311657   3.869   4.884   3.234 -2.0754  0.5879  0.7943
   28MOL   H26411658   4.048   4.725   3.192 -0.2642  1.1090  1.7107
   28MOL   H26511659   3.981   4.614   3.297  0.7620  0.1911  0.3388
   28MOL   H26611660   3.945   4.437   3.107 -0.2070  1.2147  1.1735
   28MOL   H26711661   4.061   4.536   3.014  0.4033 -0.3610 -1.5057
   28MOL   H26811662   3.917   4.476   2.948  1.8850 -0.2466 -0.1422
   28MOL   H26911663   3.819   4.835   3.002  0.2255 -1.0215  2.0058
   28MOL   H27011664   3.847   4.703   2.887 -0.2771  0.3420 -0.5711
   28MOL   H27111665   3.980   4.769   2.961 -0.3312  0.0325  0.4438
   28MOL   H27211666   3.669   4.680   3.142  1.1650  1.1007 -2.6601
   28MOL   H27311667   3.700   4.544   3.038 -2.7689  0.2733 -0.2995
   28MOL   H27411668   3.740   4.532   3.218 -0.7034  0.7806 -0.0892
   28MOL   C27511669   4.018   4.877   3.397  0.9003 -0.2101 -0.0757
   28MOL   C27611670   4.098   4.972   3.306 -0.0933  0.1092  0.1409
   28MOL   C27711671   4.010   5.091   3.264  0.4863 -0.2474 -0.0517
   28MOL   C27811672   4.032   5.158   3.125 -0.6972  0.5791 -0.1135
   28MOL   C27911673   3.998   5.071   3.006  0.0692 -0.0392  0.0574
   28MOL   C28011674   3.952   5.286   3.121 -0.1994  0.7754 -0.6458
   28MOL   C28111675   4.182   5.205   3.110 -0.3600  0.7715 -0.4594
   28MOL   H28211676   3.989   4.926   3.490  0.1447  1.5872 -1.2378
   28MOL   H28311677   4.079   4.790   3.423 -0.6054 -1.9003 -2.0507
   28MOL   H28411678   4.130   4.912   3.221  2.5477  0.8817  0.5509
   28MOL   H28511679   4.033   5.169   3.337 -1.0124  1.3390 -1.2274
   28MOL   H28611680   3.905   5.068   3.280  1.1365 -2.8123  0.6951
   28MOL   H28711681   4.011   5.126   2.913  0.3435 -0.7059 -0.2975
   28MOL   H28811682   4.063   4.983   3.006 -0.2768 -0.3548 -3.1435
   28MOL   H28911683   3.897   5.031   2.998 -0.4488  1.3204 -0.2825
   28MOL   H29011684   3.970   5.365   3.195 -0.6240  0.3915 -0.1311
   28MOL   H29111685   3.847   5.257   3.121  0.3539 -1.3264  0.3520
   28MOL   H29211686   3.968   5.325   3.021  0.1628 -2.4384 -1.9010
   28MOL   H29311687   4.196   5.235   3.006 -1.1640  0.2709 -0.7253
   28MOL   H29411688   4.256   5.126   3.125 -0.4371  1.0548  1.5876
   28MOL   H29511689   4.209   5.287   3.176  0.0425 -1.1528  1.8459
   28MOL   C29611690   4.211   5.033   3.394 -0.4562 -0.9067  0.0362
   28MOL   C29711691   4.325   4.922   3.420 -0.0456 -0.2395  0.4479
   28MOL   C29811692   4.394   4.955   3.559 -0.0444  0.2174 -0.2587
   28MOL   C29911693   4.330   4.897   3.692  0.3897 -0.3943  1.1345
   28MOL   C30011694   4.424   4.922   3.807 -0.0485  0.4243 -0.1359
   28MOL   C30111695   4.196   4.960   3.722  0.2161 -0.2516 -0.0549
   28MOL   C30211696   4.303   4.743   3.687 -0.3854 -0.0852  0.0660
   28MOL   H30311697   4.163   5.069   3.485 -1.3702 -0.3261 -0.6698
   28MOL   H30411698   4.271   5.115   3.354 -0.4614 -0.4127  1.0314
   28MOL   H30511699   4.291   4.820   3.436 -2.7815  0.5707  0.1042
   28MOL   H30611700   4.420   5.061   3.555  0.1202  0.2698  1.5426
   28MOL   H30711701   4.496   4.916   3.558  1.3773  3.6528  1.7536
   28MOL   H30811702   4.522   4.885   3.777  0.0688  1.8751 -1.6120
   28MOL   H30911703   4.412   5.028   3.829  1.1499  0.7061 -0.8230
   28MOL   H31011704   4.381   4.870   3.893 -1.3041 -0.7014 -1.4237
   28MOL   H31111705   4.198   5.069   3.715 -3.1209 -0.1436 -0.0355
   28MOL   H31211706   4.117   4.921   3.658  1.8547 -2.2988 -0.8660
   28MOL   H31311707   4.162   4.933   3.822 -1.3363 -0.4056 -0.6130
   28MOL   H31411708   4.266   4.718   3.786 -1.6830 -0.5179 -0.5211
   28MOL   H31511709   4.228   4.719   3.611  1.1726  1.7566 -2.1326
   28MOL   H31611710   4.385   4.673   3.672  0.6433  1.0086  0.4776
   28MOL   C31711711   4.419   4.921   3.296 -0.3033  0.2459  0.4222
   28MOL   C31811712   4.464   4.787   3.246  0.0715  0.3648 -0.0602
   28MOL   C31911713   4.540   4.811   3.103 -0.5643  0.3202 -0.0141
   28MOL   C32011714   4.462   4.803   2.969 -0.5637  0.0347  0.6532
   28MOL   C32111715   4.341   4.891   2.972 -0.0909  0.2841  0.4896
   28MOL   C32211716   4.428   4.658   2.935 -0.4485  0.4843 -0.0215
   28MOL   C32311717   4.554   4.846   2.856  0.5991  1.0011 -0.8254
   28MOL   H32411718   4.376   4.973   3.211  0.3924  2.0504  1.1455
   28MOL   H32511719   4.511   4.977   3.316  0.5382  0.0189 -2.5398
   28MOL   H32611720   4.370   4.734   3.228 -0.0526  0.5386  0.0821
   28MOL   H32711721   4.631   4.754   3.088 -0.2911  1.2138 -1.8638
   28MOL   H32811722   4.574   4.914   3.108 -2.5093  1.1981 -3.0308
   28MOL   H32911723   4.369   4.994   2.994 -0.1302  0.5674 -0.7324
   28MOL   H33011724   4.268   4.856   3.045 -0.4579  0.2237  0.0959
   28MOL   H33111725   4.289   4.904   2.877  0.0306 -0.6725  0.2932
   28MOL   H33211726   4.383   4.651   2.836  0.3435 -0.7925 -0.2990
   28MOL   H33311727   4.510   4.586   2.937 -1.0737 -0.2725 -0.9949
   28MOL   H33411728   4.357   4.624   3.010  0.6731 -0.5932  0.5698
   28MOL   H33511729   4.512   4.842   2.755 -0.3968 -3.2204 -0.3325
   28MOL   H33611730   4.639   4.778   2.856 -1.5253 -1.7523 -0.3318
   28MOL   H33711731   4.590   4.948   2.867  0.2931  0.9594  0.6419
   28MOL   C33811732   4.551   4.718   3.359 -0.1909  0.5452  0.3499
   28MOL   C33911733   4.599   4.576   3.318  0.5906 -0.4330 -0.2644
   28MOL   C34011734   4.558   4.468   3.424 -0.9543  0.7606 -0.3311
   28MOL   C34111735   4.427   4.388   3.396 -0.3602 -0.0766  0.3834
   28MOL   C34211736   4.399   4.322   3.531  0.4433 -0.7139 -0.4389
   28MOL   C34311737   4.306   4.485   3.356  0.6254  0.1308 -0.4602
   28MOL   C34411738   4.446   4.284   3.287 -0.2006 -0.1263  0.3177
   28MOL   H34511739   4.495   4.717   3.453  0.0404  1.8444  0.5172
   28MOL   H34611740   4.638   4.770   3.399  0.5108 -0.5529  0.2865
   28MOL   H34711741   4.548   4.547   3.226 -0.4221 -1.8886  0.7336
   28MOL   H34811742   4.545   4.500   3.527 -2.1644 -1.2689  0.1677
   28MOL   H34911743   4.642   4.398   3.427 -0.1594  1.6865 -0.4963
   28MOL   H35011744   4.477   4.275   3.591 -1.2263 -1.0974  1.5051
   28MOL   H35111745   4.359   4.392   3.605  1.8280 -1.6400  1.2196
   28MOL   H35211746   4.322   4.247   3.514  0.3188 -0.8351  0.5883
   28MOL   H35311747   4.224   4.413   3.342 -0.8756  1.3766  1.5659
   28MOL   H35411748   4.290   4.563   3.430  2.0666  0.5894 -0.6282
   28MOL   H35511749   4.327   4.532   3.260  4.0280  3.6351  1.8762
   28MOL   H35611750   4.522   4.213   3.320  3.2984  2.6423 -1.4073
   28MOL   H35711751   4.362   4.221   3.255  0.3395 -0.4167 -0.5716
   28MOL   H35811752   4.491   4.319   3.194 -1.2047  0.7859  0.1771
   28MOL   C35911753   4.758   4.594   3.303 -0.1411  0.2201  0.5157
   28MOL   C36011754   4.832   4.477   3.230 -0.3896 -0.6193  0.0696
   28MOL   C36111755   4.990   4.484   3.249 -0.2430  0.3054 -0.6112
   28MOL   C36211756   5.055   4.388   3.342  0.4077  0.1997  0.2770
   28MOL   C36311757   4.999   4.396   3.481  0.4491  0.1721 -0.5516
   28MOL   C36411758   5.204   4.421   3.356 -0.0546 -0.1495  0.4352
   28MOL   C36511759   5.051   4.245   3.285 -0.2108  0.1679  0.6858
   28MOL   H36611760   4.805   4.611   3.400  1.7123  3.1101 -0.8112
   28MOL   H36711761   4.780   4.690   3.255  0.6177  0.2483  0.9155
   28MOL   H36811762   4.805   4.388   3.285 -0.1322 -0.3445  0.6439
   28MOL   H36911763   5.032   4.472   3.149 -0.5789 -0.5370 -0.6549
   28MOL   H37011764   5.019   4.586   3.275  1.3591  0.3237 -2.3445
   28MOL   H37111765   4.890   4.401   3.486  0.4169 -0.8925 -0.0802
   28MOL   H37211766   5.030   4.316   3.549 -1.3453  0.6209  0.8656
   28MOL   H37311767   5.030   4.489   3.529  2.3506  0.4171 -2.1995
   28MOL   H37411768   5.268   4.419   3.268 -0.5072 -1.5825  0.1228
   28MOL   H37511769   5.257   4.359   3.429 -1.5014 -0.5210  1.1949
   28MOL   H37611770   5.211   4.522   3.395  2.9998 -0.3467  0.4552
   28MOL   H37711771   5.119   4.180   3.340  0.3492 -0.3256 -0.5502
   28MOL   H37811772   5.084   4.252   3.181 -0.6217 -1.8051  0.3943
   28MOL   H37911773   4.958   4.188   3.283 -1.2144  1.7574  1.0813
   28MOL   C38011774   4.795   4.478   3.086 -0.6561  0.3011 -0.5055
   28MOL   C38111775   4.833   4.344   3.019  0.3429 -0.9435  0.5815
   28MOL   C38211776   4.815   4.365   2.865 -0.9509 -0.0564 -0.1948
   28MOL   C38311777   4.941   4.393   2.779  0.3852  0.3141 -0.1276
   28MOL   C38411778   4.992   4.531   2.809 -0.4374 -0.0214 -0.1742
   28MOL   C38511779   4.897   4.395   2.632  0.0530 -0.0738  0.1829
   28MOL   C38611780   5.060   4.297   2.791  0.3261  0.2329  0.3619
   28MOL   H38711781   4.841   4.563   3.036  1.1262 -1.3796 -1.8311
   28MOL   H38811782   4.688   4.493   3.075 -0.7747 -0.0597  0.1248
   28MOL   H38911783   4.938   4.322   3.038  0.5425 -1.0193 -0.5580
   28MOL   H39011784   4.784   4.266   2.831 -0.7494 -0.1824 -0.0114
   28MOL   H39111785   4.723   4.414   2.834 -1.1636  0.6848  1.5902
   28MOL   H39211786   5.018   4.542   2.914  2.0123  2.6931 -1.0325
   28MOL   H39311787   5.085   4.550   2.756  0.4222 -0.7502  1.0331
   28MOL   H39411788   4.926   4.616   2.792 -1.4402 -0.6875  0.2918
   28MOL   H39511789   4.983   4.417   2.570 -0.4127 -2.1605 -1.2669
   28MOL   H39611790   4.828   4.476   2.607 -0.9422 -0.8235  0.4628
   28MOL   H39711791   4.862   4.299   2.595  0.7774 -1.7300  3.6722
   28MOL   H39811792   5.111   4.299   2.887  0.9509  1.5824  0.0112
   28MOL   H39911793   5.133   4.312   2.711 -1.3284  1.0385 -1.0393
   28MOL   H40011794   5.026   4.195   2.772  0.9145 -0.4194  2.6720
   28MOL   C40111795   4.738   4.228   3.069 -0.0796 -0.1568  0.3084
   28MOL   C40211796   4.800   4.093   3.030  0.5748 -0.1635  0.0860
   28MOL   C40311797   4.715   3.979   3.085 -0.3196 -0.0845  0.1527
   28MOL   C40411798   4.700   3.847   3.007  0.0458  0.0174  0.6546
   28MOL   C40511799   4.622   3.747   3.092 -0.5699 -0.2743  0.6386
   28MOL   C40611800   4.848   3.802   2.972  0.4933 -0.4285  0.1922
   28MOL   C40711801   4.625   3.871   2.870 -0.1002 -0.0927  0.5418
   28MOL   H40811802   4.756   4.218   3.176  0.1429 -1.1021  0.1854
   28MOL   H40911803   4.640   4.253   3.028 -0.6343 -0.4926  1.4158
   28MOL   H41011804   4.805   4.079   2.922  1.8474 -0.6948  0.2053
   28MOL   H41111805   4.616   4.019   3.111 -0.4187 -1.8108  2.6916
   28MOL   H41211806   4.763   3.961   3.182 -0.2293  1.9899  0.5064
   28MOL   H41311807   4.614   3.647   3.047  4.3036 -0.2386 -0.6106
   28MOL   H41411808   4.520   3.782   3.110 -0.7351 -0.1219 -0.5265
   28MOL   H41511809   4.672   3.737   3.188 -0.2675  2.5014  0.8047
   28MOL   H41611810   4.852   3.701   2.931  1.8222 -0.3600  0.1319
   28MOL   H41711811   4.901   3.794   3.067  0.7277 -0.8690  0.0253
   28MOL   H41811812   4.906   3.870   2.909  0.5079 -0.2048  0.4489
   28MOL   H41911813   4.684   3.922   2.795 -2.0853 -1.0547 -1.7305
   28MOL   H42011814   4.594   3.781   2.817  0.3823 -0.2677  0.5539
   28MOL   H42111815   4.534   3.930   2.885 -0.0401  1.2111 -3.7315
   28MOL   H42211816   4.905   4.086   3.061  1.0166 -1.9176 -1.7092
   29MOL     C111817   2.967   3.154   5.338 -0.4647  0.0526  0.8401
   29MOL     C211818   3.114   3.146   5.377  0.8720 -0.2747 -0.3593
   29MOL     C311819   3.168   3.282   5.423  0.7555 -0.1908  0.3718
   29MOL     C411820   3.171   3.305   5.576 -0.6558 -0.4638  0.3368
   29MOL     C511821   3.211   3.452   5.598  0.1970 -0.4768 -0.4428
   29MOL     C611822   3.030   3.283   5.643 -0.1225  0.9232 -0.2220
   29MOL     C711823   3.284   3.218   5.646  0.2232  0.0378  0.6018
   29MOL     H811824   2.925   3.062   5.298 -3.5873  2.1810 -0.9402
   29MOL     H911825   2.897   3.167   5.420 -2.3182  0.5101 -0.7803
   29MOL    H1011826   3.123   3.072   5.456  1.1888 -0.3655 -0.4791
   29MOL    H1111827   3.098   3.356   5.382  0.0934 -0.5024  0.9185
   29MOL    H1211828   3.270   3.306   5.395  0.6257  1.0594  0.9410
   29MOL    H1311829   3.308   3.464   5.549 -0.5052  1.1381 -1.4680
   29MOL    H1411830   3.215   3.484   5.702 -2.8013  1.9470 -0.9884
   29MOL    H1511831   3.145   3.527   5.555  0.7910 -0.7476 -1.8519
   29MOL    H1611832   2.944   3.337   5.605 -1.8759 -1.4910  0.1919
   29MOL    H1711833   2.990   3.182   5.634 -2.1199  1.7004 -0.3260
   29MOL    H1811834   3.038   3.285   5.752  0.7675 -2.2948 -0.1592
   29MOL    H1911835   3.381   3.221   5.597 -0.7985 -0.4738 -1.5251
   29MOL    H2011836   3.251   3.114   5.646  0.8949 -0.1738  0.5906
   29MOL    H2111837   3.300   3.259   5.746 -0.3704  0.2440  0.6137
   29MOL    H2211838   2.937   3.219   5.256  0.3053  0.7218  1.0787
   29MOL    C2311839   3.195   3.111   5.252  0.1684  0.0782 -0.6642
   29MOL    C2411840   3.191   2.964   5.194 -0.0799 -0.4282 -0.3026
   29MOL    C2511841   3.270   2.867   5.285  0.1754  0.2698  0.1489
   29MOL    C2611842   3.285   2.717   5.259 -0.2510 -0.3472  0.4214
   29MOL    C2711843   3.158   2.662   5.202 -0.2091 -0.1012 -0.4361
   29MOL    C2811844   3.406   2.681   5.172 -0.7696 -0.2622 -0.1456
   29MOL    C2911845   3.298   2.639   5.393 -0.1271 -0.1302 -0.0364
   29MOL    H3011846   3.151   3.176   5.176  0.1110 -1.6132 -2.0957
   29MOL    H3111847   3.297   3.147   5.261 -0.6687  2.7690 -1.3671
   29MOL    H3211848   3.085   2.937   5.193  0.0694 -1.4664  3.4872
   29MOL    H3311849   3.223   2.881   5.383 -2.6810  1.9843 -1.4208
   29MOL    H3411850   3.373   2.903   5.296  1.4143 -3.0005 -0.0358
   29MOL    H3511851   3.150   2.554   5.214  0.2606 -0.5556 -3.7786
   29MOL    H3611852   3.066   2.699   5.245  0.2633  1.4284 -0.7092
   29MOL    H3711853   3.158   2.691   5.097 -0.5378  4.4197  0.7126
   29MOL    H3811854   3.503   2.708   5.215 -1.5154 -1.2624  2.2631
   29MOL    H3911855   3.421   2.574   5.153  1.0379  0.2571 -1.8567
   29MOL    H4011856   3.415   2.713   5.069  0.1549  1.6770  0.5240
   29MOL    H4111857   3.201   2.638   5.444 -0.6936 -1.7778 -1.0980
   29MOL    H4211858   3.358   2.695   5.464 -2.5514  0.4301  1.6488
   29MOL    H4311859   3.334   2.537   5.388 -1.0288 -0.3529 -3.8989
   29MOL    C4411860   3.253   2.971   5.051 -0.3728  0.2181 -0.4582
   29MOL    C4511861   3.177   3.029   4.936  1.3572  0.1549  1.0691
   29MOL    C4611862   3.052   2.935   4.902 -1.3544  0.2870 -0.2503
   29MOL    C4711863   2.914   2.997   4.876  0.9672 -0.3592  0.0646
   29MOL    C4811864   2.829   2.902   4.788 -0.4967  0.0371 -0.3356
   29MOL    C4911865   2.926   3.128   4.796 -0.2808 -0.2277  0.4317
   29MOL    C5011866   2.838   3.022   5.008  0.1567  0.2126  0.1209
   29MOL    H5111867   3.351   3.019   5.054  0.3305 -1.2979  0.9768
   29MOL    H5211868   3.285   2.876   5.008 -2.5923 -0.0237 -1.6629
   29MOL    H5311869   3.142   3.127   4.968 -1.4217 -0.7725  0.9816
   29MOL    H5411870   3.046   2.865   4.985  0.1060 -0.1843 -0.5309
   29MOL    H5511871   3.076   2.873   4.816  0.0031 -4.4839  3.3614
   29MOL    H5611872   2.726   2.938   4.784 -0.9735 -1.0434  1.5189
   29MOL    H5711873   2.823   2.799   4.823  2.7540 -0.9408 -2.4810
   29MOL    H5811874   2.867   2.899   4.687  0.3387  1.3875 -0.0653
   29MOL    H5911875   2.969   3.103   4.699 -1.3688 -2.7314  0.5751
   29MOL    H6011876   2.825   3.163   4.775 -0.5316 -2.5625 -2.6248
   29MOL    H6111877   2.983   3.208   4.844  0.4785 -1.5432  1.7876
   29MOL    H6211878   2.753   2.955   5.020 -1.7615  2.5282 -0.1782
   29MOL    H6311879   2.910   3.001   5.088 -2.0603 -0.7255  1.9310
   29MOL    H6411880   2.798   3.123   5.013 -0.9803 -0.3006  2.0119
   29MOL    C6511881   3.260   3.065   4.806  0.4807  0.1426 -0.3933
   29MOL    C6611882   3.353   3.181   4.807 -0.1480 -0.4721  0.1124
   29MOL    C6711883   3.277   3.324   4.806  0.3441 -0.1638 -0.0457
   29MOL    C6811884   3.342   3.438   4.878  1.1077 -0.4478  0.5088
   29MOL    C6911885   3.324   3.417   5.036  0.0929  0.2660  0.3374
   29MOL    C7011886   3.492   3.454   4.842 -0.4364 -0.3328  0.4852
   29MOL    C7111887   3.273   3.574   4.842  0.2410 -0.1005  0.0537
   29MOL    H7211888   3.303   2.970   4.775  0.8497 -0.2366  1.2031
   29MOL    H7311889   3.195   3.077   4.720  0.1699  1.4099  0.0001
   29MOL    H7411890   3.412   3.187   4.899 -0.1752  1.5777  0.0284
   29MOL    H7511891   3.175   3.321   4.845  0.3291 -2.4406 -0.1516
   29MOL    H7611892   3.266   3.354   4.701  0.1777  0.9578  0.2898
   29MOL    H7711893   3.374   3.323   5.059  1.9473  1.2177  0.2359
   29MOL    H7811894   3.359   3.506   5.087  2.4258  0.2507 -1.1983
   29MOL    H7911895   3.219   3.392   5.051  0.5025  0.3467  3.8391
   29MOL    H8011896   3.549   3.362   4.846  0.8267  0.2676 -2.5064
   29MOL    H8111897   3.547   3.538   4.887 -0.5480  0.5230 -0.9496
   29MOL    H8211898   3.480   3.477   4.736  2.1532  1.1816  0.4585
   29MOL    H8311899   3.292   3.618   4.743  0.7659  0.2068  0.2891
   29MOL    H8411900   3.274   3.639   4.929  0.2692  1.9001 -1.4017
   29MOL    H8511901   3.168   3.549   4.831 -0.3918  1.0028  3.2664
   29MOL    C8611902   3.432   3.170   4.676 -0.1016  0.1949  0.5196
   29MOL    C8711903   3.551   3.075   4.651 -0.8480 -0.0928  0.2358
   29MOL    C8811904   3.677   3.110   4.736  0.8924 -0.2515  0.1316
   29MOL    C8911905   3.753   2.997   4.804 -0.1012  0.2101  0.1329
   29MOL    C9011906   3.882   3.052   4.863 -0.1266  0.1134 -0.2070
   29MOL    C9111907   3.780   2.882   4.707 -0.8220  0.6262  0.4512
   29MOL    C9211908   3.675   2.931   4.915  0.0210  0.0382  0.2176
   29MOL    H9311909   3.476   3.269   4.662 -0.2308  0.3325  1.0868
   29MOL    H9411910   3.365   3.159   4.591  1.3747  0.5046 -0.7267
   29MOL    H9511911   3.504   2.983   4.686  1.6256 -1.6416 -0.3758
   29MOL    H9611912   3.658   3.189   4.809 -0.8042  0.8859 -1.5017
   29MOL    H9711913   3.741   3.166   4.668  0.6023  1.1210  0.9677
   29MOL    H9811914   3.866   3.142   4.923  0.5410 -0.6414  1.1431
   29MOL    H9911915   3.956   3.066   4.785  0.1837 -2.7667 -0.4559
   29MOL   H10011916   3.917   2.974   4.931  0.0727 -0.0112 -0.4543
   29MOL   H10111917   3.681   2.848   4.676 -1.0514  0.6530  1.1403
   29MOL   H10211918   3.826   2.912   4.613  0.0181 -1.5648  0.1468
   29MOL   H10311919   3.832   2.799   4.755  1.5338  2.8831  1.9253
   29MOL   H10411920   3.577   2.895   4.886  0.0171  0.6769 -0.5763
   29MOL   H10511921   3.726   2.857   4.977 -0.9344 -3.5233 -3.0295
   29MOL   H10611922   3.641   3.014   4.977  0.2043  0.3812 -0.1431
   29MOL   C10711923   3.582   3.048   4.500 -0.0894  0.2909 -0.0482
   29MOL   C10811924   3.647   3.165   4.406 -0.3999  0.8090 -0.2128
   29MOL   C10911925   3.799   3.159   4.390 -0.2169 -0.0573  0.7821
   29MOL   C11011926   3.881   3.292   4.382 -0.2550  0.3466 -0.1523
   29MOL   C11111927   3.863   3.363   4.248 -0.6955 -0.1560 -0.8004
   29MOL   C11211928   4.031   3.244   4.389  0.1791  0.0950 -0.1777
   29MOL   C11311929   3.842   3.383   4.505  0.5475  0.0943  0.0028
   29MOL   H11411930   3.487   3.030   4.450  1.1317 -1.3824 -1.8662
   29MOL   H11511931   3.639   2.955   4.493  0.5168  0.7889 -2.2745
   29MOL   H11611932   3.626   3.258   4.460 -0.4565 -0.9236  2.8331
   29MOL   H11711933   3.851   3.110   4.472  1.1765 -1.1671 -0.7260
   29MOL   H11811934   3.823   3.091   4.308  0.0525 -0.3159  1.0735
   29MOL   H11911935   3.843   3.295   4.166 -0.8504 -0.8756 -0.1622
   29MOL   H12011936   3.775   3.427   4.244 -1.1373 -0.8476 -2.7216
   29MOL   H12111937   3.952   3.420   4.221 -0.1206 -1.1322 -0.9571
   29MOL   H12211938   4.102   3.326   4.375 -0.1889  0.4414 -0.0386
   29MOL   H12311939   4.046   3.159   4.323  0.4886  1.4570 -1.8805
   29MOL   H12411940   4.057   3.206   4.488  1.2483  2.6123  0.5451
   29MOL   H12511941   3.897   3.472   4.534 -1.1187  0.7524  1.2296
   29MOL   H12611942   3.837   3.317   4.592 -2.0524 -0.4832 -0.5365
   29MOL   H12711943   3.745   3.423   4.475 -0.1600 -2.1611 -0.8678
   29MOL   C12811944   3.581   3.170   4.265  0.5887  0.8328  0.4395
   29MOL   C12911945   3.453   3.250   4.247 -0.0971 -0.4107 -0.7251
   29MOL   C13011946   3.477   3.401   4.255 -0.2551  0.4122 -0.1303
   29MOL   C13111947   3.372   3.493   4.321 -0.1621 -0.3473  0.0217
   29MOL   C13211948   3.339   3.459   4.464  0.1441 -0.1305  0.1756
   29MOL   C13311949   3.248   3.494   4.237 -0.1207  0.7594  0.1786
   29MOL   C13411950   3.422   3.636   4.317  0.1289 -0.3342 -0.5941
   29MOL   H13511951   3.561   3.067   4.237  2.6859  0.1096  1.4714
   29MOL   H13611952   3.660   3.203   4.197 -1.3210 -0.6754 -2.5747
   29MOL   H13711953   3.400   3.208   4.332  0.3236  0.4257 -0.0412
   29MOL   H13811954   3.567   3.424   4.312  0.5821 -0.8919 -0.9044
   29MOL   H13911955   3.509   3.436   4.157  0.9087 -1.6706 -0.5334
   29MOL   H14011956   3.431   3.468   4.521 -0.2059 -3.6266  1.3808
   29MOL   H14111957   3.292   3.362   4.474 -2.4199  0.9102 -1.2177
   29MOL   H14211958   3.276   3.540   4.502 -0.2344 -0.6081  0.5573
   29MOL   H14311959   3.182   3.569   4.278  0.7309  2.3650 -1.3205
   29MOL   H14411960   3.195   3.399   4.236  1.0681  0.0609  1.0351
   29MOL   H14511961   3.274   3.509   4.132 -1.2385  1.2690 -0.0272
   29MOL   H14611962   3.510   3.645   4.380 -3.4511  0.6960  4.6404
   29MOL   H14711963   3.459   3.667   4.220 -1.8751 -0.1757 -1.3428
   29MOL   H14811964   3.351   3.710   4.355 -1.3503 -0.9517 -2.0732
   29MOL   C14911965   3.368   3.213   4.114 -0.1523 -0.5342 -0.7262
   29MOL   C15011966   3.295   3.080   4.104 -0.7215  0.8832  0.6292
   29MOL   C15111967   3.179   3.074   4.207  0.1117  0.2514 -0.2148
   29MOL   C15211968   3.117   2.943   4.264 -0.8360  0.6135 -0.5254
   29MOL   C15311969   3.004   2.964   4.365 -0.6768  0.4252 -0.5213
   29MOL   C15411970   3.234   2.869   4.342 -0.3185 -1.0196 -0.6212
   29MOL   C15511971   3.060   2.850   4.156  0.6524  0.5014  0.2050
   29MOL   H15611972   3.443   3.220   4.035  0.1157 -1.1267 -0.5269
   29MOL   H15711973   3.283   3.278   4.094 -0.6207 -0.8815  0.0995
   29MOL   H15811974   3.368   3.002   4.124 -1.0632  1.0444  2.5976
   29MOL   H15911975   3.100   3.133   4.161  1.8994  0.3591 -3.3046
   29MOL   H16011976   3.206   3.130   4.297  0.4630 -2.2843  1.2951
   29MOL   H16111977   3.028   3.028   4.450  2.3855 -1.6286  0.2330
   29MOL   H16211978   2.922   3.025   4.326  0.1010  1.4376 -0.5985
   29MOL   H16311979   2.969   2.875   4.418 -1.3783 -0.7170 -2.8389
   29MOL   H16411980   3.292   2.825   4.260  0.7425 -1.1434  0.1913
   29MOL   H16511981   3.187   2.785   4.394  0.9420  0.4232  3.0046
   29MOL   H16611982   3.281   2.946   4.402  0.4308 -0.8762 -1.3829
   29MOL   H16711983   3.130   2.795   4.093 -1.0545 -1.2365 -0.2248
   29MOL   H16811984   3.004   2.772   4.207 -0.6524  1.3849  0.1561
   29MOL   H16911985   2.987   2.908   4.099 -0.9226 -3.1291 -1.6179
   29MOL   C17011986   3.234   3.060   3.957 -0.2745  0.2756  0.0504
   29MOL   C17111987   3.338   3.077   3.841  0.4236  0.0947  0.3704
   29MOL   C17211988   3.262   3.081   3.704  1.0297 -0.5825  0.2974
   29MOL   C17311989   3.203   3.217   3.643 -0.1751 -0.3223  0.2386
   29MOL   C17411990   3.143   3.305   3.750  0.9130 -0.2246 -0.4980
   29MOL   C17511991   3.090   3.188   3.542  0.1277 -0.2229 -0.1805
   29MOL   C17611992   3.313   3.303   3.568  0.0887  0.7438  0.2000
   29MOL   H17711993   3.151   3.127   3.935  1.2365  1.8161 -1.0939
   29MOL   H17811994   3.180   2.965   3.950 -1.2681  1.0324 -3.2487
   29MOL   H17911995   3.387   3.174   3.845  2.1909 -0.8537  5.4896
   29MOL   H18011996   3.338   3.053   3.631 -0.1941 -0.1292 -1.1878
   29MOL   H18111997   3.178   3.012   3.703 -0.2901  0.9443  2.0540
   29MOL   H18211998   3.099   3.392   3.701 -1.2278 -0.5442  0.8229
   29MOL   H18311999   3.063   3.247   3.796  0.7888  0.7797  0.5894
   29MOL   H18412000   3.198   3.354   3.830  0.0100 -0.6038  0.3657
   29MOL   H18512001   3.040   3.281   3.514 -1.9550 -1.5267 -0.8741
   29MOL   H18612002   3.112   3.124   3.457  0.2932 -1.6470  0.9108
   29MOL   H18712003   3.014   3.129   3.593  0.3285 -0.0237  0.3540
   29MOL   H18812004   3.369   3.234   3.505  0.3698 -0.6705  1.9444
   29MOL   H18912005   3.281   3.387   3.506  0.5374  0.3523 -0.5693
   29MOL   H19012006   3.384   3.350   3.637  0.9945 -1.1386  0.6161
   29MOL   C19112007   3.448   2.964   3.843 -0.1473  0.3489 -0.0665
   29MOL   C19212008   3.571   2.985   3.754  0.0757  0.2345 -0.1545
   29MOL   C19312009   3.690   2.900   3.816  0.5902  0.2238 -0.1863
   29MOL   C19412010   3.689   2.750   3.789 -0.2386 -0.1590 -0.0534
   29MOL   C19512011   3.690   2.719   3.642 -0.4008  0.3946 -0.7603
   29MOL   C19612012   3.571   2.676   3.856  0.1856 -0.3797  0.3444
   29MOL   C19712013   3.818   2.691   3.845 -0.2830 -0.1600  0.2667
   29MOL   H19812014   3.482   2.958   3.947 -2.7226 -0.7317  0.7629
   29MOL   H19912015   3.406   2.865   3.826  0.7287  0.2281 -1.5272
   29MOL   H20012016   3.534   2.956   3.656 -1.1800  2.4869 -0.3755
   29MOL   H20112017   3.688   2.917   3.923 -0.8499  1.6434 -0.4171
   29MOL   H20212018   3.790   2.932   3.784  0.9884 -0.0047  0.8201
   29MOL   H20312019   3.607   2.766   3.588 -0.1741  0.9946 -0.5948
   29MOL   H20412020   3.776   2.750   3.583  0.9913 -0.3672  0.8292
   29MOL   H20512021   3.695   2.612   3.625 -0.7804  0.2972 -0.2560
   29MOL   H20612022   3.540   2.727   3.947  0.0414  0.0295  0.0670
   29MOL   H20712023   3.480   2.673   3.796  0.3142 -1.0957  0.1854
   29MOL   H20812024   3.588   2.569   3.870  0.8378 -0.2600  0.4845
   29MOL   H20912025   3.904   2.717   3.784 -0.8336 -0.0523 -0.4679
   29MOL   H21012026   3.823   2.717   3.951 -0.9672  2.8289 -0.4064
   29MOL   H21112027   3.806   2.583   3.833  1.2160 -0.2771 -0.3517
   29MOL   C21212028   3.629   3.132   3.755  0.9989  0.5585 -0.8487
   29MOL   C21312029   3.743   3.168   3.659 -0.0714  0.0253  0.1964
   29MOL   C21412030   3.782   3.323   3.658  0.2510 -0.7751  0.3418
   29MOL   C21512031   3.848   3.379   3.788  0.1986  0.5523 -0.1553
   29MOL   C21612032   3.940   3.276   3.862  0.0521  0.0205  0.5602
   29MOL   C21712033   3.929   3.501   3.758 -0.5882 -0.0556  0.4304
   29MOL   C21812034   3.739   3.428   3.893 -0.3766 -0.1704 -0.1351
   29MOL   H21912035   3.558   3.212   3.734  1.2549  1.6308  2.1802
   29MOL   H22012036   3.646   3.145   3.862 -0.3766  0.7710 -0.6435
   29MOL   H22112037   3.835   3.117   3.687 -0.0216  0.8301  1.5603
   29MOL   H22212038   3.705   3.389   3.617  1.6397  0.1180 -0.8865
   29MOL   H22312039   3.854   3.333   3.577 -1.8536  1.1117 -1.3583
   29MOL   H22412040   4.023   3.239   3.802 -0.4160  0.1308 -0.1584
   29MOL   H22512041   3.890   3.192   3.908  1.6880 -0.1526  2.0836
   29MOL   H22612042   3.980   3.319   3.954 -1.0280  1.0464  0.5712
   29MOL   H22712043   3.973   3.539   3.850 -0.1939  1.4671 -0.3807
   29MOL   H22812044   4.005   3.484   3.682 -0.0102  1.3836  0.6797
   29MOL   H22912045   3.871   3.585   3.721  2.5307  2.7801  1.7002
   29MOL   H23012046   3.679   3.512   3.858  0.7838  1.5822  1.9907
   29MOL   H23112047   3.778   3.456   3.991  1.6833  0.0887 -0.9903
   29MOL   H23212048   3.673   3.343   3.910  1.3506 -1.5844 -0.3199
   29MOL   C23312049   3.698   3.136   3.509 -0.9532  0.0876  0.3738
   29MOL   C23412050   3.803   3.099   3.397 -0.2505 -0.5346  0.2631
   29MOL   C23512051   3.877   2.965   3.430  0.0151  0.1333  0.8457
   29MOL   C23612052   4.033   2.960   3.405 -0.5638  0.2169  0.0914
   29MOL   C23712053   4.107   3.069   3.488 -0.2484  0.4493  0.6543
   29MOL   C23812054   4.081   2.825   3.447 -0.7073 -0.3090 -0.0003
   29MOL   C23912055   4.062   2.985   3.253 -0.8142 -0.7905  0.1625
   29MOL   H24012056   3.643   3.228   3.484 -1.7847 -0.2114  1.0601
   29MOL   H24112057   3.625   3.056   3.500  0.0711 -0.8448  0.3183
   29MOL   H24212058   3.883   3.173   3.393 -0.3393 -0.4486  0.0781
   29MOL   H24312059   3.864   2.945   3.536  0.8648  0.6302  1.0561
   29MOL   H24412060   3.823   2.880   3.390  0.6712  0.2166 -0.2237
   29MOL   H24512061   4.094   3.172   3.455  1.3426  1.4228  2.9481
   29MOL   H24612062   4.214   3.050   3.488 -0.5552 -1.4634 -0.6093
   29MOL   H24712063   4.076   3.059   3.592 -0.0420  0.6526  0.7346
   29MOL   H24812064   4.018   2.744   3.410 -1.7094  1.2471 -1.7882
   29MOL   H24912065   4.183   2.801   3.418  0.6562  1.8912  2.7668
   29MOL   H25012066   4.065   2.810   3.553  0.6722 -1.2983  0.0891
   29MOL   H25112067   4.017   3.076   3.213 -1.0245 -0.3525  1.3777
   29MOL   H25212068   4.168   2.974   3.227 -0.7462 -1.0703  0.5550
   29MOL   H25312069   4.008   2.910   3.195 -0.5675  0.1100 -1.2573
   29MOL   C25412070   3.739   3.101   3.255  0.0147 -0.0709 -0.0612
   29MOL   C25512071   3.675   3.226   3.193 -0.1202  0.5027  0.5937
   29MOL   C25612072   3.622   3.217   3.047 -0.4691  0.2295  0.0674
   29MOL   C25712073   3.510   3.116   3.009 -0.1902  0.5934  0.1023
   29MOL   C25812074   3.441   3.170   2.876 -0.2391  0.2350 -0.4084
   29MOL   C25912075   3.396   3.095   3.116  0.2530  0.2160 -0.4211
   29MOL   C26012076   3.579   2.980   2.972 -0.2538  0.2522  0.2165
   29MOL   H26112077   3.665   3.021   3.252 -0.3544  0.3295 -2.7880
   29MOL   H26212078   3.819   3.073   3.187  1.0233  2.1097  0.1882
   29MOL   H26312079   3.583   3.238   3.251 -2.9481 -0.4378 -3.5106
   29MOL   H26412080   3.581   3.315   3.022  0.6880  1.0607  1.3410
   29MOL   H26512081   3.704   3.200   2.976  1.1230 -0.0450  1.9279
   29MOL   H26612082   3.509   3.213   2.802 -1.1291  0.9219 -0.8247
   29MOL   H26712083   3.368   3.246   2.903 -1.2575 -1.1690  0.8853
   29MOL   H26812084   3.382   3.088   2.834 -1.0350  0.6397 -0.0802
   29MOL   H26912085   3.344   3.189   3.129 -0.5839 -0.3964  0.7358
   29MOL   H27012086   3.440   3.063   3.210 -1.3866  3.4010  1.5004
   29MOL   H27112087   3.329   3.014   3.086 -0.0474 -0.1659  1.2778
   29MOL   H27212088   3.660   2.995   2.901  0.9760  1.3026  1.8277
   29MOL   H27312089   3.619   2.927   3.058 -0.8945  1.2720  1.1393
   29MOL   H27412090   3.513   2.911   2.918 -0.5936  0.9690 -0.3028
   29MOL   C27512091   3.782   3.340   3.207 -0.2023  0.0738  0.2082
   29MOL   C27612092   3.755   3.478   3.151 -0.6245 -0.3174  0.6055
   29MOL   C27712093   3.633   3.546   3.219 -0.1105  0.5738 -0.4702
   29MOL   C27812094   3.547   3.640   3.132  1.0876 -0.5630  0.2437
   29MOL   C27912095   3.495   3.588   2.995 -1.0665  0.5787  0.1155
   29MOL   C28012096   3.416   3.671   3.211  0.8646  0.8365  0.4470
   29MOL   C28112097   3.621   3.776   3.118  0.0795 -0.1238  0.4454
   29MOL   H28212098   3.802   3.353   3.313 -1.4205  0.7729  0.3656
   29MOL   H28312099   3.882   3.314   3.172 -0.9842 -0.6542 -1.5633
   29MOL   H28412100   3.733   3.452   3.047  2.6295 -2.2461  0.3251
   29MOL   H28512101   3.657   3.598   3.312  0.0378 -1.0287  0.4160
   29MOL   H28612102   3.565   3.462   3.232  2.5982 -1.6200  0.1720
   29MOL   H28712103   3.449   3.490   3.011  0.8983 -0.3785 -0.0240
   29MOL   H28812104   3.426   3.656   2.945 -2.8337 -0.1458  1.4896
   29MOL   H28912105   3.575   3.570   2.923 -0.3488  0.2267  1.0007
   29MOL   H29012106   3.341   3.592   3.211 -0.5463  2.1185  3.1318
   29MOL   H29112107   3.373   3.757   3.159  1.3707  1.9008  1.7618
   29MOL   H29212108   3.431   3.686   3.318 -0.3852 -0.9826  0.9035
   29MOL   H29312109   3.660   3.817   3.212  0.4956  1.1107 -0.2544
   29MOL   H29412110   3.569   3.854   3.063 -0.4192  0.4386  1.6916
   29MOL   H29512111   3.703   3.761   3.048 -1.1840  0.7699 -1.2605
   29MOL   C29612112   3.884   3.566   3.165 -0.1192 -0.0975  0.2290
   29MOL   C29712113   3.994   3.535   3.066  0.3730  0.8849 -0.5269
   29MOL   C29812114   4.136   3.567   3.120  0.5722 -0.1913  0.8033
   29MOL   C29912115   4.210   3.474   3.217 -0.0128  1.0378 -0.3365
   29MOL   C30012116   4.229   3.337   3.155 -0.3036 -0.3601 -0.3804
   29MOL   C30112117   4.354   3.537   3.252 -0.0957 -0.3084 -0.5069
   29MOL   C30212118   4.134   3.451   3.353 -0.4556 -0.2067  0.3934
   29MOL   H30312119   3.928   3.571   3.264 -0.1689 -0.5044  0.2718
   29MOL   H30412120   3.858   3.672   3.165  1.7949  0.3889  0.3090
   29MOL   H30512121   3.999   3.428   3.042  0.1220 -0.1582  3.7318
   29MOL   H30612122   4.135   3.660   3.177 -0.0780  0.1096  0.3095
   29MOL   H30712123   4.204   3.584   3.036 -0.6274 -1.2677 -0.3974
   29MOL   H30812124   4.286   3.350   3.063 -1.4966 -0.8416 -1.1992
   29MOL   H30912125   4.292   3.269   3.211 -0.0746 -0.2364 -0.4878
   29MOL   H31012126   4.142   3.279   3.123 -1.6278  0.0160  2.3585
   29MOL   H31112127   4.364   3.638   3.294  1.6102 -0.2879 -0.9038
   29MOL   H31212128   4.410   3.485   3.330 -1.1997 -1.7112 -0.6469
   29MOL   H31312129   4.420   3.545   3.165  0.9734 -1.6167  0.1746
   29MOL   H31412130   4.136   3.549   3.400  1.4258 -0.3246  0.5910
   29MOL   H31512131   4.032   3.412   3.349 -0.3274 -0.5544  0.4422
   29MOL   H31612132   4.196   3.378   3.406  1.5736  1.2094  0.0201
   29MOL   C31712133   3.950   3.597   2.934 -0.3096 -0.1855  0.2338
   29MOL   C31812134   4.045   3.678   2.850  0.8317  0.5143  0.0994
   29MOL   C31912135   4.109   3.572   2.755 -0.5457 -0.2312 -0.4038
   29MOL   C32012136   4.252   3.613   2.708  0.2289  0.1273 -0.0582
   29MOL   C32112137   4.290   3.506   2.601 -1.4549  0.8554  0.4335
   29MOL   C32212138   4.360   3.600   2.824 -0.1781  0.0098  0.7990
   29MOL   C32312139   4.264   3.744   2.633  0.5527 -0.3373  0.1019
   29MOL   H32412140   3.910   3.522   2.866  0.0780 -0.0398 -0.1634
   29MOL   H32512141   3.865   3.662   2.952 -1.3150 -1.6181  0.6922
   29MOL   H32612142   4.118   3.735   2.907  1.3986 -0.4905  0.3930
   29MOL   H32712143   4.028   3.550   2.685  1.1524  1.2774 -2.9086
   29MOL   H32812144   4.109   3.472   2.799 -0.1812  0.4932  1.2668
   29MOL   H32912145   4.382   3.516   2.545 -0.9245 -0.9052  0.9512
   29MOL   H33012146   4.206   3.518   2.532 -1.7333  2.8270  1.0867
   29MOL   H33112147   4.291   3.408   2.649  0.5363  0.9730  0.6375
   29MOL   H33212148   4.457   3.591   2.775 -1.3392 -0.2961 -1.5223
   29MOL   H33312149   4.369   3.676   2.901 -2.4361  1.5398 -0.4059
   29MOL   H33412150   4.348   3.508   2.882 -2.1250  2.0295  3.7300
   29MOL   H33512151   4.359   3.752   2.581  0.3267 -0.0608 -0.2760
   29MOL   H33612152   4.273   3.826   2.705  1.7559  0.1243 -0.5761
   29MOL   H33712153   4.191   3.779   2.560  1.7481  2.6573  0.2758
   29MOL   C33812154   3.965   3.778   2.764  0.0435  0.2236 -0.5687
   29MOL   C33912155   4.002   3.923   2.787  0.6840  0.2324 -0.3564
   29MOL   C34012156   3.955   3.970   2.927 -0.2931 -0.2583 -0.0595
   29MOL   C34112157   4.039   4.067   3.015  0.4643 -0.5846  0.1291
   29MOL   C34212158   3.925   4.104   3.126  0.6021 -0.0805 -0.2877
   29MOL   C34312159   4.152   3.990   3.077 -1.2982 -0.0095  0.5782
   29MOL   C34412160   4.090   4.195   2.943  0.3174  0.4273  0.6738
   29MOL   H34512161   3.859   3.754   2.772  0.5109 -1.4215  0.8938
   29MOL   H34612162   3.992   3.756   2.661  0.9624 -1.4931  0.0208
   29MOL   H34712163   4.111   3.927   2.799  0.6936 -1.1904  0.1455
   29MOL   H34812164   3.945   3.881   2.991  2.2907 -1.8159 -1.7064
   29MOL   H34912165   3.854   4.010   2.934 -0.1674 -0.4573  4.2399
   29MOL   H35012166   3.889   4.015   3.179 -0.8887  1.2265  0.9457
   29MOL   H35112167   3.953   4.174   3.205 -0.3379  2.7835 -2.4267
   29MOL   H35212168   3.833   4.149   3.089  0.6162  0.9267  0.8493
   29MOL   H35312169   4.211   4.055   3.142  0.0507  0.4477 -1.0562
   29MOL   H35412170   4.120   3.918   3.152  0.2186 -1.0592  0.2436
   29MOL   H35512171   4.217   3.952   2.998 -2.2813  1.5000 -0.9757
   29MOL   H35612172   4.161   4.248   3.006 -0.5020 -0.0927  2.0393
   29MOL   H35712173   4.149   4.171   2.855 -0.1328 -3.3766  1.3464
   29MOL   H35812174   4.016   4.274   2.926  0.8929  0.8210 -0.0418
   29MOL   C35912175   3.957   4.005   2.660 -0.3785 -0.3721 -0.5096
   29MOL   C36012176   3.806   4.058   2.655 -0.6896 -0.1809  0.4836
   29MOL   C36112177   3.748   4.072   2.511 -0.7047  0.2650 -0.8934
   29MOL   C36212178   3.655   3.963   2.460  0.2192  0.0341 -0.6583
   29MOL   C36312179   3.623   4.003   2.316 -0.6664 -0.2576 -0.4155
   29MOL   C36412180   3.529   3.957   2.540  0.0070 -0.3685 -0.3901
   29MOL   C36512181   3.725   3.827   2.443 -0.2676  1.5410 -0.0858
   29MOL   H36612182   3.998   3.946   2.578  1.9492 -1.5401  1.4160
   29MOL   H36712183   4.017   4.095   2.646 -0.6835 -0.0054  0.4739
   29MOL   H36812184   3.755   3.977   2.708 -0.4661 -0.6499 -0.0096
   29MOL   H36912185   3.703   4.167   2.483  2.0292  1.6105 -0.8228
   29MOL   H37012186   3.839   4.074   2.451  0.2075 -0.7341  0.4350
   29MOL   H37112187   3.567   4.096   2.309  0.1322  0.2349 -0.3493
   29MOL   H37212188   3.723   4.024   2.277 -0.1484  1.3813  1.7142
   29MOL   H37312189   3.570   3.928   2.257 -2.3833  0.1182  0.6236
   29MOL   H37412190   3.555   3.947   2.645 -0.2266  0.8800 -0.1949
   29MOL   H37512191   3.476   3.868   2.507 -1.0233  1.0313 -2.6209
   29MOL   H37612192   3.459   4.041   2.533 -0.7169 -0.6648  2.6409
   29MOL   H37712193   3.670   3.744   2.399 -1.9996  0.2255  4.2578
   29MOL   H37812194   3.755   3.794   2.543 -2.6065 -1.4632 -0.2928
   29MOL   H37912195   3.820   3.834   2.391  0.0001 -2.4664 -0.2662
   29MOL   C38012196   3.785   4.183   2.727  0.3833  0.0735 -0.0219
   29MOL   C38112197   3.641   4.236   2.754  0.5236 -0.4969 -0.0584
   29MOL   C38212198   3.642   4.394   2.759  0.1147 -0.1921  0.8175
   29MOL   C38312199   3.613   4.486   2.634  0.4304  0.1198  0.0468
   29MOL   C38412200   3.568   4.624   2.682  0.9319  0.3301 -0.5156
   29MOL   C38512201   3.505   4.434   2.537 -0.0295  0.1209  0.7941
   29MOL   C38612202   3.740   4.510   2.558 -0.2211  0.1284  0.6937
   29MOL   H38712203   3.841   4.245   2.657 -1.4099 -1.4437 -2.9123
   29MOL   H38812204   3.842   4.190   2.819  1.6606 -0.9361 -0.7338
   29MOL   H38912205   3.580   4.207   2.668  0.4305 -3.1266  0.8314
   29MOL   H39012206   3.576   4.418   2.842  1.5255  1.2333  1.5547
   29MOL   H39112207   3.739   4.432   2.791 -0.5713  2.5755 -0.2241
   29MOL   H39212208   3.574   4.684   2.592 -0.6188 -1.4776 -1.8834
   29MOL   H39312209   3.465   4.628   2.719  0.1705 -2.7452 -2.1392
   29MOL   H39412210   3.645   4.668   2.745  0.0863  1.5293 -0.3172
   29MOL   H39512211   3.534   4.344   2.483 -0.8844  0.4917 -0.3040
   29MOL   H39612212   3.485   4.506   2.458 -0.1886  1.1287  1.7322
   29MOL   H39712213   3.403   4.415   2.572  0.8477 -2.5203  2.0201
   29MOL   H39812214   3.728   4.561   2.463  0.6707 -1.0807 -0.0737
   29MOL   H39912215   3.772   4.409   2.536 -1.0472 -0.2626  1.2729
   29MOL   H40012216   3.822   4.548   2.619 -0.8114 -0.1527  1.6739
   29MOL   C40112217   3.581   4.154   2.873 -0.3024  0.1114  0.6341
   29MOL   C40212218   3.429   4.160   2.898  0.3071  0.3085  0.6100
   29MOL   C40312219   3.354   4.039   2.951 -0.1506 -0.4087 -0.1221
   29MOL   C40412220   3.215   4.015   2.876  0.2983  0.5652 -0.6394
   29MOL   C40512221   3.121   4.140   2.895  0.2937  0.5135 -0.0453
   29MOL   C40612222   3.136   3.898   2.949 -0.5896 -0.1173  0.1915
   29MOL   C40712223   3.233   3.983   2.725 -1.0132 -0.2346  0.3912
   29MOL   H40812224   3.599   4.047   2.865  3.0122  0.6679 -0.1617
   29MOL   H40912225   3.641   4.186   2.958 -1.4587 -0.0865  1.5351
   29MOL   H41012226   3.400   4.247   2.958 -0.8787  1.2418 -1.2738
   29MOL   H41112227   3.323   4.042   3.055 -0.2952  0.3656 -0.1792
   29MOL   H41212228   3.412   3.949   2.934  1.4734 -0.0166  3.0653
   29MOL   H41312229   3.171   4.228   2.854  1.1487  0.6465  1.2418
   29MOL   H41412230   3.093   4.144   3.000 -3.6616  0.1434 -1.0200
   29MOL   H41512231   3.037   4.131   2.826 -0.2883 -0.4021  0.7776
   29MOL   H41612232   3.198   3.809   2.955 -0.5532 -0.0820  0.3474
   29MOL   H41712233   3.043   3.883   2.894 -1.2176 -2.7163  1.8850
   29MOL   H41812234   3.127   3.925   3.055 -1.4305 -2.9124  0.8824
   29MOL   H41912235   3.144   3.949   2.672  0.2151 -0.1694 -1.7613
   29MOL   H42012236   3.276   4.069   2.674  0.1648 -0.3864  1.0944
   29MOL   H42112237   3.298   3.897   2.707  0.2329  0.4928  1.3483
   29MOL   H42212238   3.383   4.192   2.804  0.2900 -0.4378  0.3621
   30MOL     C112239   3.055   2.767   0.223  0.1005 -0.5946 -0.5608
   30MOL     C212240   2.947   2.749   0.117  0.0294  0.4987 -0.7494
   30MOL     C312241   2.823   2.844   0.152  0.2740 -0.2918 -0.1078
   30MOL     C412242   2.814   2.990   0.087 -0.4919 -0.1905 -0.2743
   30MOL     C512243   2.695   3.068   0.146  0.2796 -0.3958 -0.1302
   30MOL     C612244   2.943   3.058   0.109  0.0782  0.4123 -0.0949
   30MOL     C712245   2.794   2.973   7.698  0.1027  0.1021 -0.0525
   30MOL     H812246   3.151   2.728   0.189  0.4060 -0.0976 -0.2796
   30MOL     H912247   3.073   2.872   0.246  2.2745 -1.5062  2.1033
   30MOL    H1012248   2.990   2.769   0.019  0.3028  1.6468 -0.4011
   30MOL    H1112249   2.816   2.841   0.261  2.3066 -0.4767  0.0258
   30MOL    H1212250   2.731   2.792   0.123 -0.6305  1.8722 -1.2069
   30MOL    H1312251   2.662   3.158   0.094  2.2548  0.3571 -0.1171
   30MOL    H1412252   2.720   3.088   0.250 -2.3430 -2.4341  0.9561
   30MOL    H1512253   2.603   3.011   0.133 -1.4097  2.1146  0.5528
   30MOL    H1612254   2.976   3.056   0.213  1.3420 -0.6591 -0.5006
   30MOL    H1712255   3.025   3.014   0.052  0.5332  0.6547  0.3696
   30MOL    H1812256   2.937   3.165   0.086  0.9293  0.3870 -0.4546
   30MOL    H1912257   2.711   2.903   7.686  2.4391 -2.4463 -1.8298
   30MOL    H2012258   2.882   2.924   7.657  1.2565  0.1008  2.3672
   30MOL    H2112259   2.785   3.061   7.634  1.6959 -1.0487 -1.8869
   30MOL    H2212260   3.032   2.725   0.321 -0.8033 -0.6196 -0.7826
   30MOL    C2312261   2.902   2.595   0.120  0.5471  0.0985  0.5319
   30MOL    C2412262   2.844   2.533   7.751 -0.1116  0.0655  0.5040
   30MOL    C2512263   2.770   2.400   0.013 -0.6366  0.6086  0.0971
   30MOL    C2612264   2.616   2.400   0.045  0.3779  1.0467  0.3470
   30MOL    C2712265   2.535   2.491   7.710  0.2088 -0.2754 -0.0421
   30MOL    C2812266   2.573   2.257   0.021  0.2138  0.1018  0.5773
   30MOL    C2912267   2.567   2.438   0.185  0.0693  0.0640  0.1605
   30MOL    H3012268   2.989   2.536   0.149  0.3165  0.1114  1.2396
   30MOL    H3112269   2.822   2.590   0.193  1.0169 -1.3853  0.9691
   30MOL    H3212270   2.762   2.596   7.718 -0.3702 -0.3599  0.3376
   30MOL    H3312271   2.822   2.338   0.086  0.0387  0.7650 -0.2493
   30MOL    H3412272   2.776   2.337   7.690 -1.0340  0.4699  0.1636
   30MOL    H3512273   2.432   2.455   7.710  0.4430 -0.9621 -0.8398
   30MOL    H3612274   2.546   2.596   7.736  2.0645 -0.2264 -0.9163
   30MOL    H3712275   2.588   2.481   7.615 -1.8935 -2.2199 -1.0697
   30MOL    H3812276   2.469   2.239   0.048 -0.5509  3.9404  0.5267
   30MOL    H3912277   2.581   2.233   7.680 -0.7126  1.5004  0.1778
   30MOL    H4012278   2.639   2.183   0.067 -0.3130 -0.2584  0.7580
   30MOL    H4112279   2.597   2.540   0.211 -2.5096  1.3617 -1.6538
   30MOL    H4212280   2.612   2.370   0.257 -1.1616  0.9598  1.8264
   30MOL    H4312281   2.459   2.427   0.198  0.0208 -0.3706 -0.6286
   30MOL    C4412282   2.954   2.517   7.643  0.0197 -0.7850 -0.2101
   30MOL    C4512283   2.904   2.517   7.500 -0.3498  0.0939  0.3021
   30MOL    C4612284   3.019   2.464   7.413  0.5262  0.4243  0.0596
   30MOL    C4712285   2.996   2.323   7.349 -0.4140  0.1217  0.5536
   30MOL    C4812286   3.118   2.275   7.273  0.0065  0.4167  0.3221
   30MOL    C4912287   2.867   2.308   7.264  0.4910  0.2187 -0.7948
   30MOL    C5012288   2.988   2.218   7.462 -0.5587 -0.8333  0.0915
   30MOL    H5112289   3.033   2.588   7.667 -0.2242 -0.6696  0.2607
   30MOL    H5212290   2.995   2.419   7.671 -0.8673 -0.4609  2.3657
   30MOL    H5312291   2.817   2.451   7.493  1.1708 -1.8402 -0.6330
   30MOL    H5412292   3.114   2.460   7.467  0.9095 -0.6723 -0.6734
   30MOL    H5512293   3.023   2.532   7.329 -1.9757 -0.9063 -1.2205
   30MOL    H5612294   3.130   2.316   7.172 -0.1686  0.6743  0.4061
   30MOL    H5712295   3.108   2.167   7.260  1.0226  0.3599 -0.0831
   30MOL    H5812296   3.210   2.298   7.326 -0.1986 -1.3509  1.4806
   30MOL    H5912297   2.843   2.406   7.224  0.7107  0.0280 -1.4152
   30MOL    H6012298   2.879   2.231   7.187 -1.4938 -1.7013  0.7560
   30MOL    H6112299   2.779   2.284   7.323  0.0322 -0.9624 -1.9240
   30MOL    H6212300   2.911   2.241   7.535 -0.7698 -0.8578 -0.1239
   30MOL    H6312301   2.969   2.119   7.420 -2.2832 -0.0134 -1.1151
   30MOL    H6412302   3.083   2.212   7.515 -0.5049  1.0451  0.2381
   30MOL    C6512303   2.868   2.664   7.461  0.1352  0.6114 -0.0619
   30MOL    C6612304   2.779   2.681   7.330  0.4868 -0.6831 -0.3476
   30MOL    C6712305   2.791   2.829   7.276  0.2881 -0.2861 -0.9086
   30MOL    C6812306   2.867   2.835   7.140 -0.1732 -0.1332 -0.3564
   30MOL    C6912307   2.870   2.980   7.095 -0.3806  0.3682 -0.6040
   30MOL    C7012308   3.013   2.785   7.150 -0.5673  0.3976  0.1988
   30MOL    C7112309   2.790   2.761   7.029 -0.1594 -0.2741 -0.4332
   30MOL    H7212310   2.817   2.710   7.545  1.1449 -0.0374  0.9129
   30MOL    H7312311   2.962   2.718   7.448  0.4003  0.4867  1.2800
   30MOL    H7412312   2.819   2.614   7.254 -1.3771 -1.1900 -0.9253
   30MOL    H7512313   2.843   2.897   7.343  1.1355 -0.6884 -1.1581
   30MOL    H7612314   2.695   2.880   7.265  1.4833  2.1431 -0.5679
   30MOL    H7712315   2.777   3.038   7.094  0.6995  2.1604  0.6261
   30MOL    H7812316   2.940   3.030   7.162 -0.2050 -1.7906  0.8665
   30MOL    H7912317   2.908   2.988   6.993  0.6308 -1.7556 -0.4227
   30MOL    H8012318   3.036   2.680   7.171 -2.9806 -0.0368  0.8148
   30MOL    H8112319   3.064   2.850   7.220 -0.9149 -0.4320  1.2435
   30MOL    H8212320   3.059   2.797   7.052  0.5401 -1.3433  0.4781
   30MOL    H8312321   2.686   2.782   7.055  0.3526  0.5150  1.0383
   30MOL    H8412322   2.792   2.653   7.042  3.2592 -0.2386 -0.1668
   30MOL    H8512323   2.818   2.785   6.927  2.9086 -0.4013  0.3486
   30MOL    C8612324   2.636   2.635   7.359  0.1423  0.1225 -0.5031
   30MOL    C8712325   2.525   2.634   7.246  0.0505  0.8316 -0.0887
   30MOL    C8812326   2.381   2.668   7.295 -0.3984 -0.3360 -0.6487
   30MOL    C8912327   2.336   2.813   7.318 -0.0487 -0.1389 -0.0528
   30MOL    C9012328   2.420   2.899   7.421  0.4902 -0.0752  0.1897
   30MOL    C9112329   2.193   2.806   7.374 -0.2304  0.2187  0.4373
   30MOL    C9212330   2.334   2.888   7.180 -0.0173 -0.3372 -0.9181
   30MOL    H9312331   2.601   2.680   7.451 -1.1853  1.0724 -1.4535
   30MOL    H9412332   2.639   2.529   7.382  1.1145  0.2804  0.1122
   30MOL    H9512333   2.543   2.718   7.179 -1.5061  1.1020 -0.1763
   30MOL    H9612334   2.358   2.605   7.381  0.1354  0.2217 -0.0877
   30MOL    H9712335   2.316   2.636   7.214 -1.5061 -0.7433  0.3858
   30MOL    H9812336   2.523   2.917   7.390  1.2911 -0.8782  2.2967
   30MOL    H9912337   2.425   2.847   7.516 -1.5053 -0.6153  0.0195
   30MOL   H10012338   2.373   2.997   7.433  1.0988  0.0002  2.0593
   30MOL   H10112339   2.128   2.765   7.296 -0.0532 -1.9779  1.3896
   30MOL   H10212340   2.184   2.739   7.460  0.6942 -1.7954 -0.9838
   30MOL   H10312341   2.166   2.908   7.400 -0.1647  1.0152 -2.4992
   30MOL   H10412342   2.249   2.865   7.115 -1.1313  3.8985 -1.0860
   30MOL   H10512343   2.328   2.996   7.188  0.1450 -0.2244 -2.1457
   30MOL   H10612344   2.421   2.882   7.114  0.5811  0.0801 -0.1696
   30MOL   C10712345   2.546   2.518   7.139 -0.6583 -0.2352 -0.1844
   30MOL   C10812346   2.466   2.385   7.138 -0.0507 -0.1432  0.1320
   30MOL   C10912347   2.514   2.293   7.023 -0.1222  0.5259 -0.0911
   30MOL   C11012348   2.437   2.300   6.890  0.0149  0.1897 -0.3962
   30MOL   C11112349   2.303   2.224   6.896  0.2863  0.9509  0.3117
   30MOL   C11212350   2.510   2.224   6.784  0.4799  0.6196 -0.2403
   30MOL   C11312351   2.422   2.435   6.833 -0.1971 -0.6205 -0.2287
   30MOL   H11412352   2.647   2.477   7.145 -0.6560 -0.6104 -2.3948
   30MOL   H11512353   2.539   2.563   7.040  1.2390 -0.1240 -0.2911
   30MOL   H11612354   2.360   2.406   7.128  0.4723  2.7805  0.3811
   30MOL   H11712355   2.623   2.293   7.010 -0.0443 -2.1219  0.2714
   30MOL   H11812356   2.498   2.194   7.064 -2.0233  0.6558 -0.4984
   30MOL   H11912357   2.238   2.272   6.969 -0.1878  0.6487  0.0891
   30MOL   H12012358   2.246   2.219   6.803  2.3932  1.3967 -1.0331
   30MOL   H12112359   2.304   2.121   6.934 -0.0475  1.6750  2.3329
   30MOL   H12212360   2.552   2.129   6.815 -1.9704 -0.9596 -1.6170
   30MOL   H12312361   2.604   2.274   6.757  0.3668  0.5533 -0.7526
   30MOL   H12412362   2.457   2.209   6.691  1.1013  2.0159 -0.8474
   30MOL   H12512363   2.357   2.504   6.887  0.1339 -0.2821 -0.2652
   30MOL   H12612364   2.375   2.432   6.734 -1.0468  1.3541  0.0795
   30MOL   H12712365   2.520   2.482   6.828 -0.1736 -0.6787 -0.3204
   30MOL   C12812366   2.473   2.313   7.271  0.3585  0.4115 -0.2192
   30MOL   C12912367   2.355   2.232   7.300 -0.0020 -0.0398  0.8508
   30MOL   C13012368   2.388   2.116   7.393 -0.3031  0.2718 -0.7905
   30MOL   C13112369   2.443   1.982   7.331 -0.2264  0.5743 -0.1812
   30MOL   C13212370   2.582   1.994   7.267 -0.7121 -0.3445 -0.3483
   30MOL   C13312371   2.348   1.916   7.234 -0.1727  0.1903 -0.0526
   30MOL   C13412372   2.470   1.885   7.448  0.1150  0.7718 -0.2885
   30MOL   H13512373   2.487   2.387   7.350  1.2971  1.2246 -1.1255
   30MOL   H13612374   2.568   2.261   7.288  0.6805  1.5808  1.7185
   30MOL   H13712375   2.319   2.184   7.208 -2.1901  0.5146  1.3883
   30MOL   H13812376   2.453   2.151   7.473 -0.4604 -0.2580 -0.4236
   30MOL   H13912377   2.295   2.087   7.443  0.2657 -1.6511 -0.8086
   30MOL   H14012378   2.613   1.892   7.242 -1.7899 -1.1275  1.3607
   30MOL   H14112379   2.656   2.029   7.339  0.4901  2.4682 -2.8515
   30MOL   H14212380   2.589   2.054   7.177 -0.3415 -0.4060 -0.3611
   30MOL   H14312381   2.382   1.814   7.218 -0.3116  0.3674 -1.6251
   30MOL   H14412382   2.350   1.964   7.136 -1.2364  0.0899 -0.1306
   30MOL   H14512383   2.246   1.921   7.272  1.4128  0.2427  4.4196
   30MOL   H14612384   2.381   1.847   7.498  1.2065 -1.8560 -0.2713
   30MOL   H14712385   2.528   1.797   7.422 -0.9904 -0.6195  1.8371
   30MOL   H14812386   2.527   1.936   7.526  0.7698 -0.3815 -0.0123
   30MOL   C14912387   2.240   2.320   7.369  0.2053 -0.7588 -0.6520
   30MOL   C15012388   2.097   2.259   7.388 -0.4315 -0.2849 -0.5565
   30MOL   C15112389   2.026   2.331   7.502  0.3087 -0.6483  0.0567
   30MOL   C15212390   2.047   2.293   7.656  0.5982 -0.5034 -0.0016
   30MOL   C15312391   1.990   2.404   7.749  0.7278  0.4350 -0.5145
   30MOL   C15412392   2.194   2.268   7.688  0.3111 -0.1674 -0.1636
   30MOL   C15512393   1.966   2.160   7.678  0.0317  0.0176  0.3806
   30MOL   H15612394   2.226   2.409   7.308  0.6454 -1.4844 -1.8458
   30MOL   H15712395   2.275   2.374   7.456  2.6849 -0.0121 -2.0635
   30MOL   H15812396   2.095   2.153   7.416  0.0286 -0.6924 -2.0370
   30MOL   H15912397   1.921   2.323   7.473 -0.2166 -1.4056  2.0398
   30MOL   H16012398   2.047   2.437   7.490 -0.2528 -0.5858 -0.3498
   30MOL   H16112399   2.058   2.489   7.741  0.4110  0.8277  0.9573
   30MOL   H16212400   1.890   2.434   7.717  0.9752  0.3490 -1.4029
   30MOL   H16312401   1.991   2.376   0.088 -0.6131 -0.6506 -0.7836
   30MOL   H16412402   2.208   2.235   0.025  0.0760  0.8886  0.2165
   30MOL   H16512403   2.249   2.361   7.679 -2.3524  1.5316  0.6168
   30MOL   H16612404   2.251   2.195   7.629  1.6348 -0.3507  1.3242
   30MOL   H16712405   1.859   2.182   7.673  0.0708 -0.0660 -1.0992
   30MOL   H16812406   1.991   2.083   7.606 -0.4065  0.6475 -0.4610
   30MOL   H16912407   1.973   2.121   0.014 -2.1772 -1.3143  0.0544
   30MOL   C17012408   2.013   2.270   7.252 -0.3645  0.0377  0.4428
   30MOL   C17112409   1.911   2.154   7.233  0.0811 -0.0120  0.7044
   30MOL   C17212410   1.980   2.030   7.168  0.3127 -0.1193 -0.1188
   30MOL   C17312411   1.935   1.890   7.214 -0.4289  0.5794 -0.5108
   30MOL   C17412412   1.786   1.862   7.186 -0.1461  0.1701 -0.3154
   30MOL   C17512413   1.958   1.865   7.365 -0.1996  0.4988 -0.9292
   30MOL   C17612414   2.013   1.780   7.130 -0.3085  0.0078  0.3696
   30MOL   H17712415   2.082   2.266   7.167 -2.0894 -1.2194 -0.9189
   30MOL   H17812416   1.976   2.372   7.248  2.5849  1.1030 -1.5896
   30MOL   H17912417   1.880   2.129   7.335  0.2322 -0.2498  0.6924
   30MOL   H18012418   1.967   2.042   7.060 -0.2575  0.0162 -0.0389
   30MOL   H18112419   2.088   2.043   7.177  0.9108 -3.6551 -1.4680
   30MOL   H18212420   1.720   1.927   7.244  1.4620  2.3096 -0.8576
   30MOL   H18312421   1.760   1.874   7.081 -1.7676  0.0370  0.0548
   30MOL   H18412422   1.758   1.760   7.214 -0.2932 -0.0873 -1.3870
   30MOL   H18512423   1.877   1.911   7.423  0.1675  0.8777 -0.7128
   30MOL   H18612424   1.959   1.759   7.394  0.8012  0.9975  0.9567
   30MOL   H18712425   2.058   1.902   7.386 -0.0534 -0.8128  0.9215
   30MOL   H18812426   1.970   1.777   7.030  1.6776 -1.2796 -0.4780
   30MOL   H18912427   2.121   1.796   7.121 -0.0130 -1.6422  0.8218
   30MOL   H19012428   2.004   1.684   7.181 -0.5988  1.1882  2.5754
   30MOL   C19112429   1.788   2.199   7.151  0.4768 -0.0831  0.6587
   30MOL   C19212430   1.687   2.296   7.220  0.0376  0.8563  0.5144
   30MOL   C19312431   1.605   2.207   7.323 -1.1186 -0.2825  0.5561
   30MOL   C19412432   1.513   2.272   7.430 -0.7910  0.2119  0.5125
   30MOL   C19512433   1.512   2.169   7.546 -0.2034 -0.7976  0.7759
   30MOL   C19612434   1.369   2.300   7.376 -0.3551  0.5748  0.4050
   30MOL   C19712435   1.575   2.395   7.493 -0.2289 -0.2717  0.0790
   30MOL   H19812436   1.819   2.231   7.052  0.5685 -0.3833  0.5909
   30MOL   H19912437   1.729   2.109   7.133  1.5860 -0.4579 -1.1162
   30MOL   H20012438   1.744   2.367   7.281 -0.0568  1.6344 -0.2880
   30MOL   H20112439   1.671   2.143   7.382 -0.8865 -0.9449 -0.4194
   30MOL   H20212440   1.551   2.127   7.274 -2.2223  0.0545  1.1984
   30MOL   H20312441   1.426   2.186   7.611 -0.6233 -1.0008  0.2714
   30MOL   H20412442   1.495   2.067   7.511  1.4331 -0.8202  0.0011
   30MOL   H20512443   1.603   2.181   7.605  1.5088 -2.1343 -1.5091
   30MOL   H20612444   1.351   2.382   7.307 -1.5923  1.0227  1.2435
   30MOL   H20712445   1.320   2.209   7.340  3.6248 -1.7676  0.6924
   30MOL   H20812446   1.301   2.332   7.455 -1.8492 -0.3648 -0.4738
   30MOL   H20912447   1.520   2.415   7.584 -1.4410  1.4717 -1.0007
   30MOL   H21012448   1.678   2.373   7.522 -0.8907 -4.3983 -0.3084
   30MOL   H21112449   1.562   2.474   7.418 -0.2101 -0.8937 -0.5882
   30MOL   C21212450   1.596   2.373   7.111  0.2708  0.0665 -0.6219
   30MOL   C21312451   1.666   2.453   7.000 -0.6361  0.0266 -0.3150
   30MOL   C21412452   1.774   2.547   7.055 -1.1195 -0.0286  0.3113
   30MOL   C21512453   1.884   2.606   6.962  0.5754  0.1247  0.4108
   30MOL   C21612454   1.830   2.721   6.875  0.0676  0.4852 -0.9845
   30MOL   C21712455   1.997   2.654   7.052 -0.4200  0.2347 -0.1662
   30MOL   C21812456   1.942   2.493   6.865 -0.3720  0.3598 -0.0749
   30MOL   H21912457   1.531   2.298   7.063 -2.8204  1.9347  0.4812
   30MOL   H22012458   1.530   2.446   7.156 -1.2008 -1.1361 -0.7621
   30MOL   H22112459   1.711   2.385   6.928  1.1693  0.1290  0.6756
   30MOL   H22212460   1.818   2.493   7.139  0.3167  0.7014  0.0411
   30MOL   H22312461   1.725   2.632   7.103 -2.0851  0.3580 -1.3539
   30MOL   H22412462   1.774   2.801   6.923  0.0157 -1.3793  2.1735
   30MOL   H22512463   1.762   2.674   6.804 -0.0847 -0.4797 -0.2166
   30MOL   H22612464   1.901   2.782   6.819 -0.1365  1.6631  0.0378
   30MOL   H22712465   2.083   2.695   6.999  0.5263  0.6498  1.6736
   30MOL   H22812466   1.967   2.732   7.121 -1.3158 -0.7482  0.5904
   30MOL   H22912467   2.048   2.569   7.098  1.9034  1.1998 -0.9133
   30MOL   H23012468   1.983   2.418   6.932 -0.9676 -0.5155 -0.6935
   30MOL   H23112469   2.030   2.529   6.810  1.8850  0.3754  3.3949
   30MOL   H23212470   1.880   2.429   6.803 -1.7524  0.9077  0.7340
   30MOL   C23312471   1.567   2.522   6.908 -0.2639 -0.7058  0.5070
   30MOL   C23412472   1.426   2.460   6.876 -0.2088 -0.7503 -0.0553
   30MOL   C23512473   1.322   2.576   6.855  0.2296  0.0460 -0.9987
   30MOL   C23612474   1.278   2.655   6.985  0.4993 -0.5689  1.0194
   30MOL   C23712475   1.214   2.565   7.088 -0.6250 -0.5183 -0.1474
   30MOL   C23812476   1.385   2.742   7.050 -0.1002 -0.5751 -0.8075
   30MOL   C23912477   1.152   2.744   6.939  0.5209  0.0730  0.2872
   30MOL   H24012478   1.621   2.531   6.814 -1.9079 -1.2749 -0.5198
   30MOL   H24112479   1.557   2.625   6.941 -1.5451 -0.7426  0.2852
   30MOL   H24212480   1.392   2.407   6.965  0.9405  0.6485  1.2636
   30MOL   H24312481   1.357   2.645   6.779 -1.2281  0.6289 -1.1438
   30MOL   H24412482   1.234   2.519   6.826  1.9409 -2.1798 -2.1004
   30MOL   H24512483   1.283   2.524   7.163  0.6750  1.8893  0.0108
   30MOL   H24612484   1.146   2.493   7.041 -2.1227  0.4833  0.4645
   30MOL   H24712485   1.154   2.625   7.156  1.3462  1.3353 -0.0064
   30MOL   H24812486   1.337   2.803   7.127 -0.2958  1.2139 -2.3089
   30MOL   H24912487   1.464   2.692   7.107 -1.7497 -0.8007  1.3485
   30MOL   H25012488   1.418   2.807   6.969  1.2220 -1.2246 -0.8016
   30MOL   H25112489   1.192   2.828   6.881  0.0924 -1.0806 -1.7450
   30MOL   H25212490   1.064   2.698   6.894  0.7053  0.0826 -0.0829
   30MOL   H25312491   1.105   2.789   7.026 -3.7134  1.3918 -2.5379
   30MOL   C25412492   1.438   2.358   6.765 -0.3678  0.1504 -0.4645
   30MOL   C25512493   1.317   2.274   6.715  0.5422 -1.4219 -0.0272
   30MOL   C25612494   1.362   2.130   6.686  0.2801 -0.1580  0.6839
   30MOL   C25712495   1.363   2.024   6.802  1.3487 -0.1292  0.3341
   30MOL   C25812496   1.432   2.072   6.932  0.2976  0.4326 -0.0586
   30MOL   C25912497   1.434   1.891   6.749  0.2220  0.1400 -0.0011
   30MOL   C26012498   1.210   1.986   6.828 -0.0832 -0.2054  0.4559
   30MOL   H26112499   1.520   2.293   6.795 -3.1554 -2.7464  1.2114
   30MOL   H26212500   1.479   2.403   6.675  0.6159  0.8729  0.3327
   30MOL   H26312501   1.235   2.274   6.787  2.2208  4.3802  2.1533
   30MOL   H26412502   1.300   2.087   6.607  0.9473 -0.3839  0.2836
   30MOL   H26512503   1.465   2.132   6.652  0.4146  0.9591  1.1462
   30MOL   H26612504   1.422   1.990   7.003 -1.4234  0.7577  0.1015
   30MOL   H26712505   1.375   2.159   6.966  1.0866  1.6284 -1.7101
   30MOL   H26812506   1.538   2.096   6.925  0.9569 -1.9067  1.3877
   30MOL   H26912507   1.433   1.817   6.829 -2.8748 -1.0544 -1.0409
   30MOL   H27012508   1.540   1.906   6.733 -0.3336  0.6844 -3.6429
   30MOL   H27112509   1.390   1.833   6.668 -0.9873  1.1906 -0.1222
   30MOL   H27212510   1.207   1.902   6.898  1.2667  0.2067  1.0182
   30MOL   H27312511   1.159   2.069   6.876 -0.8342 -0.1535 -0.4273
   30MOL   H27412512   1.157   1.959   6.737  1.2871 -0.7311 -0.1993
   30MOL   C27512513   1.258   2.341   6.589 -0.0065  0.3171 -0.2774
   30MOL   C27612514   1.118   2.309   6.551  0.4378  0.3873  0.4795
   30MOL   C27712515   1.012   2.399   6.613 -0.1697  0.2086 -0.0145
   30MOL   C27812516   0.896   2.342   6.687  0.6180 -0.1507  0.6794
   30MOL   C27912517   0.944   2.268   6.816 -0.1408  0.4309 -0.6082
   30MOL   C28012518   0.803   2.450   6.749 -0.2560 -0.0415  0.1156
   30MOL   C28112519   0.813   2.242   6.603  0.3360  0.2695  0.3641
   30MOL   H28212520   1.267   2.448   6.608 -0.2733  0.0722  1.2769
   30MOL   H28312521   1.325   2.323   6.505 -1.6179 -0.8512 -1.3531
   30MOL   H28412522   1.090   2.209   6.586  2.2128 -0.7027 -1.1209
   30MOL   H28512523   0.988   2.480   6.544 -0.9318  0.5405  0.6356
   30MOL   H28612524   1.067   2.457   6.687 -1.9840 -0.2022  1.6983
   30MOL   H28712525   0.863   2.238   6.882 -0.9826  0.7587 -1.4684
   30MOL   H28812526   1.006   2.184   6.783  0.3076  0.5552 -0.0641
   30MOL   H28912527   1.008   2.324   6.883 -1.2000  0.3007  0.5239
   30MOL   H29012528   0.769   2.514   6.668 -0.3241  0.6745  0.7098
   30MOL   H29112529   0.856   2.518   6.815  1.2868 -0.5034 -0.6252
   30MOL   H29212530   0.714   2.411   6.798  0.0131  0.1652  0.7880
   30MOL   H29312531   0.724   2.215   6.660 -0.1391  2.6365  0.8188
   30MOL   H29412532   0.870   2.160   6.559 -0.0191 -0.3451  1.0401
   30MOL   H29512533   0.776   2.296   6.515 -0.1297  0.1726  0.4966
   30MOL   C29612534   1.104   2.303   6.403  0.1126 -0.2895  0.5158
   30MOL   C29712535   1.159   2.186   6.322  0.2131 -1.0347 -1.1776
   30MOL   C29812536   1.202   2.212   6.174 -0.9238 -0.5164 -0.2699
   30MOL   C29912537   1.346   2.248   6.135 -0.0585 -0.5813 -0.1184
   30MOL   C30012538   1.365   2.216   5.981  0.2925  0.4436  0.0782
   30MOL   C30112539   1.386   2.397   6.160  0.1918  0.4052 -0.6689
   30MOL   C30212540   1.457   2.163   6.207  0.4393  0.1684  0.3073
   30MOL   H30312541   1.150   2.398   6.376  0.3227 -0.4698  0.2299
   30MOL   H30412542   1.005   2.325   6.364  0.0531  0.5569  1.1427
   30MOL   H30512543   1.249   2.170   6.383  0.1661  2.2742 -0.1304
   30MOL   H30612544   1.151   2.299   6.133 -1.8397 -1.2769 -0.7630
   30MOL   H30712545   1.154   2.138   6.110  1.1425  0.2640 -2.7947
   30MOL   H30812546   1.308   2.290   5.925  0.3717 -0.0508 -0.6501
   30MOL   H30912547   1.469   2.223   5.951 -0.0386  0.4386 -1.0635
   30MOL   H31012548   1.334   2.112   5.973  1.1387  0.1617  0.4026
   30MOL   H31112549   1.483   2.417   6.116  1.4521 -0.8831  1.4137
   30MOL   H31212550   1.314   2.468   6.119  0.0778  0.2079 -0.8119
   30MOL   H31312551   1.391   2.410   6.268  1.5790  0.7259 -0.7617
   30MOL   H31412552   1.485   2.195   6.307  0.7297 -1.3945  0.7470
   30MOL   H31512553   1.431   2.058   6.219 -0.0266  0.1965 -0.4017
   30MOL   H31612554   1.553   2.170   6.156 -0.9616 -1.9435 -2.8425
   30MOL   C31712555   1.097   2.052   6.346  0.3767  0.5527 -0.1527
   30MOL   C31812556   0.986   1.990   6.256  0.4237  0.5943 -0.0084
   30MOL   C31912557   0.924   1.863   6.315 -0.2830 -0.3126 -0.1883
   30MOL   C32012558   0.987   1.728   6.270 -0.2742  0.4649  0.7866
   30MOL   C32112559   0.942   1.629   6.374  0.2505  0.1452  0.0460
   30MOL   C32212560   1.138   1.731   6.262  0.1473 -0.0228  0.4008
   30MOL   C32312561   0.934   1.692   6.128 -0.1231  0.3155 -0.0541
   30MOL   H32412562   1.182   1.984   6.348 -0.1754 -0.1435  3.8012
   30MOL   H32512563   1.055   2.048   6.446 -1.1672 -0.0379 -0.8054
   30MOL   H32612564   1.024   1.965   6.157  0.5794  0.3078  0.1243
   30MOL   H32712565   0.819   1.849   6.288  0.1686 -3.9886 -0.2516
   30MOL   H32812566   0.907   1.869   6.423 -0.6985  0.7933 -0.3110
   30MOL   H32912567   0.981   1.530   6.350 -0.0838 -0.0235  0.2093
   30MOL   H33012568   0.834   1.619   6.383  0.4372 -1.1419  0.8875
   30MOL   H33112569   0.969   1.663   6.474 -1.5840  0.0310  0.5856
   30MOL   H33212570   1.172   1.813   6.199 -2.9282  0.8302 -0.2594
   30MOL   H33312571   1.179   1.758   6.359  1.6364 -1.2149  0.1189
   30MOL   H33412572   1.190   1.640   6.233  1.7793  0.0134  3.0046
   30MOL   H33512573   0.831   1.656   6.129  0.5655 -1.7642  3.7472
   30MOL   H33612574   0.988   1.601   6.100 -2.6564 -1.0399 -0.6611
   30MOL   H33712575   0.944   1.775   6.058 -1.2168  0.0139 -0.5779
   30MOL   C33812576   0.874   2.092   6.244 -0.4246 -0.4526 -0.1398
   30MOL   C33912577   0.776   2.064   6.121 -0.1337  0.2214  0.5672
   30MOL   C34012578   0.828   2.146   6.004  0.7813 -0.1451 -0.0255
   30MOL   C34112579   0.780   2.139   5.847  0.2250  0.1722 -0.4781
   30MOL   C34212580   0.861   2.238   5.764  0.7843  0.1257  0.0223
   30MOL   C34312581   0.810   1.997   5.803  0.2834  0.2537 -0.8289
   30MOL   C34412582   0.630   2.164   5.816  0.1658  0.4149 -0.0893
   30MOL   H34512583   0.915   2.192   6.244  0.1829 -0.6831 -1.1749
   30MOL   H34612584   0.814   2.074   6.333 -1.8149  3.5195 -0.1771
   30MOL   H34712585   0.783   1.960   6.088  0.0339  1.2447 -2.7609
   30MOL   H34812586   0.933   2.119   6.001  0.5168 -1.6339  2.2106
   30MOL   H34912587   0.835   2.249   6.039  0.9877 -0.5478  1.1443
   30MOL   H35012588   0.846   2.244   5.656  0.3271  0.6658  0.1133
   30MOL   H35112589   0.864   2.336   5.812  0.7634  1.0569 -1.7989
   30MOL   H35212590   0.966   2.208   5.759  0.3246 -1.5605  0.0950
   30MOL   H35312591   0.759   1.917   5.857 -0.8851  1.6625  0.2109
   30MOL   H35412592   0.796   1.976   5.697  0.6117 -1.8858 -0.4771
   30MOL   H35512593   0.917   2.000   5.825  0.1476  2.2442 -0.3375
   30MOL   H35612594   0.606   2.144   5.712  0.0900 -2.2370  0.3886
   30MOL   H35712595   0.550   2.117   5.874 -1.1396  0.2358 -1.9941
   30MOL   H35812596   0.607   2.268   5.838 -2.1581  0.2005 -1.2845
   30MOL   C35912597   0.625   2.078   6.162 -0.2455 -0.1787 -0.7169
   30MOL   C36012598   0.583   2.207   6.245 -0.3132  0.3175  0.5292
   30MOL   C36112599   0.430   2.207   6.253 -0.0561 -0.2121 -0.0026
   30MOL   C36212600   0.359   2.100   6.344 -0.2045  0.6571 -0.0934
   30MOL   C36312601   0.298   1.982   6.257 -0.0629 -0.0494  0.2176
   30MOL   C36412602   0.241   2.173   6.407 -0.5158 -0.2355 -0.4392
   30MOL   C36512603   0.453   2.026   6.451 -0.0054  0.2665  0.3849
   30MOL   H36612604   0.585   1.982   6.194 -1.9831  0.9831  0.6790
   30MOL   H36712605   0.571   2.098   6.070 -3.0022  0.2236  0.9266
   30MOL   H36812606   0.632   2.185   6.340 -1.9664 -2.3074  0.8113
   30MOL   H36912607   0.402   2.306   6.290  0.5616 -0.7652  2.0315
   30MOL   H37012608   0.384   2.205   6.155 -0.8443 -2.8950  0.3734
   30MOL   H37112609   0.274   1.889   6.309 -3.2614  0.0348 -1.0124
   30MOL   H37212610   0.215   2.003   6.190  0.8009 -1.1623 -1.2457
   30MOL   H37312611   0.375   1.959   6.184 -1.3158 -2.7910 -0.3338
   30MOL   H37412612   0.173   2.195   6.325 -1.1729 -3.6534 -0.8831
   30MOL   H37512613   0.275   2.263   6.458 -0.3656 -1.1876  1.1756
   30MOL   H37612614   0.180   2.112   6.474  0.0375 -0.5691 -0.2316
   30MOL   H37712615   0.535   1.975   6.399 -1.4649 -0.9371 -0.7774
   30MOL   H37812616   0.400   1.944   6.499 -0.7578  0.8016  0.4733
   30MOL   H37912617   0.482   2.090   6.535  1.7377  1.5015 -1.0987
   30MOL   C38012618   0.643   2.350   6.188 -0.3861 -0.1830 -0.1073
   30MOL   C38112619   0.594   2.488   6.246 -0.0060 -0.1250 -0.3492
   30MOL   C38212620   0.681   2.605   6.194  0.2424  0.2476  0.8040
   30MOL   C38312621   0.658   2.657   6.055 -0.0051  0.6269  0.0106
   30MOL   C38412622   0.665   2.551   5.938  0.4011 -0.0564 -0.3126
   30MOL   C38512623   0.756   2.770   6.019 -0.7934  0.0805 -0.2941
   30MOL   C38612624   0.524   2.731   6.048 -0.0021 -0.1239 -0.3027
   30MOL   H38712625   0.617   2.348   6.082  0.7850 -1.0063 -0.3948
   30MOL   H38812626   0.751   2.346   6.197 -0.4179 -0.8446 -0.0126
   30MOL   H38912627   0.498   2.513   6.201 -1.4708  1.5037  3.4135
   30MOL   H39012628   0.662   2.689   6.261 -0.4917  0.7937 -0.0722
   30MOL   H39112629   0.783   2.581   6.225  0.0216 -1.0729  0.5506
   30MOL   H39212630   0.676   2.590   5.837  1.2922 -0.3718 -0.3389
   30MOL   H39312631   0.748   2.484   5.963  1.8021  1.3831 -1.0148
   30MOL   H39412632   0.571   2.495   5.939  1.1842 -1.3830 -0.1542
   30MOL   H39512633   0.747   2.826   5.927 -1.4344 -0.8669 -0.8139
   30MOL   H39612634   0.859   2.734   6.021  0.1412  2.6221 -1.8081
   30MOL   H39712635   0.753   2.846   6.097 -1.4641 -1.2829  1.0401
   30MOL   H39812636   0.507   2.783   5.954  3.6041  0.1661 -0.8691
   30MOL   H39912637   0.515   2.802   6.130  1.7418 -1.6884  1.2916
   30MOL   H40012638   0.437   2.668   6.065  1.3577 -2.0678 -0.4222
   30MOL   C40112639   0.585   2.503   6.401 -0.4995 -0.2383  0.1001
   30MOL   C40212640   0.461   2.587   6.441 -0.1468 -0.4085 -0.3397
   30MOL   C40312641   0.424   2.572   6.590 -0.2625  0.8282  0.1976
   30MOL   C40412642   0.315   2.669   6.636  0.3134 -0.1750 -0.0305
   30MOL   C40512643   0.277   2.631   6.780  0.0671  0.0223  0.2792
   30MOL   C40612644   0.192   2.665   6.551 -0.1033  0.0548  0.2036
   30MOL   C40712645   0.360   2.821   6.626 -0.0792 -0.1840 -0.2114
   30MOL   H40812646   0.559   2.408   6.448  0.2062 -0.5198 -0.0875
   30MOL   H40912647   0.677   2.530   6.453 -1.8945 -1.6614  3.4120
   30MOL   H41012648   0.478   2.690   6.409  2.8564 -0.5961  0.5532
   30MOL   H41112649   0.514   2.584   6.649  1.7576 -1.8173 -2.1974
   30MOL   H41212650   0.390   2.473   6.619  1.7008  0.0861  0.0307
   30MOL   H41312651   0.364   2.628   6.845  0.5190  1.1404 -0.2589
   30MOL   H41412652   0.240   2.529   6.780  1.1963 -0.4014  0.8791
   30MOL   H41512653   0.214   2.702   6.833  0.1908 -0.4471  1.0571
   30MOL   H41612654   0.154   2.564   6.567  1.5107 -0.7347 -0.8439
   30MOL   H41712655   0.214   2.675   6.445 -2.0160  0.5160 -0.1853
   30MOL   H41812656   0.114   2.733   6.586 -0.1263  1.0874 -1.7592
   30MOL   H41912657   0.385   2.849   6.524 -1.5912  0.8270 -0.3087
   30MOL   H42012658   0.279   2.885   6.660  1.6029  2.3627 -0.7747
   30MOL   H42112659   0.453   2.832   6.683 -0.6478 -1.2621  0.9330
   30MOL   H42212660   0.381   2.549   6.378 -1.6660  0.2805  1.1396
   31MOL     C112661   6.717   5.926   0.763 -0.0563 -0.9812  0.4315
   31MOL     C212662   6.603   5.840   0.825 -0.3746 -0.3670 -0.3832
   31MOL     C312663   6.579   5.716   0.728 -0.0920 -0.3678 -0.5296
   31MOL     C412664   6.618   5.573   0.780  0.0408 -0.5082  0.7138
   31MOL     C512665   6.766   5.574   0.837  0.2109 -0.0080  0.4158
   31MOL     C612666   6.520   5.522   0.888 -0.0243  0.3847  0.0381
   31MOL     C712667   6.613   5.467   0.665  0.3641 -0.4214  0.4205
   31MOL     H812668   6.687   5.965   0.666  0.4817 -1.6103  0.0015
   31MOL     H912669   6.746   6.003   0.835  1.1024 -0.3621 -0.6926
   31MOL    H1012670   6.649   5.809   0.919 -1.5587  0.5584  0.5118
   31MOL    H1112671   6.635   5.738   0.638 -1.0344  0.8363 -0.8410
   31MOL    H1212672   6.473   5.712   0.700 -0.3200  1.5853 -0.0432
   31MOL    H1312673   6.773   5.634   0.927  1.7318  0.3123  0.1061
   31MOL    H1412674   6.841   5.622   0.774  0.0350 -1.3538 -0.8493
   31MOL    H1512675   6.797   5.478   0.876 -0.1741 -0.7758 -1.1394
   31MOL    H1612676   6.541   5.595   0.966 -1.1114  0.0410  0.6663
   31MOL    H1712677   6.417   5.536   0.854 -0.5679  2.8585  2.4486
   31MOL    H1812678   6.523   5.415   0.910 -2.3057  0.1832 -0.5114
   31MOL    H1912679   6.629   5.364   0.698  1.3569 -0.1612  0.7741
   31MOL    H2012680   6.684   5.484   0.583  0.8967 -0.4824  0.8688
   31MOL    H2112681   6.516   5.459   0.616 -0.0054  0.9217  0.9257
   31MOL    H2212682   6.810   5.872   0.750 -0.1087 -0.7382 -0.9878
   31MOL    C2312683   6.483   5.928   0.825  0.2523 -0.2775  0.0771
   31MOL    C2412684   6.353   5.887   0.901 -0.1195 -0.3793  0.1208
   31MOL    C2512685   6.231   5.976   0.861 -0.3145  0.3351  0.1113
   31MOL    C2612686   6.145   5.926   0.739 -0.5817  0.3259 -0.5361
   31MOL    C2712687   6.222   5.910   0.609 -0.6004 -0.0745 -0.4072
   31MOL    C2812688   6.061   5.798   0.779 -0.0300  0.3557  0.2371
   31MOL    C2912689   6.051   6.042   0.701  0.5473  0.0639 -0.1114
   31MOL    H3012690   6.509   6.031   0.852  1.2218 -0.5451  0.1778
   31MOL    H3112691   6.465   5.945   0.719 -0.5864  1.8391  0.5274
   31MOL    H3212692   6.335   5.784   0.871  0.4622 -0.7766  1.1204
   31MOL    H3312693   6.272   6.074   0.838  1.1150  0.0888  1.5145
   31MOL    H3412694   6.162   5.998   0.942  0.0091 -0.1958  0.5384
   31MOL    H3512695   6.290   5.832   0.642  1.0452  2.6161  2.8422
   31MOL    H3612696   6.171   5.869   0.522 -1.1105  1.6775 -0.9625
   31MOL    H3712697   6.281   5.996   0.578  0.3513 -0.3960  0.4742
   31MOL    H3812698   5.989   5.762   0.706 -0.6578  0.2355  0.9135
   31MOL    H3912699   6.125   5.715   0.809 -0.0700  0.3803  0.3925
   31MOL    H4012700   6.007   5.822   0.871 -1.2863 -2.2225  0.2033
   31MOL    H4112701   5.990   6.078   0.784  1.7733  1.3882  0.2408
   31MOL    H4212702   5.980   6.008   0.626  1.0361 -1.4985  0.1162
   31MOL    H4312703   6.121   6.117   0.664  2.1105 -1.7094 -0.8217
   31MOL    C4412704   6.371   5.893   1.053 -0.4778  0.0443 -0.1366
   31MOL    C4512705   6.260   5.828   1.149 -0.3570 -0.4142  0.5783
   31MOL    C4612706   6.260   5.889   1.287 -0.2275 -0.6910 -0.4701
   31MOL    C4712707   6.162   6.012   1.310  0.0242 -0.0060  0.6044
   31MOL    C4812708   6.165   6.050   1.454  0.0812  0.0453  0.1941
   31MOL    C4912709   6.014   5.983   1.279 -0.1102 -0.1040  0.2471
   31MOL    C5012710   6.208   6.144   1.230  0.4749  0.5728 -0.6978
   31MOL    H5112711   6.466   5.847   1.077 -0.9537 -1.0698 -0.3468
   31MOL    H5212712   6.375   6.001   1.069 -0.8998  0.1092 -0.4476
   31MOL    H5312713   6.171   5.854   1.092 -0.3470  1.6393  1.4712
   31MOL    H5412714   6.363   5.908   1.317 -1.1500  1.3368  1.5305
   31MOL    H5512715   6.222   5.813   1.355  0.5738 -1.1173 -0.5008
   31MOL    H5612716   6.152   5.961   1.516  1.4969 -1.4719 -1.6322
   31MOL    H5712717   6.083   6.118   1.480 -0.0418 -0.2935  0.7080
   31MOL    H5812718   6.263   6.093   1.478 -0.4427  2.1194 -1.2488
   31MOL    H5912719   5.990   5.893   1.335 -0.5024 -0.3234 -0.2630
   31MOL    H6012720   5.946   6.065   1.301  0.3610  0.2486  0.3881
   31MOL    H6112721   5.998   5.957   1.174  1.6068 -1.2612  0.2588
   31MOL    H6212722   6.308   6.165   1.269  0.5659 -1.2884  0.1427
   31MOL    H6312723   6.201   6.142   1.122  0.5107  2.3707 -0.7434
   31MOL    H6412724   6.150   6.225   1.273 -1.5524  0.1805 -2.6055
   31MOL    C6512725   6.279   5.677   1.149 -0.0412 -0.8358 -0.8037
   31MOL    C6612726   6.163   5.580   1.192  0.3010  0.5832  0.5459
   31MOL    C6712727   6.193   5.438   1.138  0.0070 -0.1119 -0.0521
   31MOL    C6812728   6.240   5.329   1.243  0.0692 -0.6346 -0.2879
   31MOL    C6912729   6.369   5.360   1.321 -0.6961  0.3617  0.8041
   31MOL    C7012730   6.124   5.296   1.344  0.3365 -0.7906  0.2111
   31MOL    C7112731   6.272   5.203   1.168 -0.0587 -0.2440 -0.6187
   31MOL    H7212732   6.296   5.650   1.045  0.5503  1.3426 -1.2972
   31MOL    H7312733   6.367   5.639   1.200 -0.0572 -0.7656 -0.7258
   31MOL    H7412734   6.165   5.575   1.301 -1.9407 -1.3866  0.5343
   31MOL    H7512735   6.274   5.450   1.066 -0.5391 -0.0913 -0.6598
   31MOL    H7612736   6.104   5.405   1.084 -0.3572  1.5618 -0.5336
   31MOL    H7712737   6.400   5.289   1.397 -0.0636 -1.0770 -0.7677
   31MOL    H7812738   6.455   5.372   1.255 -3.5974 -0.3468 -3.2811
   31MOL    H7912739   6.369   5.460   1.363 -0.9990  1.1651 -1.0741
   31MOL    H8012740   6.110   5.374   1.418 -0.7409 -0.8323  0.0493
   31MOL    H8112741   6.148   5.202   1.394 -0.8017 -1.0798  0.2111
   31MOL    H8212742   6.028   5.287   1.294  1.0797 -0.7483 -1.2787
   31MOL    H8312743   6.329   5.131   1.228 -1.6584 -1.4654 -0.5508
   31MOL    H8412744   6.332   5.228   1.081 -1.7235  2.2786 -1.0936
   31MOL    H8512745   6.187   5.144   1.135  0.5877 -1.0542 -0.8531
   31MOL    C8612746   6.018   5.632   1.148  0.7220 -0.9017  0.0788
   31MOL    C8712747   5.886   5.552   1.196  0.0268 -0.0674 -0.2541
   31MOL    C8812748   5.758   5.590   1.115 -0.2418  0.2545  0.0736
   31MOL    C8912749   5.732   5.519   0.978 -0.7111 -0.0721  0.0607
   31MOL    C9012750   5.767   5.375   0.973 -0.2065  0.5614  0.1322
   31MOL    C9112751   5.806   5.594   0.869 -0.2365 -0.7539  1.1061
   31MOL    C9212752   5.581   5.537   0.946  0.6417 -0.2235  0.6912
   31MOL    H9312753   6.032   5.640   1.040 -0.9112 -0.3893 -0.1090
   31MOL    H9412754   5.998   5.735   1.177  0.2851 -1.0889  0.4486
   31MOL    H9512755   5.906   5.447   1.174 -2.2164 -0.7787  0.8486
   31MOL    H9612756   5.757   5.699   1.109 -1.9950  0.2945  0.8003
   31MOL    H9712757   5.673   5.554   1.172  0.8612 -1.2159  0.8366
   31MOL    H9812758   5.725   5.313   1.052 -0.9216 -1.0215 -1.4765
   31MOL    H9912759   5.875   5.363   0.984  0.0780  1.0568 -1.8776
   31MOL   H10012760   5.736   5.322   0.883  1.1315 -0.7048  0.3833
   31MOL   H10112761   5.795   5.541   0.775  0.4491  0.2911  0.4350
   31MOL   H10212762   5.780   5.697   0.849  2.8138 -0.0774  0.3440
   31MOL   H10312763   5.913   5.583   0.889  0.1075 -0.8935 -0.7410
   31MOL   H10412764   5.518   5.475   1.009 -0.8250 -0.2657 -0.7974
   31MOL   H10512765   5.533   5.634   0.962 -2.2673 -1.7444  1.5169
   31MOL   H10612766   5.563   5.498   0.846 -0.6795  1.9590  0.0589
   31MOL   C10712767   5.869   5.573   1.349 -0.5733 -0.8263  0.3634
   31MOL   C10812768   5.758   5.494   1.427 -0.1003 -0.5940  0.6402
   31MOL   C10912769   5.736   5.345   1.391  0.1995 -0.6594 -0.1659
   31MOL   C11012770   5.597   5.283   1.383 -0.2318 -0.7091  0.4053
   31MOL   C11112771   5.508   5.354   1.283 -0.2284  0.7293  0.3075
   31MOL   C11212772   5.533   5.281   1.520 -0.6386 -0.2427  0.2228
   31MOL   C11312773   5.622   5.144   1.334 -0.5240  0.6672  0.0440
   31MOL   H11412774   5.862   5.679   1.373 -1.5693 -1.0449  1.0464
   31MOL   H11512775   5.961   5.538   1.396  0.8151  0.1251 -1.5874
   31MOL   H11612776   5.664   5.545   1.404  0.0188 -1.0948 -0.9829
   31MOL   H11712777   5.788   5.323   1.298 -0.7389  1.3529 -1.1996
   31MOL   H11812778   5.803   5.290   1.456  1.1807  0.4172 -0.2474
   31MOL   H11912779   5.423   5.292   1.254 -1.0217  1.1799  1.6209
   31MOL   H12012780   5.474   5.451   1.319 -0.5208  1.0111 -0.7160
   31MOL   H12112781   5.569   5.364   1.193  1.2870 -1.5037  1.0234
   31MOL   H12212782   5.603   5.259   1.601 -0.3614 -0.4127 -0.0650
   31MOL   H12312783   5.446   5.216   1.518 -1.1701  0.4801 -0.3067
   31MOL   H12412784   5.488   5.379   1.541  2.0321  1.0075  0.3048
   31MOL   H12512785   5.530   5.087   1.344 -1.8500  2.3721 -1.9559
   31MOL   H12612786   5.700   5.087   1.385 -0.9168 -0.5871 -0.7413
   31MOL   H12712787   5.663   5.139   1.233  1.3417 -2.2949  0.8976
   31MOL   C12812788   5.759   5.507   1.583 -0.3486 -0.3699 -0.2944
   31MOL   C12912789   5.804   5.646   1.644  0.3157 -0.1048 -0.3900
   31MOL   C13012790   5.702   5.758   1.610  0.1496 -0.8722 -1.2930
   31MOL   C13112791   5.701   5.891   1.669 -0.0679 -0.8156  0.1434
   31MOL   C13212792   5.836   5.965   1.642  0.5115  0.2230  0.4795
   31MOL   C13312793   5.668   5.893   1.825  0.2569 -0.1136  0.1516
   31MOL   C13412794   5.589   5.969   1.588  0.1210  0.1825  0.3654
   31MOL   H13512795   5.839   5.437   1.607  0.5104  0.4642 -0.6815
   31MOL   H13612796   5.667   5.476   1.632  1.0930 -3.1176  0.7628
   31MOL   H13712797   5.897   5.674   1.593  1.2796 -0.3647  1.2025
   31MOL   H13812798   5.720   5.768   1.503  3.2888  0.3104 -0.7206
   31MOL   H13912799   5.604   5.715   1.628  1.0925 -2.8128 -0.6070
   31MOL   H14012800   5.883   5.949   1.545  2.4131  1.4308  1.1716
   31MOL   H14112801   5.902   5.932   1.722  0.0849  1.3689  1.3233
   31MOL   H14212802   5.833   6.074   1.650 -0.8209  0.2047  0.4247
   31MOL   H14312803   5.653   5.987   1.877  0.4459 -2.1906  4.1154
   31MOL   H14412804   5.762   5.867   1.873  0.9632 -2.4345 -2.3360
   31MOL   H14512805   5.591   5.819   1.848  1.1902 -0.5000  2.0862
   31MOL   H14612806   5.498   5.912   1.570  0.8555 -1.3663  1.3842
   31MOL   H14712807   5.580   6.055   1.656 -0.4656  0.7980 -0.4784
   31MOL   H14812808   5.623   6.029   1.504  0.8182  0.2930  0.7215
   31MOL   C14912809   5.834   5.632   1.792  0.0228  0.5780  0.4819
   31MOL   C15012810   5.943   5.536   1.835 -0.7503  0.2746 -0.2593
   31MOL   C15112811   6.076   5.598   1.889 -0.1425 -0.8559 -0.4246
   31MOL   C15212812   6.202   5.639   1.805  0.4305  0.7588 -0.8589
   31MOL   C15312813   6.278   5.740   1.883 -0.2229 -0.2609  0.0945
   31MOL   C15412814   6.175   5.707   1.665  0.0352 -0.1608  0.7173
   31MOL   C15512815   6.299   5.520   1.791 -0.2761 -0.7837  0.4023
   31MOL   H15612816   5.748   5.637   1.858 -0.1251 -1.2006  0.4283
   31MOL   H15712817   5.887   5.724   1.816  0.8184  0.1343  0.4322
   31MOL   H15812818   5.986   5.500   1.741  0.6351 -1.3429  0.9592
   31MOL   H15912819   6.121   5.540   1.969 -0.5590  1.6147  1.6883
   31MOL   H16012820   6.047   5.680   1.955 -0.2449  0.7646 -2.4346
   31MOL   H16112821   6.345   5.809   1.832  0.9370 -1.7752 -0.4498
   31MOL   H16212822   6.203   5.812   1.916  0.6592  0.7155 -0.0126
   31MOL   H16312823   6.323   5.696   1.972 -0.2161  1.1668  0.8179
   31MOL   H16412824   6.129   5.804   1.681 -0.4655 -0.3499  0.4749
   31MOL   H16512825   6.110   5.645   1.602 -1.1171  0.8738  0.8658
   31MOL   H16612826   6.265   5.732   1.609 -0.6726 -1.3628 -1.0376
   31MOL   H16712827   6.373   5.551   1.717 -1.4578 -4.1367 -2.3370
   31MOL   H16812828   6.351   5.495   1.883 -1.9797 -0.3959  1.5008
   31MOL   H16912829   6.254   5.437   1.736 -0.1571 -0.4906 -0.1313
   31MOL   C17012830   5.889   5.415   1.917 -0.1116 -0.1318  0.5150
   31MOL   C17112831   5.990   5.309   1.963  0.4951 -0.6254 -0.7501
   31MOL   C17212832   5.930   5.164   1.929 -0.3771 -0.1548  0.0022
   31MOL   C17312833   5.963   5.099   1.795 -0.2650  0.1133 -0.2653
   31MOL   C17412834   5.861   4.980   1.780  0.4790 -0.1211  0.5367
   31MOL   C17512835   6.110   5.052   1.790  0.0893 -0.0676 -0.8178
   31MOL   C17612836   5.937   5.194   1.671 -0.0506 -0.0459 -0.0801
   31MOL   H17712837   5.821   5.370   1.845 -0.3403 -1.5547  1.5963
   31MOL   H17812838   5.829   5.450   2.002  1.5060 -0.3848  1.7892
   31MOL   H17912839   6.088   5.316   1.915  0.5564 -3.0663 -1.0300
   31MOL   H18012840   5.957   5.089   2.003  0.2393  0.5996  0.5549
   31MOL   H18112841   5.822   5.174   1.939 -0.9560 -4.1283 -1.5809
   31MOL   H18212842   5.865   4.893   1.846  1.7123 -2.4850 -2.5429
   31MOL   H18312843   5.756   5.008   1.791  0.7223  0.2561  2.0443
   31MOL   H18412844   5.865   4.928   1.684 -1.7221 -0.8853  0.8319
   31MOL   H18512845   6.172   5.140   1.801  1.8781 -1.3833 -0.0697
   31MOL   H18612846   6.131   4.980   1.869  0.8821 -1.2284 -2.0405
   31MOL   H18712847   6.121   5.013   1.688  0.7302 -0.5986 -0.5455
   31MOL   H18812848   5.836   5.232   1.664 -0.0949 -0.4340 -1.7773
   31MOL   H18912849   6.002   5.282   1.666 -0.3291  0.4313  3.5713
   31MOL   H19012850   5.948   5.142   1.576 -0.1483  0.8380 -0.5830
   31MOL   C19112851   5.995   5.320   2.127 -0.8681 -0.4413 -0.9632
   31MOL   C19212852   6.104   5.249   2.209 -0.0083  0.0055 -0.0092
   31MOL   C19312853   6.062   5.226   2.359 -0.0258 -0.2607  0.0962
   31MOL   C19412854   5.965   5.113   2.404  0.0859 -0.4350  0.3281
   31MOL   C19512855   5.963   5.116   2.559 -0.2445 -0.8705 -0.1202
   31MOL   C19612856   6.021   4.980   2.353  0.0809  0.3540  0.0263
   31MOL   C19712857   5.824   5.126   2.357  0.7236 -0.5273  0.1707
   31MOL   H19812858   6.005   5.428   2.144 -0.3375 -0.7599  0.8026
   31MOL   H19912859   5.897   5.309   2.173 -2.0667  1.9491 -2.8223
   31MOL   H20012860   6.125   5.149   2.172  1.7820 -0.0623  1.0704
   31MOL   H20112861   6.008   5.313   2.396 -1.5015 -0.2328 -2.0701
   31MOL   H20212862   6.152   5.220   2.421  0.4997  0.6410 -0.5684
   31MOL   H20312863   6.059   5.104   2.609 -0.1886 -0.2931 -0.0907
   31MOL   H20412864   5.915   5.204   2.601  0.5017 -0.4308 -0.1910
   31MOL   H20512865   5.902   5.031   2.592  0.4903 -1.1540  0.5155
   31MOL   H20612866   5.985   4.884   2.390 -0.9917  0.9981  0.6652
   31MOL   H20712867   6.026   4.974   2.244  3.4334 -0.9574  0.1878
   31MOL   H20812868   6.125   4.976   2.386 -0.0431 -2.5149  0.2131
   31MOL   H20912869   5.815   5.140   2.249  1.9369  0.0575  0.1304
   31MOL   H21012870   5.772   5.038   2.394 -1.9354  1.9457  2.5321
   31MOL   H21112871   5.781   5.217   2.398  0.1562 -1.3648  1.4529
   31MOL   C21212872   6.240   5.319   2.202 -0.0408  0.2424 -0.7941
   31MOL   C21312873   6.368   5.225   2.217 -0.5135 -0.2123 -0.7807
   31MOL   C21412874   6.488   5.313   2.254 -0.1679 -0.3173  0.0285
   31MOL   C21512875   6.529   5.333   2.403 -0.2675 -0.8274  1.0357
   31MOL   C21612876   6.581   5.202   2.466  0.4442  0.1770 -0.3301
   31MOL   C21712877   6.655   5.434   2.405 -0.1223  0.4935 -0.1835
   31MOL   C21812878   6.420   5.390   2.492 -0.3707  0.4081 -0.0584
   31MOL   H21912879   6.240   5.379   2.111  2.7732 -1.3446 -1.9370
   31MOL   H22012880   6.234   5.399   2.275 -1.9362 -1.6820  1.2282
   31MOL   H22112881   6.333   5.157   2.295 -0.1555 -1.9824 -2.1351
   31MOL   H22212882   6.481   5.407   2.199  1.2242  0.5858  1.3608
   31MOL   H22312883   6.577   5.271   2.207  1.2443  2.6270 -0.0116
   31MOL   H22412884   6.621   5.236   2.562 -2.3259  0.9402  0.6212
   31MOL   H22512885   6.651   5.157   2.396 -0.7942  1.6912 -2.5975
   31MOL   H22612886   6.495   5.136   2.474 -0.0142  0.6601 -1.1516
   31MOL   H22712887   6.682   5.448   2.510 -1.1333  0.9989  0.0193
   31MOL   H22812888   6.741   5.391   2.355 -0.3340  0.7566 -0.7740
   31MOL   H22912889   6.622   5.526   2.356  0.5794 -0.0545 -1.6968
   31MOL   H23012890   6.446   5.405   2.596  0.7707 -1.4720 -0.0556
   31MOL   H23112891   6.329   5.333   2.510  0.2453  0.4042  3.3231
   31MOL   H23212892   6.391   5.487   2.450  0.4386 -0.0140 -1.6206
   31MOL   C23312893   6.404   5.144   2.091  0.2699 -0.3081 -0.2849
   31MOL   C23412894   6.472   5.008   2.117  0.5884 -0.4377 -0.1400
   31MOL   C23512895   6.367   4.905   2.154 -0.1788 -0.0670  0.2044
   31MOL   C23612896   6.398   4.805   2.257 -0.3405  0.1283 -0.4044
   31MOL   C23712897   6.432   4.864   2.398  0.9770  0.4204 -1.1642
   31MOL   C23812898   6.267   4.720   2.280  0.3065 -0.4501 -0.2504
   31MOL   C23912899   6.520   4.718   2.220 -0.3230  0.1336  0.1937
   31MOL   H24012900   6.448   5.209   2.015 -0.6894  1.1237  0.3474
   31MOL   H24112901   6.313   5.109   2.043  0.0510  0.2048 -0.2471
   31MOL   H24212902   6.533   5.018   2.206 -1.0841 -1.3599  1.1358
   31MOL   H24312903   6.271   4.954   2.169  0.5821  2.2790 -2.2543
   31MOL   H24412904   6.339   4.858   2.060 -1.0150 -0.8473  0.8284
   31MOL   H24512905   6.530   4.912   2.400  1.0636  0.2089  0.4571
   31MOL   H24612906   6.457   4.782   2.465 -2.0300 -0.7077 -1.3619
   31MOL   H24712907   6.359   4.930   2.444  1.2362 -0.1901  0.1301
   31MOL   H24812908   6.205   4.694   2.194  1.0424 -1.4134 -0.4974
   31MOL   H24912909   6.296   4.623   2.318  0.5483 -0.2901 -0.0233
   31MOL   H25012910   6.189   4.762   2.343  0.1215 -0.9437 -0.1477
   31MOL   H25112911   6.610   4.779   2.210 -0.6072  0.4884 -0.2015
   31MOL   H25212912   6.540   4.641   2.295  0.9557 -0.7404 -1.0125
   31MOL   H25312913   6.498   4.678   2.121  3.1389 -1.0345 -0.1762
   31MOL   C25412914   6.557   4.959   1.997 -0.3249 -0.0173  0.2482
   31MOL   C25512915   6.703   5.019   1.986  0.3990 -0.0934 -0.3431
   31MOL   C25612916   6.749   5.021   1.837 -0.8530  0.2497 -0.6118
   31MOL   C25712917   6.706   5.154   1.763 -0.6602 -0.4012 -0.0754
   31MOL   C25812918   6.555   5.156   1.727 -0.6250 -0.1255 -0.8784
   31MOL   C25912919   6.775   5.161   1.625  0.3745 -0.1336 -0.1330
   31MOL   C26012920   6.747   5.281   1.840 -0.1930 -0.7211  0.1518
   31MOL   H26112921   6.494   4.970   1.909  1.4805  0.3071 -1.0423
   31MOL   H26212922   6.562   4.850   1.996  0.6539  0.0249  0.0192
   31MOL   H26312923   6.709   5.118   2.030  0.2419 -0.6883  1.0740
   31MOL   H26412924   6.858   5.020   1.830 -0.8034 -1.3083  0.1422
   31MOL   H26512925   6.711   4.929   1.794  2.2841 -1.4323  0.0486
   31MOL   H26612926   6.492   5.168   1.815 -0.1787 -0.2695 -0.5394
   31MOL   H26712927   6.511   5.073   1.672  0.6088 -0.8742 -0.7340
   31MOL   H26812928   6.531   5.241   1.663  1.6337 -0.3883 -2.1201
   31MOL   H26912929   6.769   5.067   1.569  1.3786 -2.1215  2.9502
   31MOL   H27012930   6.878   5.195   1.630  0.2924  0.5082 -2.2493
   31MOL   H27112931   6.716   5.225   1.559  0.4922  1.0014  0.8634
   31MOL   H27212932   6.838   5.274   1.899  1.4825 -1.4900 -2.4181
   31MOL   H27312933   6.751   5.374   1.782 -2.4451 -1.0122 -0.5214
   31MOL   H27412934   6.670   5.312   1.910 -1.6102  0.3560 -1.8311
   31MOL   C27512935   6.804   4.936   2.072  0.4330  0.2957 -0.4604
   31MOL   C27612936   6.942   4.987   2.089 -0.5150  0.0168  0.7745
   31MOL   C27712937   6.954   5.121   2.162  0.3773 -0.6188  0.5527
   31MOL   C27812938   7.083   5.214   2.151  0.4869 -0.0243  0.2473
   31MOL   C27912939   7.107   5.269   2.009 -0.1265  0.9094 -0.6087
   31MOL   C28012940   7.067   5.338   2.242  0.8172 -0.2056  0.0437
   31MOL   C28112941   7.217   5.144   2.198  0.3879  0.4772  0.6046
   31MOL   H28212942   6.764   4.934   2.173 -0.8340  1.8863 -0.9312
   31MOL   H28312943   6.806   4.837   2.025  1.1226  0.7921 -1.5154
   31MOL   H28412944   6.984   5.008   1.991  1.8500  1.3164  2.0133
   31MOL   H28512945   6.948   5.100   2.269 -1.3163 -0.8384  0.4261
   31MOL   H28612946   6.869   5.187   2.144  1.3799  0.6556  0.4574
   31MOL   H28712947   7.201   5.322   1.994 -0.4000  1.5207 -0.1778
   31MOL   H28812948   7.106   5.186   1.938  1.3385 -0.4675  0.9045
   31MOL   H28912949   7.030   5.336   1.972  0.4009  1.6071 -0.4313
   31MOL   H29012950   7.153   5.404   2.233  0.4798  0.2789  0.3916
   31MOL   H29112951   7.047   5.313   2.346  1.8670 -0.3074  0.2262
   31MOL   H29212952   6.979   5.391   2.207  2.6467  1.0443 -2.8806
   31MOL   H29312953   7.266   5.084   2.123 -1.6822  0.5933 -0.8827
   31MOL   H29412954   7.210   5.074   2.282  0.3163  1.1124  1.1358
   31MOL   H29512955   7.304   5.209   2.212  1.5284 -0.9357  0.1144
   31MOL   C29612956   7.022   4.876   2.159 -0.3831  0.7151 -0.1032
   31MOL   C29712957   7.071   4.755   2.070  0.2133  0.4617 -0.5117
   31MOL   C29812958   7.095   4.623   2.148  0.4738  0.4026  0.8168
   31MOL   C29912959   6.973   4.530   2.178 -0.0545 -0.1190  0.1208
   31MOL   C30012960   6.928   4.456   2.050 -0.4774 -0.4660 -0.2493
   31MOL   C30112961   7.027   4.419   2.276 -0.2402  0.2803  0.5584
   31MOL   C30212962   6.858   4.596   2.252  0.6091  0.7974 -0.0127
   31MOL   H30312963   6.967   4.835   2.244  0.3372  0.9930  0.5062
   31MOL   H30412964   7.109   4.915   2.213 -0.8591  1.7624 -0.0871
   31MOL   H30512965   6.991   4.723   2.003  1.6113 -2.6645 -0.8025
   31MOL   H30612966   7.142   4.657   2.241  1.8278 -1.6776  0.9027
   31MOL   H30712967   7.171   4.562   2.099 -1.0566 -0.6051 -0.3200
   31MOL   H30812968   6.874   4.515   1.976  0.3721  0.8294  0.1449
   31MOL   H30912969   7.013   4.412   1.999 -0.0290 -1.5177  1.3559
   31MOL   H31012970   6.870   4.364   2.063 -0.1990 -0.7339 -0.9039
   31MOL   H31112971   6.947   4.347   2.292 -0.4719  0.3508 -0.2280
   31MOL   H31212972   7.119   4.373   2.240 -0.6039 -0.5426  0.6730
   31MOL   H31312973   7.048   4.456   2.376  0.8076  0.1054  0.4084
   31MOL   H31412974   6.782   4.521   2.276  1.1786 -0.6818 -2.5730
   31MOL   H31512975   6.892   4.639   2.346 -0.5221 -0.4552  0.9941
   31MOL   H31612976   6.813   4.675   2.192 -1.4519 -0.3899 -0.0898
   31MOL   C31712977   7.191   4.798   1.979  0.3004  0.2656  0.2664
   31MOL   C31812978   7.220   4.725   1.845 -1.0219  0.3132 -0.4440
   31MOL   C31912979   7.118   4.783   1.732 -0.3683 -0.6042 -0.1822
   31MOL   C32012980   7.075   4.713   1.603 -0.5600 -0.3152 -1.2550
   31MOL   C32112981   6.966   4.804   1.543  0.3580  0.6981  0.4634
   31MOL   C32212982   7.020   4.577   1.638  0.4263 -0.5089 -0.3854
   31MOL   C32312983   7.192   4.682   1.508 -0.0266 -0.3293  0.7695
   31MOL   H32412984   7.184   4.903   1.951 -1.5861 -0.0435 -0.4423
   31MOL   H32512985   7.275   4.786   2.048  1.0074 -0.5292 -0.7151
   31MOL   H32612986   7.212   4.618   1.859 -2.8503  0.5679  0.6269
   31MOL   H32712987   7.145   4.882   1.698 -2.2954  0.3053  0.8770
   31MOL   H32812988   7.031   4.795   1.797 -1.0350 -2.8180 -0.5916
   31MOL   H32912989   6.938   4.762   1.447  2.4324 -0.2394  0.2319
   31MOL   H33012990   6.992   4.908   1.522 -0.1199  0.4239 -1.6203
   31MOL   H33112991   6.879   4.803   1.609  1.4567 -0.9294  1.9217
   31MOL   H33212992   7.090   4.493   1.641  1.0969  0.0374 -0.8663
   31MOL   H33312993   6.963   4.574   1.731  0.5232 -0.8398 -0.3340
   31MOL   H33412994   6.942   4.543   1.570  1.0132 -1.6310 -0.5196
   31MOL   H33512995   7.156   4.649   1.411  0.5682  2.0220 -0.2932
   31MOL   H33612996   7.256   4.606   1.553  0.0439 -0.5776  0.2536
   31MOL   H33712997   7.250   4.767   1.471  0.0582 -0.3453  0.8641
   31MOL   C33812998   7.375   4.760   1.801 -0.4548 -0.5877 -0.2733
   31MOL   C33912999   7.488   4.704   1.893  0.1218  0.8638  0.2295
   31MOL   C34013000   7.610   4.799   1.895 -0.0563  0.1102 -0.2492
   31MOL   C34113001   7.653   4.876   2.027  0.9317  0.1843  0.0053
   31MOL   C34213002   0.013   4.961   1.995  0.0947 -0.6454  0.6711
   31MOL   C34313003   7.535   4.964   2.071  0.4395 -0.6457  0.4836
   31MOL   C34413004   7.693   4.781   2.133 -0.2276 -0.1498 -0.4109
   31MOL   H34513005   7.381   4.869   1.812  0.2053 -0.6532  0.0763
   31MOL   H34613006   7.396   4.744   1.695  0.0227 -1.7572 -0.0082
   31MOL   H34713007   7.452   4.694   1.996 -1.0657  0.2725 -0.2343
   31MOL   H34813008   7.582   4.883   1.832  0.0006  1.0439  0.9507
   31MOL   H34913009   7.702   4.756   1.856  0.8904  0.3832  1.5910
   31MOL   H35013010   0.096   4.892   1.978  0.8075  0.2471  0.4936
   31MOL   H35113011   7.754   5.029   1.914 -0.5828 -2.7297 -0.9204
   31MOL   H35213012   0.052   5.032   2.068 -0.0042 -0.8784  0.9534
   31MOL   H35313013   7.564   5.021   2.160  3.3937  0.8231 -1.3712
   31MOL   H35413014   7.510   5.035   1.992 -0.3379 -2.5958 -1.0459
   31MOL   H35513015   7.439   4.915   2.092 -0.7688  2.5961  2.9343
   31MOL   H35613016   7.715   4.833   2.227  1.9280  1.3321 -1.6812
   31MOL   H35713017   7.606   4.721   2.158 -1.3310  1.1423 -1.1069
   31MOL   H35813018   0.003   4.706   2.109 -0.5617 -0.2593 -1.1385
   31MOL   C35913019   7.526   4.560   1.845  0.4660 -0.1241  1.2614
   31MOL   C36013020   7.570   4.459   1.948 -0.1933  0.5113 -0.2771
   31MOL   C36113021   7.650   4.344   1.876  0.1949 -0.3787  0.0379
   31MOL   C36213022   0.035   4.338   1.887  0.6458  0.5037  0.0493
   31MOL   C36313023   0.094   4.233   1.791  0.1530  0.5915  0.4478
   31MOL   C36413024   0.080   4.313   2.029 -0.0847  0.6019  0.2495
   31MOL   C36513025   0.112   4.471   1.843 -0.1904  0.3827  0.0712
   31MOL   H36613026   7.608   4.577   1.774 -0.6995  0.2176 -0.0147
   31MOL   H36713027   7.440   4.527   1.786  0.2918 -1.9085  2.4606
   31MOL   H36813028   7.640   4.508   2.016 -0.3419 -0.0783  0.3043
   31MOL   H36913029   7.625   4.245   1.914 -0.7526  0.5776  1.9770
   31MOL   H37013030   7.616   4.337   1.773  1.2866  1.3391 -0.4643
   31MOL   H37113031   0.054   4.255   1.692 -2.2206 -1.2392  0.9394
   31MOL   H37213032   0.202   4.224   1.779  0.1811  2.0649 -0.5135
   31MOL   H37313033   0.075   4.128   1.816  0.5262  0.6033  0.7775
   31MOL   H37413034   0.046   4.215   2.063  1.3673  0.7991  2.3594
   31MOL   H37513035   0.035   4.366   2.114 -0.0222  0.3657  0.4324
   31MOL   H37613036   0.187   4.320   2.048 -0.4034  0.2926  2.3765
   31MOL   H37713037   0.096   4.564   1.897 -0.5839  0.6165 -0.4480
   31MOL   H37813038   0.093   4.496   1.739 -1.2922 -1.4414 -0.1955
   31MOL   H37913039   0.220   4.460   1.854 -0.0696  0.7863 -0.7004
   31MOL   C38013040   7.454   4.404   2.033 -0.2218 -0.0674  0.0248
   31MOL   C38113041   7.492   4.308   2.149 -0.1402 -0.1580 -1.1484
   31MOL   C38213042   7.367   4.224   2.191 -0.1730  0.1402 -0.3038
   31MOL   C38313043   7.380   4.071   2.159 -0.4222 -0.1321 -0.5665
   31MOL   C38413044   7.483   3.997   2.255 -0.1375  0.4468 -0.3934
   31MOL   C38513045   7.424   4.042   2.015 -0.9331  0.2716 -0.5092
   31MOL   C38613046   7.239   4.008   2.186 -0.1311 -0.3872 -0.2441
   31MOL   H38713047   7.386   4.351   1.966 -0.3345  0.7823 -0.5422
   31MOL   H38813048   7.400   4.485   2.083 -0.0377 -1.2305  2.1822
   31MOL   H38913049   7.561   4.238   2.102 -1.2480 -0.1217 -2.8461
   31MOL   H39013050   7.336   4.244   2.294  1.2481 -1.6636  0.4925
   31MOL   H39113051   7.283   4.257   2.129 -1.5016  1.0337  1.9221
   31MOL   H39213052   7.482   3.888   2.251  2.5487  0.3341  1.0855
   31MOL   H39313053   7.588   4.020   2.235  0.0824 -1.5206 -1.5976
   31MOL   H39413054   7.452   4.027   2.355 -0.9685 -0.0930 -0.4804
   31MOL   H39513055   7.397   3.940   1.987 -3.5475 -0.2232  3.4926
   31MOL   H39613056   7.530   4.060   1.997 -0.7022 -0.6463 -0.0841
   31MOL   H39713057   7.368   4.105   1.946  0.1277  1.4747 -0.2943
   31MOL   H39813058   7.170   4.056   2.255  0.9430  0.4086  0.2830
   31MOL   H39913059   7.261   3.903   2.207  1.1915 -0.2231 -0.7410
   31MOL   H40013060   7.179   4.016   2.095  2.5852 -2.3923 -2.3164
   31MOL   C40113061   7.559   4.396   2.255  0.1247 -0.1783 -0.1316
   31MOL   C40213062   7.639   4.324   2.359 -0.6604 -0.0511  0.3769
   31MOL   C40313063   7.659   4.426   2.479 -0.5326 -0.0684  0.5028
   31MOL   C40413064   7.741   4.372   2.600 -0.7809 -0.3747 -0.4833
   31MOL   C40513065   0.100   4.310   2.560  0.4868  1.0314  0.5509
   31MOL   C40613066   7.651   4.266   2.676 -0.4302  0.0816  0.1776
   31MOL   C40713067   0.012   4.487   2.699 -0.0110 -0.5096  0.3825
   31MOL   H40813068   7.622   4.478   2.219  0.7415 -0.5658  0.0626
   31MOL   H40913069   7.478   4.454   2.299 -0.4458 -1.2514  0.2318
   31MOL   H41013070   7.577   4.240   2.390 -0.8351 -0.7532 -1.7831
   31MOL   H41113071   7.561   4.454   2.518 -1.4325 -1.4166 -0.7128
   31MOL   H41213072   7.721   4.508   2.443 -1.6950  1.4269  1.8291
   31MOL   H41313073   0.161   4.394   2.526  1.8805 -0.1754  0.0268
   31MOL   H41413074   0.079   4.234   2.485 -0.7286  1.4619  0.4427
   31MOL   H41513075   0.154   4.261   2.641  0.6325 -0.2676 -0.3170
   31MOL   H41613076   7.624   4.190   2.602 -0.2842  0.4349 -0.2379
   31MOL   H41713077   7.557   4.302   2.718  0.0089  1.4185  0.0364
   31MOL   H41813078   7.698   4.218   2.762 -0.3317  1.4301  0.8817
   31MOL   H41913079   0.089   4.551   2.656  0.1263 -1.7072 -1.1454
   31MOL   H42013080   7.691   4.552   2.713  0.4650  0.7267 -2.1905
   31MOL   H42113081   0.049   4.447   2.794  2.2784 -0.3061 -0.3983
   31MOL   H42213082   7.732   4.282   2.321 -1.4834  0.1146 -1.9108
   32MOL     C113083   2.588   5.016   6.900  0.6148 -0.7425 -0.6714
   32MOL     C213084   2.634   5.114   7.017 -0.1354  0.0403 -0.3827
   32MOL     C313085   2.649   5.247   6.952  0.4238  0.1899 -0.4338
   32MOL     C413086   2.522   5.343   6.912  0.3860  0.0097 -0.3176
   32MOL     C513087   2.532   5.362   6.762 -0.5136  0.3803  0.1898
   32MOL     C613088   2.378   5.285   6.950  0.2114  0.0227  0.4907
   32MOL     C713089   2.537   5.481   6.979  0.2620  0.8146 -0.2415
   32MOL     H813090   2.550   4.921   6.938 -0.3642  0.7250  2.0747
   32MOL     H913091   2.506   5.067   6.850 -0.2006 -0.7952  0.6136
   32MOL    H1013092   2.563   5.122   7.100  0.7995  0.8745  0.3495
   32MOL    H1113093   2.716   5.234   6.867 -1.2360 -1.1965 -1.5584
   32MOL    H1213094   2.704   5.304   7.027  0.4146 -0.3246 -0.0404
   32MOL    H1313095   2.636   5.388   6.745 -0.1446  0.0269  1.8184
   32MOL    H1413096   2.470   5.441   6.720  3.1254  1.9933 -2.3030
   32MOL    H1513097   2.504   5.264   6.723  1.1698  0.1173 -0.3713
   32MOL    H1613098   2.300   5.345   6.902  1.5507  1.3830 -0.0192
   32MOL    H1713099   2.365   5.180   6.926  1.2291 -0.8031  3.4455
   32MOL    H1813100   2.360   5.284   7.057  1.2498  1.3718  0.6903
   32MOL    H1913101   2.528   5.462   7.086  2.7138  1.4926  0.1027
   32MOL    H2013102   2.457   5.546   6.944  0.3856  1.3893  0.5264
   32MOL    H2113103   2.634   5.525   6.957  1.8142 -1.5227  1.7030
   32MOL    H2213104   2.672   4.993   6.834  1.3529  0.0263 -0.0020
   32MOL    C2313105   2.780   5.068   7.069  1.2741 -0.3918 -0.2950
   32MOL    C2413106   2.782   4.945   7.156 -0.2802 -0.5968 -0.3386
   32MOL    C2513107   2.707   4.981   7.299 -0.8092  0.5088  0.1981
   32MOL    C2613108   2.592   4.888   7.348  0.0469 -0.0201 -0.1542
   32MOL    C2713109   2.561   4.928   7.498 -0.1441 -0.5532  0.8522
   32MOL    C2813110   2.457   4.903   7.268 -0.1854 -0.0527  1.0750
   32MOL    C2913111   2.640   4.743   7.346  1.1797  0.5002  0.6880
   32MOL    H3013112   2.835   5.041   6.978  2.6895  0.6463  0.2398
   32MOL    H3113113   2.840   5.150   7.108 -1.0577  0.5606  1.3637
   32MOL    H3213114   2.717   4.878   7.099 -0.1243  0.2158 -1.5107
   32MOL    H3313115   2.673   5.083   7.283  1.8533  1.8480  2.7229
   32MOL    H3413116   2.791   4.973   7.368  0.6092  1.9500 -1.3242
   32MOL    H3513117   2.492   4.856   7.542  0.3095 -1.0827  0.6931
   32MOL    H3613118   2.647   4.943   7.562 -0.6703 -0.1530  1.4746
   32MOL    H3713119   2.522   5.030   7.503 -1.4567 -0.8451 -2.2157
   32MOL    H3813120   2.432   5.005   7.240 -0.4875 -0.5548 -0.5595
   32MOL    H3913121   2.462   4.849   7.174  1.6346  1.0381  0.5206
   32MOL    H4013122   2.382   4.853   7.329  1.1414 -1.9534  1.2101
   32MOL    H4113123   2.576   4.680   7.409  0.5271 -0.4491 -0.9046
   32MOL    H4213124   2.737   4.732   7.396  0.4246  0.6630  2.2233
   32MOL    H4313125   2.641   4.696   7.248 -0.7034 -1.0202  1.3521
   32MOL    C4413126   2.927   4.897   7.178  0.6636  0.0386  0.5296
   32MOL    C4513127   3.001   4.834   7.058  0.6426  0.0264  0.6484
   32MOL    C4613128   2.939   4.692   7.043 -0.2794  0.1647 -0.4893
   32MOL    C4713129   2.898   4.641   6.909 -0.8070 -0.1266  0.1665
   32MOL    C4813130   2.847   4.496   6.919 -0.3829  0.6859 -0.1531
   32MOL    C4913131   3.022   4.647   6.818 -0.3946 -0.1274 -0.0106
   32MOL    C5013132   2.790   4.727   6.846 -0.0511 -0.2960 -0.1865
   32MOL    H5113133   2.978   4.986   7.216 -0.4665  0.7625  0.3658
   32MOL    H5213134   2.910   4.826   7.260 -0.6805 -2.0901 -1.5274
   32MOL    H5313135   2.982   4.897   6.972 -3.2847 -0.2238  1.2347
   32MOL    H5413136   2.849   4.680   7.103  0.6618  0.0445  0.9239
   32MOL    H5513137   3.009   4.617   7.081 -1.4307 -1.2924 -1.1817
   32MOL    H5613138   2.763   4.478   6.986 -0.4473 -0.3187 -0.4928
   32MOL    H5713139   2.925   4.432   6.959 -1.6652 -0.7547  0.0798
   32MOL    H5813140   2.811   4.468   6.820  0.5255 -1.8279  0.2097
   32MOL    H5913141   2.999   4.613   6.717  0.7040  0.5222 -0.4823
   32MOL    H6013142   3.060   4.747   6.801 -2.0054  0.4899 -0.0312
   32MOL    H6113143   3.101   4.583   6.858  0.3876  0.7455 -0.1311
   32MOL    H6213144   2.748   4.678   6.758 -2.1397  0.1729  0.5309
   32MOL    H6313145   2.705   4.711   6.912  1.5625 -1.8351  1.5724
   32MOL    H6413146   2.816   4.832   6.833 -1.5781  0.4221  2.3043
   32MOL    C6513147   3.148   4.840   7.085 -0.0270 -0.0704  0.1904
   32MOL    C6613148   3.235   4.944   7.006  0.2721  0.1209  0.9261
   32MOL    C6713149   3.385   4.922   7.052 -0.3130 -0.0966  0.6462
   32MOL    C6813150   3.479   4.853   6.962 -0.6737 -0.0686  1.1005
   32MOL    C6913151   3.433   4.716   6.916 -0.9939  0.1382 -0.3784
   32MOL    C7013152   3.507   4.945   6.837  0.8135  0.1845 -0.3455
   32MOL    C7113153   3.606   4.845   7.050  0.3475  0.0792 -0.8149
   32MOL    H7213154   3.173   4.851   7.191 -0.6094  1.7476  0.1528
   32MOL    H7313155   3.182   4.746   7.043 -1.7082 -1.0253  0.8765
   32MOL    H7413156   3.212   4.926   6.901 -0.3423  0.4739  0.9998
   32MOL    H7513157   3.381   4.871   7.148  1.4796 -0.1410  0.7092
   32MOL    H7613158   3.433   5.016   7.077  0.9378 -0.4802 -0.2522
   32MOL    H7713159   3.495   4.663   6.844 -1.4398 -0.9183 -0.0017
   32MOL    H7813160   3.428   4.642   6.996  0.7851 -0.8218 -1.1257
   32MOL    H7913161   3.334   4.722   6.870 -0.2088  0.1432 -2.1032
   32MOL    H8013162   3.482   5.048   6.862  3.0102  1.6524 -3.8200
   32MOL    H8113163   3.447   4.919   6.749 -0.3513 -3.5419  1.4481
   32MOL    H8213164   3.613   4.951   6.812  0.9511 -0.5546  0.0331
   32MOL    H8313165   3.655   4.939   7.074  0.5571 -0.3999  0.7375
   32MOL    H8413166   3.684   4.798   6.991 -1.3631 -1.3637 -1.9701
   32MOL    H8513167   3.602   4.799   7.149 -1.0732  1.6030 -0.1404
   32MOL    C8613168   3.184   5.087   7.043  0.2822  0.1355 -0.4331
   32MOL    C8713169   3.224   5.193   6.942 -0.9667  0.6013 -0.3737
   32MOL    C8813170   3.229   5.337   7.003 -0.3399 -0.8142  0.4145
   32MOL    C8913171   3.359   5.394   7.052 -0.1005  0.4906 -0.1375
   32MOL    C9013172   3.402   5.308   7.173  0.8020 -0.4818  0.3812
   32MOL    C9113173   3.325   5.538   7.097 -0.0897  0.2559 -0.1802
   32MOL    C9213174   3.474   5.396   6.955 -0.0218  0.0991 -0.0157
   32MOL    H9313175   3.235   5.105   7.138  0.4557  3.4816 -1.1060
   32MOL    H9413176   3.076   5.092   7.052  0.2144  0.7407 -1.5375
   32MOL    H9513177   3.323   5.173   6.901 -1.3154  0.7825 -1.3367
   32MOL    H9613178   3.151   5.344   7.078  0.5258  2.4919  1.0907
   32MOL    H9713179   3.194   5.412   6.932  1.1419 -0.5995 -0.1084
   32MOL    H9813180   3.329   5.319   7.253 -1.0215  1.9152 -1.5265
   32MOL    H9913181   3.500   5.331   7.214 -0.3560  1.9777  1.8573
   32MOL   H10013182   3.413   5.204   7.141  1.3198 -0.1956 -0.3789
   32MOL   H10113183   3.412   5.570   7.155  0.3829  1.2505 -1.4141
   32MOL   H10213184   3.306   5.595   7.006  0.2107 -1.6071 -1.4329
   32MOL   H10313185   3.241   5.539   7.167 -0.0054  4.1894 -0.0019
   32MOL   H10413186   3.552   5.439   7.017  1.1800  0.9525 -2.0845
   32MOL   H10513187   3.514   5.298   6.929  0.2727 -0.1779  1.4559
   32MOL   H10613188   3.462   5.457   6.865 -1.4570 -0.9494 -0.5686
   32MOL   C10713189   3.125   5.191   6.828  0.0686 -0.0632 -0.1355
   32MOL   C10813190   3.176   5.211   6.686 -0.4082  0.5559  0.1466
   32MOL   C10913191   3.057   5.206   6.582 -0.4961 -0.8952 -0.5428
   32MOL   C11013192   3.011   5.069   6.520  0.1064  1.2301 -0.2621
   32MOL   C11113193   2.893   5.113   6.423 -0.2031 -0.1309 -0.0397
   32MOL   C11213194   2.944   4.980   6.630 -0.6043 -0.1050  0.0953
   32MOL   C11313195   3.120   4.991   6.443 -0.8035  0.2643  0.3324
   32MOL   H11413196   3.037   5.252   6.852 -0.6882 -1.6327  1.1890
   32MOL   H11513197   3.086   5.089   6.832 -0.0259  0.0445  2.6870
   32MOL   H11613198   3.246   5.131   6.661 -0.6379  1.2785 -3.0151
   32MOL   H11713199   2.962   5.246   6.618 -0.1930  0.7159 -1.4995
   32MOL   H11813200   3.074   5.277   6.502 -0.1422 -0.8524 -0.4264
   32MOL   H11913201   2.859   5.024   6.370  1.8015  0.1901 -1.9842
   32MOL   H12013202   2.810   5.154   6.480 -0.8234 -0.9959 -0.3069
   32MOL   H12113203   2.935   5.181   6.349 -0.7191 -2.0014 -2.1121
   32MOL   H12213204   2.882   5.047   6.690  0.0598  0.3178  0.3204
   32MOL   H12313205   3.003   4.917   6.697 -0.6526 -1.5805 -1.2248
   32MOL   H12413206   2.877   4.907   6.585  0.5886  0.7783 -3.2718
   32MOL   H12513207   3.216   4.988   6.495  0.1272  0.2168 -1.3322
   32MOL   H12613208   3.134   5.029   6.342 -1.1292  0.8950  0.5275
   32MOL   H12713209   3.089   4.887   6.426 -1.8811  0.6244  0.0825
   32MOL   C12813210   3.241   5.346   6.670 -0.4283 -0.3240 -0.2130
   32MOL   C12913211   3.324   5.367   6.541 -0.1416  0.0271  0.6306
   32MOL   C13013212   3.369   5.519   6.511 -0.4940  0.4105  0.1883
   32MOL   C13113213   3.267   5.602   6.419 -0.4392 -0.7469  0.0433
   32MOL   C13213214   3.300   5.755   6.419  0.1667 -0.1909  0.5560
   32MOL   C13313215   3.117   5.594   6.471 -0.0025 -0.0285  0.1081
   32MOL   C13413216   3.273   5.557   6.266 -0.5773  0.6029  0.1265
   32MOL   H13513217   3.315   5.343   6.750  0.1187  1.3731 -0.6250
   32MOL   H13613218   3.171   5.428   6.691 -0.4308 -0.3725 -0.0298
   32MOL   H13713219   3.272   5.326   6.454  1.3954  0.0196 -0.3056
   32MOL   H13813220   3.392   5.574   6.602 -1.2703  0.3270  0.4344
   32MOL   H13913221   3.467   5.531   6.464 -1.1829  1.2524 -1.0452
   32MOL   H14013222   3.259   5.802   6.507 -1.7591  0.9206 -0.9050
   32MOL   H14113223   3.254   5.812   6.338 -0.6270 -1.9446 -0.2424
   32MOL   H14213224   3.407   5.777   6.414 -0.6816  3.8497 -2.3611
   32MOL   H14313225   3.095   5.633   6.570 -2.7219  2.2718 -1.3332
   32MOL   H14413226   3.075   5.493   6.470  2.6491 -1.1698  0.1052
   32MOL   H14513227   3.045   5.650   6.412 -0.6285 -0.5363  0.3882
   32MOL   H14613228   3.233   5.456   6.255 -0.6479  0.6385  0.0424
   32MOL   H14713229   3.193   5.616   6.220 -2.4182 -2.3355 -0.6051
   32MOL   H14813230   3.372   5.591   6.237  0.5136 -1.1272  1.7595
   32MOL   C14913231   3.447   5.273   6.552  0.1654 -0.1268  0.0159
   32MOL   C15013232   3.514   5.249   6.414  0.0644 -0.8904 -0.3420
   32MOL   C15113233   3.658   5.196   6.437 -0.1973 -0.0233  0.7589
   32MOL   C15213234   3.782   5.287   6.444  0.0859 -0.4436  0.5129
   32MOL   C15313235   3.804   5.370   6.314 -0.0528  0.2730  0.7057
   32MOL   C15413236   3.906   5.195   6.469  0.0577 -0.1689 -0.1227
   32MOL   C15513237   3.771   5.394   6.557  0.1554  0.0878 -0.1944
   32MOL   H15613238   3.424   5.173   6.589 -1.0063  0.1377  0.0314
   32MOL   H15713239   3.519   5.313   6.623  1.0578  1.6116 -1.8068
   32MOL   H15813240   3.525   5.344   6.361  1.1172 -0.5947  0.3792
   32MOL   H15913241   3.676   5.108   6.374 -2.0511 -0.0537  0.2312
   32MOL   H16013242   3.647   5.140   6.530 -0.8349 -0.4327  0.4473
   32MOL   H16113243   3.791   5.299   6.232  0.4576 -0.5034  1.2776
   32MOL   H16213244   3.725   5.443   6.303 -0.4010 -0.1436  0.4110
   32MOL   H16313245   3.899   5.423   6.308 -1.3354  2.9505  3.1210
   32MOL   H16413246   3.929   5.127   6.388  3.1825 -1.2378  1.5920
   32MOL   H16513247   3.894   5.137   6.561 -0.0780  1.4082  0.8722
   32MOL   H16613248   3.998   5.252   6.481  0.4196 -0.9851  1.1917
   32MOL   H16713249   3.706   5.472   6.517  0.9662  1.0787  0.3814
   32MOL   H16813250   3.738   5.360   6.655 -0.5148  1.4496  0.0725
   32MOL   H16913251   3.860   5.457   6.563  0.1103  0.2630 -1.3233
   32MOL   C17013252   3.432   5.151   6.328  0.0852 -0.4545  0.7891
   32MOL   C17113253   3.467   5.141   6.177 -0.1199 -0.5763  0.4042
   32MOL   C17213254   3.412   5.269   6.100  0.1125 -1.0127  0.7744
   32MOL   C17313255   3.461   5.310   5.952  0.9062  0.6000 -0.2372
   32MOL   C17413256   3.372   5.433   5.910  0.5881 -0.5691 -0.2337
   32MOL   C17513257   3.433   5.200   5.846  0.1176 -0.3281  0.0783
   32MOL   C17613258   3.607   5.359   5.949  0.5986  0.2039  0.0111
   32MOL   H17713259   3.324   5.166   6.329 -0.0237 -0.3825 -3.2479
   32MOL   H17813260   3.443   5.054   6.376 -1.0850 -1.0050 -0.0286
   32MOL   H17913261   3.575   5.142   6.162  0.0470  1.3534  1.5512
   32MOL   H18013262   3.306   5.277   6.121 -0.1336  0.8713 -1.0047
   32MOL   H18113263   3.451   5.352   6.159 -1.6203  0.5009 -0.1578
   32MOL   H18213264   3.377   5.462   5.805  2.0024 -1.4431 -0.4140
   32MOL   H18313265   3.267   5.421   5.940  0.5645  1.3985  0.5555
   32MOL   H18413266   3.401   5.521   5.968 -0.1946  2.1038 -3.7182
   32MOL   H18513267   3.339   5.146   5.857  1.2106 -2.0572  1.3165
   32MOL   H18613268   3.446   5.227   5.742  1.5077 -0.7909  0.1201
   32MOL   H18713269   3.514   5.127   5.850  0.4987  0.1657  1.6866
   32MOL   H18813270   3.613   5.459   5.993 -3.0072  0.1048  0.8261
   32MOL   H18913271   3.696   5.303   5.980  2.3372  2.2820 -1.0445
   32MOL   H19013272   3.638   5.384   5.848 -1.1022 -0.2002 -0.6193
   32MOL   C19113273   3.406   5.010   6.117  0.8743  0.0686  0.0982
   32MOL   C19213274   3.506   4.900   6.110  0.5868  0.7972  0.4653
   32MOL   C19313275   3.615   4.936   6.001 -0.1766 -1.1025  0.2154
   32MOL   C19413276   3.763   4.904   6.047 -0.2812  0.4326 -0.9384
   32MOL   C19513277   3.803   4.968   6.183  0.0792  0.1993  0.9559
   32MOL   C19613278   3.858   4.964   5.943  0.2578  0.2393  0.7742
   32MOL   C19713279   3.779   4.752   6.065  0.0112 -1.2834  0.3008
   32MOL   H19813280   3.317   4.980   6.172  0.9868  1.0209  0.8095
   32MOL   H19913281   3.360   5.028   6.019 -2.6312  0.0096  1.6602
   32MOL   H20013282   3.555   4.898   6.208 -1.8123  0.2901  1.6838
   32MOL   H20113283   3.613   5.044   5.986  0.7363 -1.1834 -0.5673
   32MOL   H20213284   3.598   4.895   5.901 -1.2128  0.7134 -0.3725
   32MOL   H20313285   3.910   4.963   6.199  0.3101  1.0166 -0.2381
   32MOL   H20413286   3.768   5.071   6.190 -3.0482 -0.3872 -3.5109
   32MOL   H20513287   3.756   4.926   6.272  0.9612 -1.7103  0.5459
   32MOL   H20613288   3.851   4.925   5.841 -0.5129 -1.4519  1.4509
   32MOL   H20713289   3.848   5.072   5.957  2.1680  0.3696  1.2146
   32MOL   H20813290   3.963   4.947   5.964  0.8664 -1.2412 -3.0231
   32MOL   H20913291   3.773   4.688   5.977  0.6856  2.2422 -2.4054
   32MOL   H21013292   3.876   4.723   6.106  0.1392  0.4551  1.2670
   32MOL   H21113293   3.705   4.716   6.137 -1.1167  0.7840  0.2159
   32MOL   C21213294   3.439   4.764   6.068 -0.2606 -0.0138  0.4893
   32MOL   C21313295   3.358   4.689   6.171 -0.1395  0.3978 -0.3240
   32MOL   C21413296   3.448   4.613   6.278  0.3692 -0.4405 -0.5627
   32MOL   C21513297   3.417   4.638   6.426 -0.4139 -0.3382  0.1575
   32MOL   C21613298   3.274   4.586   6.453  0.4101 -0.1744 -0.8463
   32MOL   C21713299   3.525   4.573   6.514 -0.2831 -0.0127  0.0254
   32MOL   C21813300   3.431   4.791   6.455 -0.0441 -0.2521 -0.2232
   32MOL   H21913301   3.391   4.788   5.973  1.7555 -2.8672 -1.3093
   32MOL   H22013302   3.509   4.688   6.035 -0.2832 -0.8083  2.2222
   32MOL   H22113303   3.295   4.771   6.206  0.9708  1.3847 -0.6089
   32MOL   H22213304   3.551   4.642   6.262  0.9389 -1.5663  0.9532
   32MOL   H22313305   3.440   4.504   6.275 -0.7442 -0.3612 -0.9664
   32MOL   H22413306   3.209   4.602   6.367  0.4672  2.5268 -0.4402
   32MOL   H22513307   3.225   4.638   6.535  1.9748  0.5482 -0.3504
   32MOL   H22613308   3.285   4.479   6.473  0.5485  0.4537  2.7737
   32MOL   H22713309   3.516   4.594   6.620  1.7153  1.3203 -0.0361
   32MOL   H22813310   3.523   4.464   6.503  0.9477  0.0179 -0.5941
   32MOL   H22913311   3.624   4.612   6.492 -0.4468 -0.3454 -1.3484
   32MOL   H23013312   3.420   4.809   6.562 -1.0739 -1.0632 -0.1845
   32MOL   H23113313   3.357   4.848   6.398 -1.0165 -0.7534  0.5112
   32MOL   H23213314   3.528   4.829   6.423 -1.0988  1.8038 -1.1487
   32MOL   C23313315   3.266   4.589   6.092 -0.2015 -0.1973 -0.9623
   32MOL   C23413316   3.140   4.655   6.027  0.0182  0.3924 -0.4845
   32MOL   C23513317   3.092   4.570   5.904  0.1029 -0.2456  0.0057
   32MOL   C23613318   3.160   4.584   5.759 -0.3676 -0.1405 -0.1836
   32MOL   C23713319   3.148   4.735   5.718 -0.3160 -0.1555  0.1992
   32MOL   C23813320   3.301   4.545   5.755  0.6457  0.3455 -0.3131
   32MOL   C23913321   3.090   4.500   5.647 -0.4291 -0.2590 -0.6148
   32MOL   H24013322   3.217   4.510   6.149 -1.5574  2.3130  1.4818
   32MOL   H24113323   3.324   4.538   6.016 -1.3299  0.0424 -1.9832
   32MOL   H24213324   3.169   4.748   5.978  1.3430  1.0392  1.4695
   32MOL   H24313325   3.087   4.464   5.927 -0.0044 -0.1876  0.2478
   32MOL   H24413326   2.987   4.588   5.881  0.1568  1.4459  1.0075
   32MOL   H24513327   3.205   4.806   5.779  0.1292  0.5104 -0.9714
   32MOL   H24613328   3.045   4.770   5.707 -0.5215 -0.8750 -0.1406
   32MOL   H24713329   3.189   4.754   5.619 -1.6298  1.9898  0.0252
   32MOL   H24813330   3.359   4.609   5.822  0.3042  2.3622 -1.8897
   32MOL   H24913331   3.312   4.436   5.756  0.8859  0.3787  0.7762
   32MOL   H25013332   3.343   4.580   5.661  0.0676  1.3364 -0.2007
   32MOL   H25113333   2.982   4.513   5.640 -0.3823 -0.6057 -2.1306
   32MOL   H25213334   3.132   4.511   5.547 -0.9464 -1.1367 -0.9304
   32MOL   H25313335   3.106   4.393   5.660  1.5994  0.1450  0.3642
   32MOL   C25413336   3.034   4.678   6.143  0.5715 -0.0932  0.7963
   32MOL   C25513337   2.914   4.755   6.094 -0.1670 -0.6452  0.7185
   32MOL   C25613338   2.945   4.910   6.086  0.7267 -0.4329  0.2733
   32MOL   C25713339   2.861   5.000   5.992 -0.7637  0.6350 -0.4770
   32MOL   C25813340   2.890   4.985   5.840 -0.1552 -0.1747 -0.1908
   32MOL   C25913341   2.897   5.148   6.029  0.0130 -0.3694  0.1458
   32MOL   C26013342   2.708   4.990   6.026 -0.6784 -0.1733 -0.0603
   32MOL   H26113343   3.087   4.722   6.227  0.6489  3.2431 -0.9008
   32MOL   H26213344   3.007   4.583   6.188  0.8575  0.7793  2.8626
   32MOL   H26313345   2.888   4.731   5.991  0.1660 -0.3574  0.5668
   32MOL   H26413346   2.942   4.942   6.190  3.2449  0.4860  0.1013
   32MOL   H26513347   3.045   4.934   6.051  0.9938 -1.6734  0.1337
   32MOL   H26613348   2.858   5.074   5.786 -0.0635  0.3291  0.5688
   32MOL   H26713349   2.847   4.894   5.797 -2.0606  0.7511 -0.2924
   32MOL   H26813350   2.994   4.981   5.808  0.2796 -0.3667  1.2176
   32MOL   H26913351   2.872   5.181   6.130 -1.1337 -2.1176  0.4398
   32MOL   H27013352   2.836   5.217   5.970 -1.1629 -0.1354  1.6044
   32MOL   H27113353   3.003   5.166   6.010 -0.0152 -1.7410 -1.4591
   32MOL   H27213354   2.668   5.050   5.944 -0.7828  0.4279  0.4313
   32MOL   H27313355   2.665   4.892   6.008  1.0029 -1.0822  0.7100
   32MOL   H27413356   2.660   5.033   6.114  0.5986  0.3386  0.4056
   32MOL   C27513357   2.797   4.717   6.189  0.4049 -0.0051 -0.1367
   32MOL   C27613358   2.723   4.587   6.150  0.0699 -0.0552 -0.4532
   32MOL   C27713359   2.664   4.520   6.278 -0.0503  0.3975  0.1640
   32MOL   C27813360   2.761   4.442   6.375 -0.4583 -0.3968 -0.5311
   32MOL   C27913361   2.857   4.525   6.464  0.3211  0.4194  0.4197
   32MOL   C28013362   2.659   4.381   6.476 -0.3619  0.1110 -0.1525
   32MOL   C28113363   2.844   4.332   6.313  0.3767  0.1442  0.1514
   32MOL   H28213364   2.839   4.710   6.290  0.3589 -0.4234 -0.1420
   32MOL   H28313365   2.729   4.802   6.190 -0.7299 -0.8895 -0.1946
   32MOL   H28413366   2.792   4.516   6.106  0.5592  0.4303 -0.4675
   32MOL   H28513367   2.594   4.444   6.241  0.1535 -0.0005  0.5930
   32MOL   H28613368   2.618   4.602   6.332  0.6973  2.4325 -2.2008
   32MOL   H28713369   2.913   4.465   6.536 -1.5677 -0.5831  1.0875
   32MOL   H28813370   2.944   4.569   6.415  0.0786 -1.3876 -1.7043
   32MOL   H28913371   2.798   4.594   6.524 -0.8009 -0.0914 -0.0846
   32MOL   H29013372   2.706   4.321   6.553  0.3881  0.5584 -0.2565
   32MOL   H29113373   2.591   4.317   6.419  1.1724  0.5165 -2.5023
   32MOL   H29213374   2.601   4.460   6.525 -2.3004 -0.9924 -0.6389
   32MOL   H29313375   2.774   4.268   6.259 -1.3845  0.2818  2.2137
   32MOL   H29413376   2.890   4.286   6.400 -0.9230 -2.6147 -0.5679
   32MOL   H29513377   2.912   4.377   6.241 -0.0151  0.3856 -0.0692
   32MOL   C29613378   2.621   4.623   6.040 -0.0548  0.2032 -0.0282
   32MOL   C29713379   2.559   4.508   5.958  0.1632 -0.2835 -0.0806
   32MOL   C29813380   2.669   4.450   5.859  0.6484 -0.2367  0.2812
   32MOL   C29913381   2.672   4.299   5.835 -0.1296  0.3903  0.0666
   32MOL   C30013382   2.711   4.232   5.969 -0.4163  0.0509  0.6379
   32MOL   C30113383   2.556   4.227   5.772  1.4198  0.6015  0.2637
   32MOL   C30213384   2.782   4.275   5.725 -0.4074 -0.3869  0.0351
   32MOL   H30313385   2.673   4.682   5.965  1.0850  0.6918  1.1216
   32MOL   H30413386   2.552   4.692   6.087 -1.0118  1.1845 -2.7777
   32MOL   H30513387   2.536   4.425   6.024 -0.9803  0.9749  1.1620
   32MOL   H30613388   2.770   4.473   5.891 -0.0260  0.4951  1.9178
   32MOL   H30713389   2.655   4.488   5.758  1.7924  2.0763  0.9684
   32MOL   H30813390   2.740   4.128   5.950 -1.9423 -0.2037 -0.3290
   32MOL   H30913391   2.799   4.278   6.013  0.9102 -0.3754 -1.4694
   32MOL   H31013392   2.637   4.239   6.048  0.5615  3.4584  1.3265
   32MOL   H31113393   2.572   4.119   5.769  1.9765  0.7137 -1.2668
   32MOL   H31213394   2.457   4.227   5.818  0.1649  2.5955 -2.3031
   32MOL   H31313395   2.529   4.264   5.673 -0.6694 -1.7881 -0.1185
   32MOL   H31413396   2.797   4.170   5.701  1.4754  0.7237 -4.0553
   32MOL   H31513397   2.766   4.336   5.636 -0.7395  1.0764  1.0789
   32MOL   H31613398   2.882   4.306   5.755 -1.0157  1.1884  0.5132
   32MOL   C31713399   2.438   4.565   5.889  0.2217  0.7613  0.2339
   32MOL   C31813400   2.303   4.503   5.914  0.0465 -0.2047  0.0274
   32MOL   C31913401   2.271   4.490   6.065 -0.6297  0.0070 -0.1426
   32MOL   C32013402   2.224   4.352   6.133 -0.3213  0.0773  0.0374
   32MOL   C32113403   2.341   4.250   6.141  0.1965  0.1633  0.0752
   32MOL   C32213404   2.100   4.289   6.070  0.2069 -0.1486 -0.2583
   32MOL   C32313405   2.180   4.381   6.277 -0.1085 -0.0995  0.3494
   32MOL   H32413406   2.429   4.673   5.905  0.3399  0.8042  0.0128
   32MOL   H32513407   2.440   4.568   5.780  0.3809  1.3036  0.2490
   32MOL   H32613408   2.300   4.402   5.873 -1.0870  0.7147 -2.2454
   32MOL   H32713409   2.190   4.560   6.087  0.1748  0.6682  0.7759
   32MOL   H32813410   2.356   4.527   6.123 -0.9472 -0.4851  0.6430
   32MOL   H32913411   2.437   4.296   6.165 -0.4265  2.3377 -1.3744
   32MOL   H33013412   2.346   4.192   6.049 -0.3695  1.4623 -0.7889
   32MOL   H33113413   2.315   4.178   6.218 -0.3131 -0.7106 -0.9084
   32MOL   H33213414   2.058   4.213   6.135  0.9307 -1.0529 -0.8383
   32MOL   H33313415   2.024   4.362   6.044  0.1446 -0.4714 -0.9960
   32MOL   H33413416   2.123   4.240   5.975 -3.5032  0.6871 -1.6762
   32MOL   H33513417   2.162   4.291   6.336 -1.2433 -0.2439 -0.2065
   32MOL   H33613418   2.096   4.451   6.274  1.0305  1.4327  2.5723
   32MOL   H33713419   2.263   4.418   6.337 -0.7355  2.5841 -0.3687
   32MOL   C33813420   2.182   4.571   5.849  0.5688  0.6825 -0.0689
   32MOL   C33913421   2.194   4.588   5.697  1.0934  0.1075  0.6141
   32MOL   C34013422   2.068   4.661   5.642  1.1547 -0.1861  0.1810
   32MOL   C34113423   2.074   4.815   5.627 -0.6942  0.2610  0.3366
   32MOL   C34213424   2.208   4.867   5.558  0.4293 -0.3566  0.0679
   32MOL   C34313425   1.964   4.860   5.536 -0.9724 -0.3099  0.7963
   32MOL   C34413426   2.046   4.889   5.764 -0.4524  0.1345  0.3443
   32MOL   H34513427   2.161   4.663   5.902  0.6595  1.7254 -1.8020
   32MOL   H34613428   2.094   4.509   5.864  1.2767 -0.5653 -0.9002
   32MOL   H34713429   2.283   4.649   5.681  0.0263  1.4660 -0.2718
   32MOL   H34813430   1.979   4.648   5.704 -0.7884  1.5526 -2.1515
   32MOL   H34913431   2.040   4.610   5.550  1.7229  2.1963 -1.3466
   32MOL   H35013432   2.202   4.975   5.549  0.0829 -0.2897  1.0032
   32MOL   H35113433   2.301   4.842   5.610  0.2836 -2.1999 -0.4975
   32MOL   H35213434   2.221   4.839   5.454  0.4897  0.0287 -0.0273
   32MOL   H35313435   1.966   4.969   5.538 -1.4850 -0.2958  0.4736
   32MOL   H35413436   1.980   4.824   5.435 -1.0990  0.0276  0.6573
   32MOL   H35513437   1.862   4.837   5.568 -0.8932 -0.7460  0.7414
   32MOL   H35613438   2.051   4.994   5.736 -0.3118 -0.1131 -0.5591
   32MOL   H35713439   1.948   4.860   5.802  0.9593 -0.0350  4.1012
   32MOL   H35813440   2.118   4.886   5.847  1.8359  0.4078 -1.5810
   32MOL   C35913441   2.231   4.456   5.625  0.1434  0.1340  0.5242
   32MOL   C36013442   2.261   4.474   5.473 -0.2428 -0.2105  0.8277
   32MOL   C36113443   2.244   4.343   5.390 -0.5363 -0.1387 -0.4232
   32MOL   C36213444   2.111   4.318   5.302 -0.1482  0.1856 -0.2445
   32MOL   C36313445   1.983   4.344   5.381 -0.1739 -0.0338 -0.1894
   32MOL   C36413446   2.110   4.172   5.253 -0.9287  0.7050 -0.8441
   32MOL   C36513447   2.097   4.406   5.178  0.0386 -0.2943  0.5125
   32MOL   H36613448   2.139   4.398   5.635  0.0238  0.4321  1.2421
   32MOL   H36713449   2.303   4.385   5.665  0.2511 -0.4584 -0.7179
   32MOL   H36813450   2.199   4.557   5.438 -1.5648 -1.9198 -0.9836
   32MOL   H36913451   2.328   4.324   5.323 -1.2850  0.2456 -1.4858
   32MOL   H37013452   2.266   4.276   5.474 -1.4907  0.5784  0.4138
   32MOL   H37113453   1.989   4.291   5.476 -0.7397  1.5881  0.7797
   32MOL   H37213454   1.984   4.450   5.408 -0.0300  0.3468 -1.6491
   32MOL   H37313455   1.888   4.315   5.335  0.9889 -2.0489 -1.3633
   32MOL   H37413456   2.105   4.108   5.341 -1.0521  1.3797 -0.3510
   32MOL   H37513457   2.201   4.151   5.197 -0.6844 -3.1122  0.8866
   32MOL   H37613458   2.024   4.148   5.192 -1.4058 -1.4139  0.6268
   32MOL   H37713459   2.104   4.512   5.200  1.1929 -0.2175 -0.1508
   32MOL   H37813460   2.003   4.390   5.125  0.2047 -2.8550  0.9165
   32MOL   H37913461   2.178   4.394   5.105 -2.3269 -0.8828 -2.1244
   32MOL   C38013462   2.412   4.541   5.459  0.1656  0.6886  0.2017
   32MOL   C38113463   2.459   4.586   5.320  0.0772  0.8598 -0.2768
   32MOL   C38213464   2.608   4.627   5.318 -0.4874  0.2210  0.9119
   32MOL   C38313465   2.713   4.523   5.273  0.0486  0.1528  0.2610
   32MOL   C38413466   2.699   4.510   5.121 -0.0833 -0.7547 -0.1745
   32MOL   C38513467   2.687   4.392   5.345 -0.7629  0.0781 -0.0579
   32MOL   C38613468   2.857   4.567   5.302 -0.3316 -0.1483 -0.2391
   32MOL   H38713469   2.487   4.467   5.490 -0.0675  1.4727  2.7045
   32MOL   H38813470   2.421   4.626   5.525  0.8629 -0.5623  1.7633
   32MOL   H38913471   2.451   4.495   5.261  2.0609  0.6678 -0.2840
   32MOL   H39013472   2.634   4.714   5.258  0.8348 -1.6243 -1.2762
   32MOL   H39113473   2.637   4.662   5.417  1.1993  2.6760 -0.3947
   32MOL   H39213474   2.688   4.609   5.077 -2.8429 -1.3807 -1.0114
   32MOL   H39313475   2.778   4.452   5.072 -1.5058 -3.9271  1.0892
   32MOL   H39413476   2.605   4.462   5.091  0.0317 -0.4544 -1.0464
   32MOL   H39513477   2.688   4.424   5.449  0.9870 -0.8653  0.2371
   32MOL   H39613478   2.769   4.323   5.323 -1.0530 -0.6270  1.0576
   32MOL   H39713479   2.590   4.347   5.327 -0.5425 -0.2336 -0.4676
   32MOL   H39813480   2.878   4.560   5.408 -0.7619 -0.3628 -0.1658
   32MOL   H39913481   2.881   4.671   5.280 -1.5318  0.1771 -0.0496
   32MOL   H40013482   2.936   4.509   5.254  0.0788  0.0543  0.1965
   32MOL   C40113483   2.367   4.694   5.260 -0.0901  0.1159  0.0812
   32MOL   C40213484   2.398   4.720   5.108 -0.1259  0.3387 -0.1224
   32MOL   C40313485   2.305   4.821   5.039  0.5699  0.0711  0.0942
   32MOL   C40413486   2.330   4.852   4.896  0.5462  0.0714  0.0443
   32MOL   C40513487   2.229   4.964   4.859  0.2688  0.0534  0.6766
   32MOL   C40613488   2.293   4.731   4.806  0.1167 -0.0224  0.5789
   32MOL   C40713489   2.477   4.898   4.865 -0.0857  1.0183 -0.3455
   32MOL   H40813490   2.260   4.678   5.275  0.1642 -0.6229  1.1605
   32MOL   H40913491   2.383   4.783   5.320 -1.9370 -1.2048  2.6128
   32MOL   H41013492   2.502   4.750   5.092  1.4085 -3.2074  2.6737
   32MOL   H41113493   2.317   4.911   5.099 -0.0429 -1.1602  2.1194
   32MOL   H41213494   2.206   4.785   5.067  0.9719 -0.2806  1.0926
   32MOL   H41313495   2.246   5.056   4.914  0.5940  0.0128  0.6395
   32MOL   H41413496   2.123   4.941   4.875  0.2036  0.0593  0.2390
   32MOL   H41513497   2.235   5.007   4.759 -0.2144  1.1149  1.0996
   32MOL   H41613498   2.271   4.772   4.708 -0.1162  0.6250  0.9006
   32MOL   H41713499   2.203   4.685   4.846 -0.9560  1.5925  0.0516
   32MOL   H41813500   2.374   4.658   4.799  0.3919  0.1602  1.7896
   32MOL   H41913501   2.552   4.819   4.879 -0.0644  0.9432 -0.8689
   32MOL   H42013502   2.487   4.919   4.758 -1.1928  1.5369 -0.3460
   32MOL   H42113503   2.496   4.985   4.927  0.1600  0.2636  0.6457
   32MOL   H42213504   2.396   4.627   5.052  0.1935 -0.2075  0.7690
   33MOL     C113505   0.878   2.588   7.649  0.1393  0.0654 -0.4030
   33MOL     C213506   0.727   2.592   7.610 -0.3217  1.2301  0.1888
   33MOL     C313507   0.656   2.702   7.692 -0.6378  0.5286 -0.1924
   33MOL     C413508   0.518   2.755   7.631 -0.0770  0.3516 -0.4897
   33MOL     C513509   0.479   2.860   7.735 -0.0100  0.1376 -0.1636
   33MOL     C613510   0.543   2.812   7.486 -0.2647  0.7490 -0.4648
   33MOL     C713511   0.407   2.653   7.628  0.2777 -0.2156 -0.3896
   33MOL     H813512   0.924   2.678   7.608 -1.0650  1.3623  1.0265
   33MOL     H913513   0.883   2.559   7.754 -2.5494  0.1223 -0.2188
   33MOL    H1013514   0.730   2.621   7.505  1.5644 -0.1766 -0.1695
   33MOL    H1113515   0.734   2.777   7.697 -0.0081  0.0442 -2.4003
   33MOL    H1213516   0.649   2.666   0.029  1.8796  0.3346 -0.0668
   33MOL    H1313517   0.458   2.828   0.071  0.5415 -0.1350 -0.1337
   33MOL    H1413518   0.395   2.910   7.687 -1.4414 -0.8780  1.2473
   33MOL    H1513519   0.554   2.937   7.752 -2.9816  2.9733  0.7648
   33MOL    H1613520   0.461   2.879   7.458 -0.6140 -0.5131 -2.5337
   33MOL    H1713521   0.629   2.880   7.481  2.2594 -2.3178 -0.2274
   33MOL    H1813522   0.538   2.735   7.409 -2.2921  2.1711 -1.8149
   33MOL    H1913523   0.397   2.594   7.719 -1.5565 -0.2643 -0.5847
   33MOL    H2013524   0.421   2.597   7.535  3.2419 -2.0531  1.1114
   33MOL    H2113525   0.313   2.707   7.618  0.9381  0.6906 -1.8303
   33MOL    H2213526   0.924   2.511   7.588  1.3806  1.3220 -1.0657
   33MOL    C2313527   0.681   2.449   7.618  0.4548  0.2293 -0.2381
   33MOL    C2413528   0.701   2.360   7.490  0.6573  0.1850 -0.7665
   33MOL    C2513529   0.617   2.412   7.369 -0.2741  0.3514  0.3281
   33MOL    C2613530   0.687   2.425   7.223 -0.3332 -0.2096 -0.7270
   33MOL    C2713531   0.743   2.284   7.167  0.8833 -0.1003 -0.6547
   33MOL    C2813532   0.585   2.483   7.130  0.4870  0.2261  0.2214
   33MOL    C2913533   0.797   2.532   7.239  0.1076 -0.0237 -0.1579
   33MOL    H3013534   0.720   2.404   7.709  2.1635  0.8372 -0.6656
   33MOL    H3113535   0.573   2.456   7.636  0.5750 -2.3887  1.7693
   33MOL    H3213536   0.806   2.352   7.461  0.4020 -1.7429 -1.2398
   33MOL    H3313537   0.583   2.512   7.397  1.8839  2.1967 -3.3493
   33MOL    H3413538   0.528   2.349   7.363 -0.6763  0.7424  1.8485
   33MOL    H3513539   0.780   2.301   7.066 -0.1672  1.7981 -0.7430
   33MOL    H3613540   0.833   2.256   7.223  1.4178 -1.9293 -2.3954
   33MOL    H3713541   0.677   2.198   7.159  0.9760 -0.1320 -1.0881
   33MOL    H3813542   0.560   2.584   7.162  1.3606  1.2416 -2.1455
   33MOL    H3913543   0.623   2.479   7.028  1.4417  2.5768  0.4491
   33MOL    H4013544   0.495   2.421   7.132 -0.2393  1.2498 -0.2422
   33MOL    H4113545   0.761   2.627   7.279 -1.0003 -0.6991  0.4779
   33MOL    H4213546   0.840   2.566   7.145  0.3521 -3.2013 -1.2659
   33MOL    H4313547   0.886   2.501   7.294  0.5105 -0.9596 -1.3147
   33MOL    C4413548   0.659   2.209   7.523  0.5636  0.2915  0.0940
   33MOL    C4513549   0.755   2.131   7.620 -0.2777  0.8364  0.0795
   33MOL    C4613550   0.888   2.089   7.544 -0.9418  0.4963 -0.1631
   33MOL    C4713551   1.026   2.106   7.609 -0.7411 -0.1236  0.2823
   33MOL    C4813552   1.037   2.033   7.740  0.7522 -0.1075 -0.0032
   33MOL    C4913553   1.065   2.258   7.621  1.1654  0.8377  0.1805
   33MOL    C5013554   1.130   2.048   7.523 -0.0527  0.3173  0.3105
   33MOL    H5113555   0.557   2.209   7.563  0.3671 -1.0753 -0.3815
   33MOL    H5213556   0.641   2.155   7.430 -2.2966  0.6180  0.4118
   33MOL    H5313557   0.776   2.202   7.699 -3.0308  1.1201  0.6309
   33MOL    H5413558   0.895   2.144   7.450  1.2022 -2.1652 -1.6355
   33MOL    H5513559   0.880   1.985   7.512  2.5271 -0.1968  0.9729
   33MOL    H5613560   1.022   1.927   7.719 -1.5436  0.7244 -2.9265
   33MOL    H5713561   0.960   2.068   0.042  1.6602  0.2975  0.8364
   33MOL    H5813562   1.137   2.056   0.012  0.9370 -2.2426  0.8582
   33MOL    H5913563   0.992   2.308   7.686  0.6861 -0.4544  0.6476
   33MOL    H6013564   1.164   2.276   7.663  0.6240  0.5004  1.6289
   33MOL    H6113565   1.059   2.314   7.528  1.1218  1.0651  0.3180
   33MOL    H6213566   1.119   1.940   7.510 -0.9601  0.4246  0.1609
   33MOL    H6313567   1.147   2.105   7.432  2.7209 -0.7043  0.1255
   33MOL    H6413568   1.223   2.048   7.581 -0.9132  1.0749  1.7153
   33MOL    C6513569   0.668   2.011   7.676 -0.3363 -0.5066 -0.3842
   33MOL    C6613570   0.556   2.023   0.015 -0.4780  0.2460  0.7858
   33MOL    C6713571   0.632   2.067   0.148  0.4763 -0.7008 -0.1503
   33MOL    C6813572   0.577   2.180   0.236  0.2660  0.4153 -0.7897
   33MOL    C6913573   0.682   2.208   0.353  0.3712 -0.1657 -0.0062
   33MOL    C7013574   0.565   2.313   0.162  0.2406  0.2979 -0.5890
   33MOL    C7113575   0.444   2.136   0.302  0.2517 -0.7979 -0.6215
   33MOL    H7213576   0.628   1.968   7.584 -0.2284  0.9943 -1.1451
   33MOL    H7313577   0.732   1.929   7.710 -0.1610 -0.3417 -0.3182
   33MOL    H7413578   0.491   2.107   7.757 -0.3096 -0.3165 -1.7496
   33MOL    H7513579   0.733   2.098   0.122  0.1938  1.4972  1.2379
   33MOL    H7613580   0.659   1.979   0.207  1.5452  0.5617  1.2817
   33MOL    H7713581   0.765   2.265   0.312  0.2699 -0.3603 -0.4906
   33MOL    H7813582   0.641   2.276   0.428 -0.3786  0.8370 -1.3150
   33MOL    H7913583   0.712   2.114   0.400 -2.1400 -1.4183 -0.8137
   33MOL    H8013584   0.524   2.394   0.223 -1.2826 -2.9018  2.8535
   33MOL    H8113585   0.512   2.303   0.068  0.1561 -0.0598 -0.5032
   33MOL    H8213586   0.660   2.362   0.140  1.0953 -1.8789 -1.8171
   33MOL    H8313587   0.406   2.219   0.363 -0.6249 -2.7351  1.5225
   33MOL    H8413588   0.460   2.050   0.366  0.5099 -0.7155 -0.5736
   33MOL    H8513589   0.377   2.118   0.218 -1.1177 -2.6181  0.8266
   33MOL    C8613590   0.471   1.895   0.038  0.4437 -0.6595  0.2092
   33MOL    C8713591   0.398   1.830   7.683  0.0150  0.1112  0.3813
   33MOL    C8813592   0.264   1.756   7.720 -0.2054 -0.3407 -0.1201
   33MOL    C8913593   0.150   1.838   0.016 -0.8609  0.9574  0.9773
   33MOL    C9013594   0.153   1.991   0.006  0.5418 -0.5145 -0.5497
   33MOL    C9113595   0.135   1.799   0.167  0.0559 -0.9030 -0.3509
   33MOL    C9213596   0.024   1.785   7.701 -0.5107 -0.4194 -0.2839
   33MOL    H9313597   0.399   1.931   0.112  0.7562  0.5851 -0.0844
   33MOL    H9413598   0.532   1.823   0.092 -1.0765  0.0459  2.9489
   33MOL    H9513599   0.367   1.912   7.617  1.1878 -0.6539 -1.1515
   33MOL    H9613600   0.294   1.672   0.016  2.1310 -0.4032 -1.2550
   33MOL    H9713601   0.223   1.712   7.629 -4.2237  1.0096  0.9440
   33MOL    H9813602   0.183   2.019   7.671  1.0310  1.9373  0.2362
   33MOL    H9913603   0.224   2.040   0.072 -3.2230  0.0595  3.2529
   33MOL   H10013604   0.063   2.045   0.035  1.0381  1.2181 -2.1680
   33MOL   H10113605   0.140   1.690   0.174  2.2448 -0.7442  1.3582
   33MOL   H10213606   0.223   1.818   0.229 -0.2019 -1.8463  0.3138
   33MOL   H10313607   0.044   1.840   0.212 -0.1210 -0.5531 -1.0227
   33MOL   H10413608   0.023   1.837   7.605 -1.7924  0.6588  0.2917
   33MOL   H10513609   0.011   1.678   7.693 -3.9717 -0.1257  0.6650
   33MOL   H10613610   7.699   1.826   7.747 -0.7445  0.4623 -1.5087
   33MOL   C10713611   0.495   1.725   7.621 -0.3206  0.0246 -0.6948
   33MOL   C10813612   0.458   1.656   7.491 -0.2252  0.4062  0.1236
   33MOL   C10913613   0.424   1.746   7.370 -0.0373 -0.5471 -0.2474
   33MOL   C11013614   0.316   1.717   7.271 -0.2554 -0.8855 -0.7602
   33MOL   C11113615   0.184   1.709   7.345  0.2116 -0.0950 -0.2943
   33MOL   C11213616   0.342   1.582   7.189 -0.4061  0.2710 -0.4780
   33MOL   C11313617   0.307   1.837   7.170 -0.8578  0.1516  0.0811
   33MOL   H11413618   0.506   1.654   7.704 -1.3099 -1.1595 -1.5734
   33MOL   H11513619   0.597   1.763   7.607 -0.0795 -0.4415 -0.2281
   33MOL   H11613620   0.371   1.596   7.518  0.7856 -0.9961  0.3158
   33MOL   H11713621   0.414   1.849   7.407  0.7716 -0.0622 -1.3482
   33MOL   H11813622   0.520   1.759   7.320  0.2271 -0.1359  0.3506
   33MOL   H11913623   0.111   1.703   7.263 -0.4631  0.5465  0.2475
   33MOL   H12013624   0.175   1.619   7.405  1.8353  0.1736  0.3553
   33MOL   H12113625   0.156   1.794   7.408  2.8969 -1.4725  2.8911
   33MOL   H12213626   0.260   1.559   7.121  0.9293 -3.8310 -0.8640
   33MOL   H12313627   0.350   1.494   7.253 -1.4735  1.7527  1.7095
   33MOL   H12413628   0.430   1.586   7.123  0.1287 -0.8955  0.1355
   33MOL   H12513629   0.219   1.822   7.108 -1.5247 -1.7992  1.4448
   33MOL   H12613630   0.391   1.855   7.102  1.4336 -1.3677  2.4379
   33MOL   H12713631   0.277   1.930   7.217 -1.7545 -0.2215  0.2534
   33MOL   C12813632   0.573   1.547   7.452  0.4981 -0.1927 -0.1376
   33MOL   C12913633   0.571   1.421   7.544  0.2270 -0.1309  0.8430
   33MOL   C13013634   0.467   1.324   7.492 -0.5769 -0.0524 -0.2053
   33MOL   C13113635   0.362   1.266   7.599  1.0428  0.3219  0.1152
   33MOL   C13213636   0.279   1.163   7.513  0.0106  0.5706 -0.2681
   33MOL   C13313637   0.266   1.374   7.644 -0.3472  0.9575 -0.4998
   33MOL   C13413638   0.431   1.202   7.722 -0.3260  0.1650 -0.0304
   33MOL   H13513639   0.660   1.612   7.458  0.2560  0.1841 -0.6356
   33MOL   H13613640   0.567   1.514   7.348  1.5318  0.2856 -0.3510
   33MOL   H13713641   0.540   1.448   7.645  0.2776  2.7801  0.1399
   33MOL   H13813642   0.395   1.372   7.426 -0.9276 -0.1903  0.0794
   33MOL   H13913643   0.515   1.248   7.430 -0.7881  0.7569 -1.3645
   33MOL   H14013644   0.204   1.102   7.563  0.6825 -1.4090 -1.6034
   33MOL   H14113645   0.350   1.098   7.461  0.2069 -1.4605  2.4313
   33MOL   H14213646   0.229   1.216   7.433  0.8476  1.7672 -0.0124
   33MOL   H14313647   0.311   1.448   7.709  3.1100 -2.2489  0.8913
   33MOL   H14413648   0.182   1.331   7.699  1.3854 -1.4922  0.2972
   33MOL   H14513649   0.224   1.420   7.554 -1.9525  1.2949  0.4067
   33MOL   H14613650   0.359   1.171   0.031 -1.2588 -0.6965 -1.2638
   33MOL   H14713651   0.496   1.119   7.697  0.7740  1.6229 -2.2323
   33MOL   H14813652   0.496   1.275   0.004  2.5724 -0.8740 -2.2067
   33MOL   C14913653   0.703   1.340   7.557 -0.2643 -0.1436 -0.0345
   33MOL   C15013654   0.818   1.396   7.643  0.2902  0.1489 -0.3813
   33MOL   C15113655   0.785   1.384   0.031  0.1787  0.2594  0.1727
   33MOL   C15213656   0.825   1.499   0.126 -0.2011  0.3652  0.4483
   33MOL   C15313657   0.746   1.629   0.104 -0.3391 -0.1973  0.2842
   33MOL   C15413658   0.977   1.521   0.119  0.0943  0.7047  0.8973
   33MOL   C15513659   0.801   1.448   0.266  0.8780 -0.4314  0.1381
   33MOL   H15613660   0.734   1.322   7.454 -1.1018  2.3595 -0.7566
   33MOL   H15713661   0.686   1.241   7.599  1.4604 -0.1641  0.6579
   33MOL   H15813662   0.822   1.503   7.626 -1.9280  0.3414  0.1659
   33MOL   H15913663   0.832   1.294   0.071  0.1139  0.3834  0.5290
   33MOL   H16013664   0.680   1.365   0.048 -0.1666  1.7617 -0.1464
   33MOL   H16113665   0.775   1.704   0.177 -0.8009  0.2550  0.0101
   33MOL   H16213666   0.765   1.659   0.001  0.7072 -1.9560 -0.0615
   33MOL   H16313667   0.640   1.605   0.113 -1.1551  1.9926 -2.7499
   33MOL   H16413668   1.033   1.428   0.120  0.0240  0.6679  1.5145
   33MOL   H16513669   1.013   1.591   0.194 -0.9790  0.8934  1.2529
   33MOL   H16613670   1.010   1.558   0.022  2.3229  0.5122  1.5629
   33MOL   H16713671   0.854   1.357   0.294 -1.5758 -2.2036 -0.7890
   33MOL   H16813672   0.815   1.526   0.341  1.5734 -0.3818 -0.0422
   33MOL   H16913673   0.695   1.425   0.276  1.1507 -1.3374  1.0208
   33MOL   C17013674   0.955   1.332   7.608 -0.3050 -0.1567  0.0589
   33MOL   C17113675   1.002   1.342   7.457  0.5849 -0.2048 -0.2335
   33MOL   C17213676   1.112   1.239   7.424  0.1040 -0.3131 -0.7070
   33MOL   C17313677   1.081   1.095   7.373 -0.9381  0.2144  0.0892
   33MOL   C17413678   0.985   1.097   7.248  1.0695 -0.4731  1.0634
   33MOL   C17513679   1.034   1.001   7.488 -0.1040  0.2430 -0.0904
   33MOL   C17613680   1.212   1.031   7.312 -0.0809 -0.2877 -0.4230
   33MOL   H17713681   0.960   1.228   7.639  0.4491 -0.4221 -0.9248
   33MOL   H17813682   1.042   1.380   7.654  0.0259  2.2358 -2.8661
   33MOL   H17913683   0.924   1.324   7.384  0.8166 -1.0899 -0.2643
   33MOL   H18013684   1.172   1.288   7.348 -1.1757 -0.9419 -2.1405
   33MOL   H18113685   1.184   1.234   7.506 -1.4317 -1.5255  0.5953
   33MOL   H18213686   0.962   0.993   7.221 -1.2744 -0.3387  2.3996
   33MOL   H18313687   0.884   1.128   7.276 -0.0536 -1.0734 -2.1347
   33MOL   H18413688   1.027   1.150   7.163  1.3983 -0.7332  1.0649
   33MOL   H18513689   1.031   0.900   7.447  1.4178 -0.1000  0.6320
   33MOL   H18613690   1.101   1.001   7.573  0.1355  0.5188 -0.2774
   33MOL   H18713691   0.935   1.028   7.525  0.3967  0.3708  1.1735
   33MOL   H18813692   1.286   1.003   7.387 -0.2749  0.6712  0.1199
   33MOL   H18913693   1.186   0.954   7.239  0.1991 -3.3674  2.5824
   33MOL   H19013694   1.263   1.105   7.251 -1.0117 -1.0291 -2.1422
   33MOL   C19113695   1.057   1.484   7.433  0.2085  0.6878 -0.0525
   33MOL   C19213696   1.058   1.533   7.287 -1.1217 -0.0929 -0.5383
   33MOL   C19313697   1.177   1.638   7.257 -0.3461  0.1372  0.3395
   33MOL   C19413698   1.327   1.585   7.235  0.1334  0.2948 -0.0934
   33MOL   C19513699   1.384   1.492   7.339 -0.2321 -0.2858 -0.3546
   33MOL   C19613700   1.414   1.705   7.211 -0.5694  0.0217  0.3543
   33MOL   C19713701   1.337   1.499   7.110  0.0662  0.0315 -0.7637
   33MOL   H19813702   0.996   1.557   7.488 -2.3990 -0.3741 -1.4120
   33MOL   H19913703   1.159   1.492   7.469  0.6219  0.5938 -1.1788
   33MOL   H20013704   1.075   1.452   7.216  1.0204  0.4652 -0.7143
   33MOL   H20113705   1.169   1.722   7.326 -1.0028  0.4388 -0.1024
   33MOL   H20213706   1.143   1.682   7.164 -2.2072 -1.3206  0.2936
   33MOL   H20313707   1.487   1.466   7.315 -0.2333  1.1785 -2.0164
   33MOL   H20413708   1.387   1.544   7.435  3.7499  2.0291 -1.5828
   33MOL   H20513709   1.319   1.407   7.355  1.2129 -1.2070  0.7546
   33MOL   H20613710   1.518   1.690   7.182 -0.8121  0.6757 -0.9116
   33MOL   H20713711   1.373   1.763   7.128  0.8498 -0.3201 -0.6048
   33MOL   H20813712   1.413   1.770   7.298  0.4848  1.2351 -0.5083
   33MOL   H20913713   1.302   1.559   7.026  0.0659  1.1718  0.0398
   33MOL   H21013714   1.433   1.453   7.086 -1.6573 -3.2143 -1.7294
   33MOL   H21113715   1.275   1.410   7.124  2.5579 -1.4995  1.0213
   33MOL   C21213716   0.913   1.579   7.263  0.5906 -0.1890 -0.1677
   33MOL   C21313717   0.873   1.597   7.116 -0.0536  0.5846 -0.6875
   33MOL   C21413718   0.769   1.713   7.084  0.0496 -0.2464 -0.0751
   33MOL   C21513719   0.821   1.855   7.053 -0.3447 -0.0069  0.5051
   33MOL   C21613720   0.697   1.948   7.014 -0.2671 -0.4109 -0.6577
   33MOL   C21713721   0.892   1.915   7.171 -0.6460 -0.2607  0.0388
   33MOL   C21813722   0.915   1.843   6.931 -0.6848  0.1707  0.4239
   33MOL   H21913723   0.847   1.501   7.302  1.3582 -0.1326  1.2947
   33MOL   H22013724   0.900   1.675   7.313 -0.0216  0.2081 -1.0914
   33MOL   H22113725   0.963   1.630   7.065 -2.0524  2.9766 -2.8075
   33MOL   H22213726   0.706   1.728   7.172  0.1241 -2.1160  0.3236
   33MOL   H22313727   0.707   1.688   6.998 -1.6137 -0.6035  1.2104
   33MOL   H22413728   0.647   1.914   6.924  0.6313  0.6319 -1.5610
   33MOL   H22513729   0.721   2.053   6.997  0.6096 -0.5784 -0.4829
   33MOL   H22613730   0.620   1.956   7.090 -1.0575  0.1626 -1.5140
   33MOL   H22713731   0.972   1.844   7.193  0.1510 -0.2591 -2.7329
   33MOL   H22813732   0.942   2.008   7.146 -0.2029 -0.7682 -0.9668
   33MOL   H22913733   0.821   1.931   7.252  0.0568  0.3359  0.5443
   33MOL   H23013734   1.008   1.791   6.956  0.3717  0.6458 -2.3522
   33MOL   H23113735   0.951   1.940   6.897 -0.8667  0.4492  1.0193
   33MOL   H23213736   0.869   1.782   6.854 -2.9536  3.0584 -0.6006
   33MOL   C23313737   0.826   1.465   7.058  0.7385  0.3975 -0.7672
   33MOL   C23413738   0.847   1.448   6.905 -0.3276  0.6461  0.5063
   33MOL   C23513739   1.005   1.425   6.879  0.0502 -0.1414 -0.1449
   33MOL   C23613740   1.064   1.465   6.739 -0.6483  0.5486  0.5174
   33MOL   C23713741   0.986   1.389   6.636  1.1311  0.0196  0.7432
   33MOL   C23813742   1.071   1.617   6.719 -0.3989  0.2671 -0.1903
   33MOL   C23913743   1.213   1.417   6.740  0.0470  0.2297  0.5587
   33MOL   H24013744   0.722   1.457   7.089  0.7840 -0.0678 -0.7249
   33MOL   H24113745   0.854   1.373   7.109  0.0625  1.6120  1.8771
   33MOL   H24213746   0.825   1.544   6.856 -3.1183  0.1809  0.7905
   33MOL   H24313747   1.060   1.477   6.958  2.2285 -1.2086 -0.9286
   33MOL   H24413748   1.029   1.325   6.913  1.0193 -0.3177 -1.3153
   33MOL   H24513749   1.026   1.403   6.536  1.3135 -0.0511  0.8063
   33MOL   H24613750   0.889   1.438   6.631  0.8926 -0.5423 -0.2054
   33MOL   H24713751   0.967   1.285   6.662  0.2295  0.5052  2.0791
   33MOL   H24813752   0.973   1.664   6.722 -1.4571 -1.9824  3.0190
   33MOL   H24913753   1.126   1.669   6.796  0.5589 -1.1382  0.1017
   33MOL   H25013754   1.122   1.642   6.626 -2.1919 -0.7277 -1.4806
   33MOL   H25113755   1.272   1.477   6.671 -0.6049 -0.3042 -0.4754
   33MOL   H25213756   1.249   1.439   6.840  3.1271 -1.4321 -0.1451
   33MOL   H25313757   1.210   1.308   6.733 -0.2880  0.1428  1.9610
   33MOL   C25413758   0.738   1.344   6.855  0.0389  0.8685  0.3598
   33MOL   C25513759   0.625   1.395   6.766  0.2043  0.2690 -0.1939
   33MOL   C25613760   0.532   1.500   6.839 -0.2219 -0.5115  0.6345
   33MOL   C25713761   0.476   1.621   6.765 -0.2080  0.5158 -0.9052
   33MOL   C25813762   0.592   1.705   6.712 -0.5274  0.6230 -0.1832
   33MOL   C25913763   0.391   1.709   6.859 -0.1271 -0.0336  0.6574
   33MOL   C26013764   0.389   1.585   6.642 -0.1603  0.3651 -0.2844
   33MOL   H26113765   0.685   1.291   6.935  0.3491 -0.6301 -0.4124
   33MOL   H26213766   0.797   1.279   6.791  1.6823  2.3761  0.3004
   33MOL   H26313767   0.681   1.448   6.689  0.7021  0.0619  0.0229
   33MOL   H26413768   0.443   1.444   6.866 -1.9418  0.4487 -2.7595
   33MOL   H26513769   0.577   1.530   6.933 -0.4760 -2.6506  1.4614
   33MOL   H26613770   0.630   1.646   6.628  0.6893  0.7510  0.2618
   33MOL   H26713771   0.680   1.705   6.777  0.4482  1.9517 -1.4494
   33MOL   H26813772   0.567   1.805   6.677  1.3793  1.0762 -0.3473
   33MOL   H26913773   0.452   1.714   6.949  0.1381  1.9626  0.3809
   33MOL   H27013774   0.299   1.658   6.889 -0.0099 -0.3384  0.5028
   33MOL   H27113775   0.367   1.801   6.807 -3.3891 -1.1327  0.0421
   33MOL   H27213776   0.302   1.524   6.665  0.6108 -0.4096  0.6324
   33MOL   H27313777   0.355   1.672   6.586 -1.3295 -0.6034 -1.1079
   33MOL   H27413778   0.452   1.539   6.566  0.6961 -1.0829  1.2686
   33MOL   C27513779   0.532   1.279   6.722  0.2346  0.3121  0.3512
   33MOL   C27613780   0.593   1.179   6.619  0.0457 -0.3657  0.3193
   33MOL   C27713781   0.514   1.038   6.609  0.1040 -0.0781  0.6036
   33MOL   C27813782   0.583   0.926   6.681 -0.3973 -0.0550  0.9014
   33MOL   C27913783   0.728   0.908   6.615  0.5662  0.3932  0.2784
   33MOL   C28013784   0.594   0.960   6.827 -0.2304 -0.3665  0.4114
   33MOL   C28113785   0.504   0.790   6.663 -0.5465 -1.0127  0.5754
   33MOL   H28213786   0.495   1.216   6.803  2.2947 -2.6352 -0.9016
   33MOL   H28313787   0.440   1.302   6.668 -1.4830 -2.5358  1.9143
   33MOL   H28413788   0.697   1.167   6.648  0.0054  1.0485  1.0707
   33MOL   H28513789   0.495   1.002   6.508  0.2159  0.5213  0.3648
   33MOL   H28613790   0.414   1.055   6.650 -0.3274 -1.5035  0.1430
   33MOL   H28713791   0.725   0.939   6.511 -1.5671  1.3694  0.6091
   33MOL   H28813792   0.806   0.967   6.664  1.8537 -1.5087  0.5894
   33MOL   H28913793   0.768   0.807   6.626 -0.0568  0.2989  1.8474
   33MOL   H29013794   0.636   0.875   6.881  1.0027  0.0539  0.1219
   33MOL   H29113795   0.497   0.980   6.873 -1.5474  0.0797 -2.4871
   33MOL   H29213796   0.667   1.037   6.852 -0.8075 -0.1052  1.3036
   33MOL   H29313797   0.503   0.759   6.558  0.4622 -1.4484  0.6902
   33MOL   H29413798   0.403   0.794   6.702 -0.1647  1.2368  1.3957
   33MOL   H29513799   0.554   0.706   6.712  2.4516 -0.2388 -0.9932
   33MOL   C29613800   0.581   1.246   6.481  0.1402 -0.5290  0.7713
   33MOL   C29713801   0.676   1.188   6.368  0.2212 -0.1365 -0.5865
   33MOL   C29813802   0.823   1.179   6.416  0.2404  0.1053 -0.3413
   33MOL   C29913803   0.939   1.122   6.321 -0.6421  0.6604 -0.6502
   33MOL   C30013804   1.035   1.059   6.427 -0.0770  0.4925  0.2795
   33MOL   C30113805   0.890   1.006   6.229 -0.4926  0.2129  0.0862
   33MOL   C30213806   1.009   1.231   6.243 -0.0266 -0.1605  0.4038
   33MOL   H30313807   0.589   1.355   6.492  0.7348 -0.6868  2.0068
   33MOL   H30413808   0.478   1.236   6.448  0.8243 -0.5296 -1.4548
   33MOL   H30513809   0.639   1.089   6.344 -0.6347  0.2157 -0.7644
   33MOL   H30613810   0.824   1.116   6.505 -0.2642  2.9527  1.7542
   33MOL   H30713811   0.845   1.281   6.448  1.0177 -0.9262  2.5754
   33MOL   H30813812   1.063   1.131   6.504 -0.0127 -0.1052  0.8194
   33MOL   H30913813   0.973   0.982   6.473  0.0036  0.8816  1.0410
   33MOL   H31013814   1.124   1.015   6.380 -0.7608 -3.4859  2.5206
   33MOL   H31113815   0.974   0.984   6.163 -0.4153  0.0549  0.2363
   33MOL   H31213816   0.866   0.922   6.294 -3.5161  0.5933 -0.4791
   33MOL   H31313817   0.817   1.042   6.157  1.0344 -1.8289 -2.6141
   33MOL   H31413818   1.104   1.199   6.199 -0.3092 -2.0301  1.1251
   33MOL   H31513819   0.946   1.273   6.164  1.3606  2.3315  0.5385
   33MOL   H31613820   1.029   1.320   6.302 -2.4431  0.4306  0.3595
   33MOL   C31713821   0.662   1.269   6.234  0.2648 -0.2095  0.2928
   33MOL   C31813822   0.521   1.282   6.160 -0.0059 -0.4680  0.3003
   33MOL   C31913823   0.525   1.403   6.064 -0.6550  0.1110  0.8135
   33MOL   C32013824   0.451   1.531   6.107  0.5887 -0.7238  0.7600
   33MOL   C32113825   0.299   1.517   6.129 -0.3894  0.2556  0.3916
   33MOL   C32213826   0.478   1.635   5.998  0.2641 -0.0767  0.4861
   33MOL   C32313827   0.510   1.587   6.241  0.0143  0.5782  1.5161
   33MOL   H32413828   0.699   1.371   6.248 -0.1855 -0.1038  0.7195
   33MOL   H32513829   0.728   1.217   6.165  0.0630  0.9509 -0.7887
   33MOL   H32613830   0.446   1.305   6.237  0.5015  2.4125 -0.0288
   33MOL   H32713831   0.481   1.372   5.970  1.0634 -0.5040  0.1887
   33MOL   H32813832   0.629   1.412   6.031 -0.6895  0.2392  0.7410
   33MOL   H32913833   0.252   1.482   6.037 -2.4036  0.1141  1.4399
   33MOL   H33013834   0.247   1.609   6.159 -1.1616  0.8234 -2.4966
   33MOL   H33113835   0.265   1.443   6.201  0.2094 -0.5644 -0.1666
   33MOL   H33213836   0.575   1.681   6.012 -0.1394  0.8555  0.2422
   33MOL   H33313837   0.468   1.597   5.896  0.8026  1.0748  0.0106
   33MOL   H33413838   0.398   1.709   5.999  0.1704 -0.1013 -2.0832
   33MOL   H33513839   0.617   1.603   6.223  0.2087 -2.4883 -0.6314
   33MOL   H33613840   0.503   1.521   6.327  0.1207 -1.5152 -0.0460
   33MOL   H33713841   0.459   1.681   6.260  0.5952  1.0596  0.7506
   33MOL   C33813842   0.480   1.153   6.086 -0.0041 -0.0642 -0.2599
   33MOL   C33913843   0.385   1.061   6.162  0.1886  0.0954 -0.0950
   33MOL   C34013844   0.342   0.938   6.088 -0.3835 -0.1470  0.4657
   33MOL   C34113845   0.441   0.819   6.056 -0.0738  0.1194  0.4617
   33MOL   C34213846   0.551   0.799   6.161  0.1894 -0.3900 -0.5548
   33MOL   C34313847   0.352   0.691   6.040  1.0348  0.3205 -0.3622
   33MOL   C34413848   0.517   0.833   5.921 -0.5636 -0.5298  0.4393
   33MOL   H34513849   0.568   1.102   6.046  1.6788  1.6848  1.1456
   33MOL   H34613850   0.428   1.170   5.991 -3.2418  1.6221  1.7460
   33MOL   H34713851   0.441   1.032   6.251 -0.3019 -1.0289 -0.1346
   33MOL   H34813852   0.295   0.965   5.994  2.5389 -0.6210 -1.1941
   33MOL   H34913853   0.265   0.890   6.148  2.0662 -2.7613  1.6924
   33MOL   H35013854   0.624   0.724   6.131  2.3287  1.1116  0.7614
   33MOL   H35113855   0.625   0.879   6.172  0.5426 -1.0733  2.2894
   33MOL   H35213856   0.515   0.781   6.262  0.3515 -1.0028 -0.6029
   33MOL   H35313857   0.262   0.711   5.980  1.4642  2.4734 -0.3115
   33MOL   H35413858   0.401   0.613   5.982  0.9564 -1.6330  2.1092
   33MOL   H35513859   0.321   0.649   6.135  0.2548 -1.0185 -1.1836
   33MOL   H35613860   0.576   0.925   5.915  1.1398 -1.4888  2.1695
   33MOL   H35713861   0.579   0.746   5.901  0.5919  0.3439  0.1563
   33MOL   H35813862   0.442   0.823   5.843 -1.7161  0.9698  1.3193
   33MOL   C35913863   0.258   1.144   6.220 -0.1694  0.7267  0.3469
   33MOL   C36013864   0.140   1.079   6.291  0.5403  0.2081  0.3222
   33MOL   C36113865   0.017   1.178   6.299  0.2392  0.3062  0.1972
   33MOL   C36213866   7.667   1.177   6.190  0.0750 -0.5747  0.4314
   33MOL   C36313867   7.583   1.061   6.218  0.8152 -0.0723 -0.2112
   33MOL   C36413868   7.730   1.161   6.052  0.0531 -0.5715  0.8021
   33MOL   C36513869   7.590   1.312   6.187  0.7732  0.0217  0.5553
   33MOL   H36613870   0.226   1.219   6.146 -1.2525  1.0194  1.1016
   33MOL   H36713871   0.291   1.213   6.298 -0.7521 -1.3200  2.4587
   33MOL   H36813872   0.111   0.994   6.229  1.0597 -1.0760  1.7964
   33MOL   H36913873   7.742   1.173   6.400 -2.9546  2.8247 -0.8759
   33MOL   H37013874   0.058   1.278   6.284 -0.2717  0.1265 -2.5885
   33MOL   H37113875   7.643   0.970   6.214  0.7357 -0.1559  0.4360
   33MOL   H37213876   7.536   1.050   6.317  0.2600 -1.7659 -0.6354
   33MOL   H37313877   7.490   1.044   6.163  0.1467  1.0659  0.5413
   33MOL   H37413878   0.046   1.228   6.026 -1.3056  0.4381 -1.0086
   33MOL   H37513879   7.653   1.158   5.975  0.7754  2.2995 -0.1047
   33MOL   H37613880   0.012   1.065   6.036  0.5739 -0.2430  0.3839
   33MOL   H37713881   7.563   1.345   6.287  0.0845  1.3111 -0.0402
   33MOL   H37813882   7.495   1.290   6.138  0.9693  0.7581 -0.1854
   33MOL   H37913883   7.638   1.398   6.139  1.4331 -0.7664 -0.2412
   33MOL   C38013884   0.191   1.034   6.434  0.1674  0.6216 -0.0854
   33MOL   C38113885   0.090   0.945   6.518  0.2212  0.3975  0.3603
   33MOL   C38213886   0.128   0.936   6.670 -0.8223 -0.6238  0.1534
   33MOL   C38313887   0.061   1.031   6.772  0.3190 -0.3314  0.1921
   33MOL   C38413888   0.048   1.174   6.705 -0.3364 -0.3172  0.6638
   33MOL   C38513889   0.143   1.041   6.900 -0.4305 -0.1926 -0.0060
   33MOL   C38613890   7.686   0.975   6.790 -0.1578 -0.6980 -0.4456
   33MOL   H38713891   0.209   1.128   6.486  2.4872 -0.3198  0.8718
   33MOL   H38813892   0.287   0.981   6.425 -1.4482 -1.9840 -2.9535
   33MOL   H38913893   7.755   0.988   6.518 -0.1962 -0.5708 -0.7361
   33MOL   H39013894   0.110   0.834   6.702 -0.6751 -0.3602  1.0729
   33MOL   H39113895   0.236   0.951   6.673 -0.8845 -0.1290  0.0218
   33MOL   H39213896   0.141   1.227   6.684 -1.2309  1.1195  0.2878
   33MOL   H39313897   7.748   1.165   6.618  0.1079 -1.4695  0.4292
   33MOL   H39413898   0.008   1.244   6.779 -1.3706  1.6750 -1.6955
   33MOL   H39513899   0.228   1.107   6.884 -0.6643  0.0010 -0.4453
   33MOL   H39613900   0.182   0.945   6.934 -0.7391  0.2974  1.8319
   33MOL   H39713901   0.081   1.084   6.979 -0.6821 -1.8286  0.7184
   33MOL   H39813902   7.685   0.870   6.820 -2.1772 -0.7198 -0.5147
   33MOL   H39913903   7.623   0.996   6.703 -0.4226  1.7403  0.2809
   33MOL   H40013904   7.639   1.033   6.869 -2.2300 -0.5789 -1.7399
   33MOL   C40113905   0.083   0.803   6.455  0.2769  0.2598 -0.1811
   33MOL   C40213906   0.215   0.725   6.439  0.2325  0.1822  0.0557
   33MOL   C40313907   0.196   0.577   6.399  0.6235  0.3673 -0.2152
   33MOL   C40413908   0.206   0.461   6.509 -1.0320 -0.1810  0.2403
   33MOL   C40513909   0.116   0.506   6.620  0.1560  0.1090 -0.1076
   33MOL   C40613910   0.355   0.455   6.556  0.2134  0.1188  0.6184
   33MOL   C40713911   0.166   0.330   6.445  0.1682 -0.1282 -0.5098
   33MOL   H40813912   0.017   0.743   6.517  1.6279 -0.4166  0.6194
   33MOL   H40913913   0.028   0.818   6.362 -0.4487 -2.7717 -0.2874
   33MOL   H41013914   0.275   0.781   6.367  1.5941 -3.4417 -1.7300
   33MOL   H41113915   0.262   0.558   6.315  2.5628  0.1674  1.3089
   33MOL   H41213916   0.096   0.572   6.357  1.4598 -0.8225 -2.1448
   33MOL   H41313917   0.082   0.438   6.698 -2.7884  1.6306 -0.0005
   33MOL   H41413918   0.019   0.545   6.589 -0.2001 -0.0508  0.7792
   33MOL   H41513919   0.155   0.591   6.677  1.9285 -0.1227 -0.9551
   33MOL   H41613920   0.368   0.535   6.630  0.9207 -0.1840  0.8328
   33MOL   H41713921   0.423   0.474   6.473  2.0413  0.7705  2.2179
   33MOL   H41813922   0.379   0.362   6.606  2.7609 -0.0221 -0.7584
   33MOL   H41913923   0.067   0.329   6.399  0.0869  1.2251 -0.3637
   33MOL   H42013924   0.232   0.304   6.362  2.7128 -0.6654  1.6043
   33MOL   H42113925   0.172   0.243   6.511 -0.3072  0.5220  0.4017
   33MOL   H42213926   0.264   0.725   6.537 -0.1694 -0.9506  0.2666
   34MOL     C113927   0.940   7.735   0.749  0.6620  0.0002 -0.2611
   34MOL     C213928   0.874   7.616   0.689 -0.3323 -0.1149 -0.0388
   34MOL     C313929   0.958   7.561   0.569 -0.0803 -0.0825 -0.0951
   34MOL     C413930   1.093   7.489   0.597  0.0750  0.6026 -0.2852
   34MOL     C513931   1.089   7.387   0.708 -0.1547  0.0681 -0.2677
   34MOL     C613932   1.131   7.404   0.468 -0.0546 -0.2104 -0.3940
   34MOL     C713933   1.205   7.593   0.613  0.5101 -0.3670 -0.0555
   34MOL     H813934   1.022   7.711   0.816  0.5235 -1.2424 -0.5197
   34MOL     H913935   0.972   0.048   0.681 -2.3867  2.3386  0.8883
   34MOL    H1013936   0.859   7.546   0.771 -0.2114  2.2013  2.0247
   34MOL    H1113937   0.975   7.625   0.483  2.0435  0.3769  0.6191
   34MOL    H1213938   0.896   7.482   0.527 -0.5290  0.7237 -0.9597
   34MOL    H1313939   1.057   7.438   0.799  1.7992  1.2396 -0.2109
   34MOL    H1413940   1.182   7.333   0.719 -1.1853 -1.3233  1.7300
   34MOL    H1513941   1.004   7.323   0.685 -1.6242  1.2694  1.6783
   34MOL    H1613942   1.122   7.467   0.379 -0.9959  1.0920  0.5894
   34MOL    H1713943   1.235   7.372   0.473  1.2383  3.7874 -0.0709
   34MOL    H1813944   1.065   7.317   0.476  0.2458 -0.4462 -0.5106
   34MOL    H1913945   1.292   7.535   0.644  0.3710 -0.4995  0.0839
   34MOL    H2013946   1.189   7.674   0.685 -0.4833  0.4768 -1.1924
   34MOL    H2113947   1.229   7.642   0.519 -1.3361  0.2590 -0.2176
   34MOL    H2213948   0.867   0.027   0.806  1.4875  0.5595  0.2402
   34MOL    C2313949   0.726   7.657   0.656 -0.2017 -0.2927  0.2051
   34MOL    C2413950   0.632   7.554   0.588 -0.0607 -1.0002  0.1124
   34MOL    C2513951   0.515   7.621   0.520  0.6452 -0.3065 -0.0873
   34MOL    C2613952   0.520   7.664   0.369 -0.4925 -0.3268 -0.3684
   34MOL    C2713953   0.534   7.552   0.254 -0.1419  0.0729 -0.6808
   34MOL    C2813954   0.381   7.732   0.339 -0.1195 -0.1198 -0.0319
   34MOL    C2913955   0.628   0.008   0.344 -0.1444  0.6128 -0.5360
   34MOL    H3013956   0.662   7.693   0.736 -1.0003  1.0509 -1.0158
   34MOL    H3113957   0.744   7.742   0.590 -1.7932  1.8930  2.4842
   34MOL    H3213958   0.691   7.511   0.508  0.8312  0.6828 -0.1574
   34MOL    H3313959   0.482   7.702   0.585  0.4959 -1.6673  1.5720
   34MOL    H3413960   0.424   7.565   0.539  0.5335  1.0166  3.6151
   34MOL    H3513961   0.633   7.558   0.210  0.1104  0.8675 -0.0013
   34MOL    H3613962   0.532   7.454   0.302  2.6955 -0.3261 -1.2800
   34MOL    H3713963   0.469   7.567   0.167 -1.4692 -2.6491 -0.2266
   34MOL    H3813964   0.313   7.647   0.325 -0.2203  0.0176 -0.3813
   34MOL    H3913965   0.338   0.034   0.413  1.2538  0.7328  0.0053
   34MOL    H4013966   0.387   0.029   0.251  1.0588  2.0662  1.5602
   34MOL    H4113967   0.725   7.735   0.376  0.1054  1.9070  0.3242
   34MOL    H4213968   0.636   0.086   0.419  1.8161  1.8918 -2.0305
   34MOL    H4313969   0.631   0.060   0.249 -2.8889  1.5324 -0.1596
   34MOL    C4413970   0.579   7.445   0.686 -0.0152 -0.0281  0.0772
   34MOL    C4513971   0.561   7.301   0.630 -0.8703 -0.1305 -0.3701
   34MOL    C4613972   0.455   7.227   0.715 -0.0686  0.3491  0.0313
   34MOL    C4713973   0.307   7.209   0.667  0.1448  0.3412 -0.0226
   34MOL    C4813974   0.298   7.143   0.531  0.1126 -0.5537  0.2946
   34MOL    C4913975   0.222   7.338   0.689 -0.7443  0.2653 -0.1241
   34MOL    C5013976   0.248   7.104   0.766 -0.2129 -0.8516  0.7501
   34MOL    H5113977   0.639   7.442   0.778  0.9917 -1.6512 -0.6034
   34MOL    H5213978   0.483   7.484   0.721  0.5388  1.0884  0.3644
   34MOL    H5313979   0.526   7.316   0.528  3.4798 -3.1946 -2.4312
   34MOL    H5413980   0.463   7.273   0.813  0.6517  0.3530 -0.0255
   34MOL    H5513981   0.501   7.130   0.734  0.5185  0.4879 -0.6434
   34MOL    H5613982   0.362   7.056   0.517  3.1078  1.8856 -1.8871
   34MOL    H5713983   0.341   7.210   0.456  0.2949  0.2831  1.1269
   34MOL    H5813984   0.203   7.112   0.487 -1.1467 -1.0593  3.2656
   34MOL    H5913985   0.231   7.369   0.793  0.0345 -0.0743 -0.0866
   34MOL    H6013986   0.256   7.413   0.618  0.5227  0.1322  0.3253
   34MOL    H6113987   0.114   7.328   0.678 -0.8525  1.1257  0.1137
   34MOL    H6213988   0.292   7.004   0.762  0.4236 -0.5713  0.6688
   34MOL    H6313989   0.247   7.140   0.869 -0.2708  1.7624 -0.1249
   34MOL    H6413990   0.146   7.085   0.733 -0.1078  0.0369 -0.1154
   34MOL    C6513991   0.697   7.231   0.620  0.2617 -0.3701 -0.6734
   34MOL    C6613992   0.698   7.111   0.516 -0.4722 -0.3053 -0.0583
   34MOL    C6713993   0.807   7.005   0.551 -0.4622  0.1121  0.0798
   34MOL    C6813994   0.771   6.891   0.658 -0.0191 -0.1265 -0.4481
   34MOL    C6913995   0.657   6.797   0.605 -0.9379 -0.1629  0.3145
   34MOL    C7013996   0.892   6.810   0.687  0.0218 -0.1836 -0.1465
   34MOL    C7113997   0.729   6.941   0.790  0.2451 -0.2365 -0.0778
   34MOL    H7213998   0.776   7.305   0.599 -0.5480  0.2478 -1.6119
   34MOL    H7313999   0.716   7.203   0.723  0.6451 -1.2233 -0.9743
   34MOL    H7414000   0.604   7.056   0.505  0.1772 -1.6161  0.9460
   34MOL    H7514001   0.892   7.056   0.598  0.1925  0.0666 -1.0504
   34MOL    H7614002   0.848   6.966   0.458  0.3612 -0.5008  0.6845
   34MOL    H7714003   0.640   6.706   0.662  3.5808 -2.4077 -1.6459
   34MOL    H7814004   0.565   6.849   0.577 -1.4945 -1.7868 -1.0155
   34MOL    H7914005   0.697   6.743   0.518 -2.6318 -0.4372 -0.3185
   34MOL    H8014006   0.936   6.765   0.598 -0.2724  0.0677 -0.4192
   34MOL    H8114007   0.857   6.722   0.742 -2.7705  0.0107 -1.5228
   34MOL    H8214008   0.969   6.864   0.741 -0.3526  2.7891 -2.4961
   34MOL    H8314009   0.621   6.956   0.792  0.2892  0.0158  0.6380
   34MOL    H8414010   0.780   7.036   0.805 -0.7495  0.3019 -0.0629
   34MOL    H8514011   0.746   6.870   0.872  1.6437 -0.5858 -0.6547
   34MOL    C8614012   0.744   7.178   0.383  0.0238  0.1904 -0.3139
   34MOL    C8714013   0.714   7.103   0.247 -0.1241 -0.6832 -0.1917
   34MOL    C8814014   0.820   7.142   0.139  0.5732 -0.2411 -0.0096
   34MOL    C8914015   0.945   7.059   0.118  0.3343  0.2727 -0.1863
   34MOL    C9014016   0.912   6.909   0.105  0.0631 -0.1468 -0.4967
   34MOL    C9114017   1.055   7.079   0.224 -0.5558 -0.1204  0.4025
   34MOL    C9214018   1.005   7.106   7.748 -0.3163  0.5122  0.3330
   34MOL    H9314019   0.852   7.177   0.393  0.1972 -1.6854 -2.0925
   34MOL    H9414020   0.709   7.281   0.388 -1.1077 -0.2342  1.0831
   34MOL    H9514021   0.705   6.996   0.266  1.4351 -1.0623 -1.4338
   34MOL    H9614022   0.857   7.243   0.157  2.0517 -0.8421  0.3844
   34MOL    H9714023   0.780   7.138   0.038  1.5077 -0.7767 -0.3613
   34MOL    H9814024   1.000   6.851   0.075  0.3009 -0.9697  1.7034
   34MOL    H9914025   0.829   6.892   0.036 -0.2794 -0.2669 -0.0535
   34MOL   H10014026   0.897   6.857   0.199  0.5605  0.3160 -0.1600
   34MOL   H10114027   1.141   7.015   0.207 -0.3126  0.2330  0.3076
   34MOL   H10214028   1.087   7.182   0.238  1.3149 -0.5012 -0.9362
   34MOL   H10314029   1.015   7.053   0.322 -2.8217 -1.2769 -0.7948
   34MOL   H10414030   0.943   7.099   7.659 -0.1453 -0.8418  0.3081
   34MOL   H10514031   1.049   7.204   7.765  3.2229 -0.8533 -0.6181
   34MOL   H10614032   1.090   7.045   7.719  0.9198  1.8698  1.0572
   34MOL   C10714033   0.574   7.149   0.192 -0.1606 -0.8534 -0.2673
   34MOL   C10814034   0.501   7.041   0.112 -0.4771 -0.2035  0.4107
   34MOL   C10914035   0.438   6.935   0.205  0.2250  0.3423 -0.0783
   34MOL   C11014036   0.471   6.779   0.172  0.2170  0.6627  0.3678
   34MOL   C11114037   0.618   6.741   0.180  0.1299  0.5405 -0.2543
   34MOL   C11214038   0.408   6.752   0.031 -0.0782  0.4954 -0.1660
   34MOL   C11314039   0.400   6.684   0.275 -0.0313  0.1894  0.5310
   34MOL   H11414040   0.596   7.237   0.133  0.3447 -0.6528  0.2205
   34MOL   H11514041   0.519   7.184   0.279  0.4629 -0.2443 -0.1167
   34MOL   H11614042   0.576   6.992   0.050  0.9730  2.3352  0.0926
   34MOL   H11714043   0.476   6.948   0.307  0.0265 -1.0404  0.1808
   34MOL   H11814044   0.330   6.942   0.217  0.0159  0.0909 -1.7225
   34MOL   H11914045   0.649   6.772   0.279  1.6590 -0.4706 -0.3991
   34MOL   H12014046   0.630   6.632   0.181  1.4658  0.6892  1.2455
   34MOL   H12114047   0.662   6.792   0.095 -1.4602  0.4413 -1.1570
   34MOL   H12214048   0.390   6.646   0.015  1.4606  0.5229 -2.3337
   34MOL   H12314049   0.445   6.802   7.707  2.2811 -1.1582 -0.1547
   34MOL   H12414050   0.308   6.795   0.038 -0.7571 -1.2112  0.9231
   34MOL   H12514051   0.295   6.716   0.277  0.1543  0.7663  1.7909
   34MOL   H12614052   0.437   6.698   0.376 -1.2115 -0.9082  1.1279
   34MOL   H12714053   0.393   6.581   0.242  1.4918  1.1223 -3.0099
   34MOL   C12814054   0.390   7.101   0.018 -0.5834 -0.0722  0.3179
   34MOL   C12914055   0.438   7.184   7.665 -0.3580  0.6109 -0.0153
   34MOL   C13014056   0.494   7.095   7.559  0.8570 -0.6235  0.4584
   34MOL   C13114057   0.592   7.146   7.453  0.2343 -0.4840 -0.4563
   34MOL   C13214058   0.522   7.216   7.339 -0.5951  0.4302  0.1939
   34MOL   C13314059   0.663   7.021   7.395  0.0292  0.3486  0.8039
   34MOL   C13414060   0.705   7.229   7.516  0.3589 -0.3080  0.2513
   34MOL   H13514061   0.326   7.160   0.083 -1.7213 -1.0282  0.0830
   34MOL   H13614062   0.326   7.021   7.747 -0.8738 -0.0246  0.7182
   34MOL   H13714063   0.522   7.239   7.708  1.7979 -1.4013 -1.5392
   34MOL   H13814064   0.545   7.014   7.610  1.0301 -0.0320  1.2402
   34MOL   H13914065   0.417   7.048   7.498 -0.3929  1.1931  0.5905
   34MOL   H14014066   0.428   7.165   7.318 -0.5493  0.4139  0.0288
   34MOL   H14114067   0.590   7.227   7.255 -0.2400 -0.1729  0.3938
   34MOL   H14214068   0.500   7.322   7.351  1.5514  1.1499 -1.9298
   34MOL   H14314069   0.717   7.058   7.308  2.2855  2.9159  3.2381
   34MOL   H14414070   0.587   6.950   7.360 -1.4810  2.9508 -1.3458
   34MOL   H14514071   0.738   6.982   7.464 -0.2041  0.9387  1.3905
   34MOL   H14614072   0.751   7.183   7.603  0.8832 -3.2756 -1.5456
   34MOL   H14714073   0.786   7.243   7.445 -0.6033  0.5673 -0.6970
   34MOL   H14814074   0.670   7.322   7.560  0.3855  0.0218 -0.4046
   34MOL   C14914075   0.329   7.271   7.595 -0.2864 -0.5845 -0.0716
   34MOL   C15014076   0.234   7.358   7.683 -0.5054 -0.1103  0.7837
   34MOL   C15114077   0.201   7.495   7.611 -0.0877  0.4805 -0.1576
   34MOL   C15214078   0.289   7.624   7.634 -0.7706 -0.5648  0.1735
   34MOL   C15314079   0.436   7.591   7.634  0.0567  0.5674  0.3042
   34MOL   C15414080   0.258   7.698   7.764 -0.4867 -0.3657  0.4973
   34MOL   C15514081   0.252   7.720   7.513 -0.0694  0.4905 -0.1524
   34MOL   H15614082   0.269   7.216   7.523  0.0923  2.3832 -2.7903
   34MOL   H15714083   0.395   7.333   7.535  0.3416  0.8550  2.0470
   34MOL   H15814084   0.289   7.388   0.007  0.3009 -0.6625  0.4843
   34MOL   H15914085   0.097   7.522   7.626 -0.6377 -0.2474 -2.3936
   34MOL   H16014086   0.197   7.473   7.504  0.3008 -0.1001 -0.0576
   34MOL   H16114087   0.464   7.524   7.715  1.4616 -0.2949 -0.8662
   34MOL   H16214088   0.461   7.539   7.542  1.3532 -1.3286  1.6840
   34MOL   H16314089   0.498   7.681   7.635 -0.8477  1.2000  1.0910
   34MOL   H16414090   0.157   7.721   0.033 -1.0016 -1.0615 -0.4832
   34MOL   H16514091   0.320   0.020   0.008 -1.2482  0.2582 -0.2441
   34MOL   H16614092   0.295   7.637   0.081  0.9783  0.2097  0.2667
   34MOL   H16714093   0.244   7.691   7.408 -2.9234 -0.6260  0.3275
   34MOL   H16814094   0.146   7.738   7.529 -0.2981 -0.2663 -0.7939
   34MOL   H16914095   0.293   0.055   7.518  1.9853 -0.1628 -2.7221
   34MOL   C17014096   0.106   7.280   7.718 -0.2647  0.7122  0.4589
   34MOL   C17114097   7.754   7.337   0.036  0.2363  0.6210 -0.3650
   34MOL   C17214098   0.003   7.298   0.188 -0.8052  0.1859  0.3436
   34MOL   C17314099   7.721   7.391   0.292  0.0164 -0.8201 -0.3162
   34MOL   C17414100   7.574   7.427   0.268  0.3948 -0.3688  0.2616
   34MOL   C17514101   0.049   7.513   0.295 -0.2163 -0.3775  0.3259
   34MOL   C17614102   7.743   7.323   0.431  0.8086  0.0743 -0.1345
   34MOL   H17714103   0.125   7.180   7.756 -1.9719  0.0583 -0.3633
   34MOL   H17814104   0.066   7.246   7.622 -2.4895 -1.3891  2.0653
   34MOL   H17914105   7.758   7.444   0.018  0.6830  1.2599  3.2518
   34MOL   H18014106   7.715   7.205   0.206  0.7062 -0.7911  0.0203
   34MOL   H18114107   0.108   7.277   0.212 -0.6211 -0.6517 -1.0880
   34MOL   H18214108   7.512   7.339   0.250 -0.4720  0.7528 -2.5604
   34MOL   H18314109   7.524   7.487   0.344 -0.4537  0.5618 -1.0066
   34MOL   H18414110   7.562   7.486   0.177  1.1384 -1.3773 -0.5061
   34MOL   H18514111   0.151   7.476   0.296 -0.5914 -1.4202  0.7308
   34MOL   H18614112   0.045   7.576   0.205  2.8295  1.1636  1.2199
   34MOL   H18714113   0.029   7.589   0.371  3.3593  1.2035 -0.2265
   34MOL   H18814114   0.083   7.304   0.451  0.8134 -1.5980 -1.6258
   34MOL   H18914115   7.707   7.380   0.517 -0.8503  2.3945 -2.3325
   34MOL   H19014116   7.697   7.225   0.443 -0.1422  0.8121  2.6478
   34MOL   C19114117   7.626   7.275   7.752  0.7305 -1.1528 -0.0579
   34MOL   C19214118   7.568   7.348   7.624 -0.6648 -0.4263  0.1646
   34MOL   C19314119   7.490   7.474   7.670  0.4812  0.6633  0.1511
   34MOL   C19414120   7.464   7.595   7.573 -0.2759 -0.1784 -0.1071
   34MOL   C19514121   7.420   7.542   7.434 -0.6536  0.2947  0.6521
   34MOL   C19614122   7.593   7.682   7.557 -0.2265 -0.2269  0.0925
   34MOL   C19714123   7.355   7.677   7.651 -0.5781  0.4397  0.1574
   34MOL   H19814124   7.644   7.169   7.733 -0.8771 -1.4391 -0.1337
   34MOL   H19914125   7.541   7.272   0.054  0.8903  0.2782  0.2109
   34MOL   H20014126   7.652   7.374   7.559 -2.1938 -3.0611 -2.9903
   34MOL   H20114127   7.548   7.517   7.751 -0.3353  0.3935  0.8948
   34MOL   H20214128   7.396   7.434   7.709  1.1675 -1.9543 -0.7407
   34MOL   H20314129   7.500   7.495   7.378 -0.9643 -0.0827  0.5303
   34MOL   H20414130   7.340   7.469   7.441 -1.8383  1.3091 -1.8551
   34MOL   H20514131   7.393   7.626   7.369  0.0446  0.7068  0.8843
   34MOL   H20614132   7.565   0.011   7.512  0.3096  0.7242  1.7113
   34MOL   H20714133   7.642   7.712   7.650  1.2294  1.8876 -1.3057
   34MOL   H20814134   7.667   7.637   7.491  1.0231  2.2031 -0.2231
   34MOL   H20914135   7.333   0.008   7.607 -0.8423 -0.0534 -0.8055
   34MOL   H21014136   7.262   7.622   7.639 -1.7745  2.3442  0.4212
   34MOL   H21114137   7.382   7.683   7.756  0.0767  0.1025  0.0123
   34MOL   C21214138   7.478   7.252   7.529  0.1559  0.1427 -0.0503
   34MOL   C21314139   7.502   7.095   7.518  0.7902 -0.1996  0.3787
   34MOL   C21414140   7.638   7.069   7.445 -0.2561 -0.1554  0.0191
   34MOL   C21514141   7.728   6.948   7.467  0.0844 -0.1018  0.0421
   34MOL   C21614142   0.101   6.960   7.406  0.3439 -0.6210 -0.2882
   34MOL   C21714143   7.752   6.926   7.618  0.1462 -0.1377  1.0440
   34MOL   C21814144   7.659   6.820   7.415 -0.3092 -0.8356  0.6192
   34MOL   H21914145   7.375   7.265   7.564  0.1261 -1.7014  0.5654
   34MOL   H22014146   7.475   7.281   7.424  0.0224 -0.9956 -0.3687
   34MOL   H22114147   7.502   7.060   7.621  2.2498  0.2233  0.5362
   34MOL   H22214148   7.701   7.156   7.462  2.0771 -1.9692  0.9060
   34MOL   H22314149   7.627   7.071   7.337 -0.2788 -0.6292  0.0119
   34MOL   H22414150   0.171   6.877   7.416 -0.2764 -0.7689  3.6197
   34MOL   H22514151   0.153   7.053   7.429  2.9074 -1.2976 -2.9884
   34MOL   H22614152   0.083   6.959   7.298 -1.9515 -3.0143  0.0787
   34MOL   H22714153   7.664   6.893   7.672 -0.4042 -0.6442 -0.1354
   34MOL   H22814154   0.073   6.863   7.633 -0.8285 -1.5606  0.7683
   34MOL   H22914155   0.010   7.019   7.670 -0.9305 -0.7678  2.6989
   34MOL   H23014156   7.566   6.818   7.472 -0.3146 -1.4125  0.5883
   34MOL   H23114157   7.708   6.727   7.443  1.2002  0.1251  1.2876
   34MOL   H23214158   7.639   6.819   7.308 -0.2435 -1.6330  0.6095
   34MOL   C23314159   7.389   7.035   7.439  0.9334 -0.5824  0.2911
   34MOL   C23414160   7.251   7.033   7.508 -0.7685 -0.0429  0.0233
   34MOL   C23514161   7.146   7.118   7.421 -0.4213 -0.4203  0.1695
   34MOL   C23614162   7.022   7.180   7.487  0.1888  0.0983  0.0949
   34MOL   C23714163   6.935   7.080   7.567  0.3540  0.5338  0.0353
   34MOL   C23814164   7.056   7.300   7.577 -0.1301  0.2834  0.1474
   34MOL   C23914165   6.932   7.230   7.370 -0.1654  0.2611 -0.2029
   34MOL   H24014166   7.413   6.937   7.396 -1.0649 -0.2864 -1.5546
   34MOL   H24114167   7.385   7.084   7.341 -2.5705 -1.5171 -0.0831
   34MOL   H24214168   7.256   7.096   7.597 -0.5419  0.0343 -0.0430
   34MOL   H24314169   7.209   7.198   7.380 -0.8075 -0.7098 -1.0131
   34MOL   H24414170   7.122   7.062   7.331  1.9950  0.6979 -1.2351
   34MOL   H24514171   6.845   7.119   7.615 -1.8569 -3.3909 -0.6889
   34MOL   H24614172   6.990   7.046   7.655  0.4484 -1.6018 -0.8251
   34MOL   H24714173   6.907   6.988   7.515  1.6382 -1.8191  3.3110
   34MOL   H24814174   7.119   7.381   7.538 -2.2885  2.4257  0.9844
   34MOL   H24914175   6.964   7.350   7.607 -0.1455 -0.3220  1.1187
   34MOL   H25014176   7.100   7.254   7.665  1.8867 -1.5883 -1.7616
   34MOL   H25114177   6.841   7.258   7.424  0.9947 -2.0997  3.1685
   34MOL   H25214178   6.978   7.321   7.331 -0.8321  0.4787 -0.4923
   34MOL   H25314179   6.920   7.148   7.300 -0.5455 -0.9164  1.2000
   34MOL   C25414180   7.198   6.886   7.526  0.4160  0.3773 -0.8985
   34MOL   C25514181   7.258   6.806   7.643 -0.3886  0.1169  0.0107
   34MOL   C25614182   7.230   6.651   7.632 -0.1669  0.2385  0.0591
   34MOL   C25714183   7.326   6.555   7.556 -0.4115 -0.2178 -0.3809
   34MOL   C25814184   7.275   6.411   7.557 -0.4671  0.4995 -0.4125
   34MOL   C25914185   7.466   6.563   7.610 -0.6046 -0.3651  0.4502
   34MOL   C26014186   7.334   6.595   7.410 -0.2464 -0.7183 -0.2296
   34MOL   H26114187   7.189   6.833   7.431 -0.5125 -0.0858 -0.5613
   34MOL   H26214188   7.091   6.890   7.551  0.4302  0.2793 -0.8201
   34MOL   H26314189   7.366   6.820   7.637 -0.1714 -1.7421 -0.7737
   34MOL   H26414190   7.204   6.606   7.727 -1.7415 -2.1522 -1.4521
   34MOL   H26514191   7.137   6.631   7.579  0.9672  1.2385 -2.4304
   34MOL   H26614192   7.182   6.410   7.500  0.4063 -0.8465 -1.8469
   34MOL   H26714193   7.247   6.381   7.658  0.4418 -1.5526 -0.7373
   34MOL   H26814194   7.335   6.335   7.507  0.7824  2.7361 -2.3967
   34MOL   H26914195   7.484   6.498   7.696  2.2032 -0.3006 -0.0195
   34MOL   H27014196   7.512   6.659   7.631 -0.3171 -0.6721  1.2605
   34MOL   H27114197   7.526   6.525   7.527  1.3242 -0.0007  1.6501
   34MOL   H27214198   7.234   6.605   7.368  0.8355  2.3853 -2.2517
   34MOL   H27314199   7.385   6.690   7.398  0.0614 -0.6755  1.3894
   34MOL   H27414200   7.388   6.519   7.353  1.2913 -0.2177  0.5333
   34MOL   C27514201   7.217   6.860   0.015  0.3071 -0.2939  0.1148
   34MOL   C27614202   7.310   6.858   0.134 -0.5929  0.3983  0.3592
   34MOL   C27714203   7.248   6.928   0.260  0.3922  0.4268 -0.3300
   34MOL   C27814204   7.200   7.083   0.263 -0.2310  0.4183  0.1153
   34MOL   C27914205   7.062   7.104   0.201  0.0386 -0.5350  0.4087
   34MOL   C28014206   7.172   7.136   0.411 -0.3206  0.6673 -0.1024
   34MOL   C28114207   7.313   7.163   0.190 -0.6885  0.6639  0.1331
   34MOL   H28214208   7.196   6.965   7.758  0.6038 -0.4954 -1.1074
   34MOL   H28314209   7.124   6.810   0.043 -0.8544  1.5057 -0.4026
   34MOL   H28414210   7.392   6.921   0.101  0.1510  0.0069  1.4295
   34MOL   H28514211   7.331   6.936   0.330 -0.8784 -0.4732  1.3093
   34MOL   H28614212   7.161   6.871   0.292  0.2163  1.1001  0.3925
   34MOL   H28714213   7.060   7.089   0.093 -2.5019 -1.0631  0.4982
   34MOL   H28814214   6.986   7.034   0.234 -0.2337 -0.6632 -0.4729
   34MOL   H28914215   7.022   7.204   0.215 -1.5839 -1.2278  0.7942
   34MOL   H29014216   7.260   7.136   0.474  1.0335  0.6258 -1.9484
   34MOL   H29114217   7.094   7.072   0.452 -0.3986  1.3104  0.7617
   34MOL   H29214218   7.141   7.240   0.405  1.1221  1.0795 -0.5708
   34MOL   H29314219   7.312   7.265   0.231  0.7938  0.7116  0.0887
   34MOL   H29414220   7.305   7.138   0.085 -0.7857 -0.2010  0.3426
   34MOL   H29514221   7.414   7.132   0.217 -0.5779  0.2306 -0.7988
   34MOL   C29614222   7.359   6.717   0.164 -0.2579  0.2534  0.9261
   34MOL   C29714223   7.472   6.702   0.266 -0.4046 -0.1739  0.2441
   34MOL   C29814224   7.602   6.768   0.218  0.9426  0.7132  0.3052
   34MOL   C29914225   7.701   6.823   0.331  0.1509 -0.0835  0.2153
   34MOL   C30014226   7.619   6.933   0.407 -0.1953  0.6320 -0.0922
   34MOL   C30114227   7.757   6.723   0.438 -0.3151 -0.4920  0.1737
   34MOL   C30214228   0.059   6.894   0.255 -0.4810 -0.5879 -0.1446
   34MOL   H30314229   7.403   6.679   0.072  1.4708  0.8858  1.4830
   34MOL   H30414230   7.267   6.665   0.190 -0.5171 -0.0082 -0.4719
   34MOL   H30514231   7.427   6.744   0.357 -1.8884 -0.4255 -0.3480
   34MOL   H30614232   7.577   6.849   0.149  0.9878 -1.5272 -2.4308
   34MOL   H30714233   7.644   6.698   0.146  2.0081 -0.3740  1.9492
   34MOL   H30814234   7.530   6.883   0.444 -0.8005  0.0730 -2.1912
   34MOL   H30914235   7.680   6.967   0.490 -1.0321 -0.1625  0.8515
   34MOL   H31014236   7.587   7.012   0.340  1.8430  0.8951 -0.7960
   34MOL   H31114237   0.060   6.649   0.396  0.3897  0.2323  0.0514
   34MOL   H31214238   0.056   6.778   0.506  0.4923 -2.9111  1.4274
   34MOL   H31314239   7.673   6.680   0.492 -0.1283  3.0913  3.5058
   34MOL   H31414240   0.123   6.824   0.201  0.1226 -0.9556  1.0363
   34MOL   H31514241   0.018   6.971   0.190  0.6811 -1.2876 -1.7225
   34MOL   H31614242   0.121   6.940   0.332  0.0486 -1.4653 -0.0395
   34MOL   C31714243   7.508   6.550   0.293  0.1251 -0.4391  0.1133
   34MOL   C31814244   7.393   6.479   0.377  0.6917  0.2607 -0.2937
   34MOL   C31914245   7.424   6.320   0.385  0.3467 -0.3628 -0.1167
   34MOL   C32014246   7.353   6.223   0.291  1.1524 -0.3124 -0.2217
   34MOL   C32114247   7.381   6.257   0.144  0.0879 -0.3378  0.5357
   34MOL   C32214248   7.197   6.227   0.312  0.6082  0.3362  0.5671
   34MOL   C32314249   7.399   6.078   0.325  0.3823 -0.0568  0.2364
   34MOL   H32414250   7.508   6.488   0.204 -2.5317 -1.1662  0.5694
   34MOL   H32514251   7.600   6.535   0.350 -1.2475  2.3685  3.2433
   34MOL   H32614252   7.297   6.488   0.327 -0.1563  0.7750  1.3946
   34MOL   H32714253   7.404   6.285   0.486 -2.1872  1.6684  0.1034
   34MOL   H32814254   7.532   6.307   0.371  0.3770 -0.1748 -0.0541
   34MOL   H32914255   7.334   6.353   0.125  1.5688  0.0767 -1.0955
   34MOL   H33014256   7.353   6.177   0.075 -3.3712  0.4180  0.9588
   34MOL   H33114257   7.488   6.263   0.124 -0.3294  1.7885 -1.1669
   34MOL   H33214258   7.149   6.153   0.249 -1.9885  2.0165  0.5089
   34MOL   H33314259   7.172   6.201   0.415 -0.4129 -0.0579  0.2262
   34MOL   H33414260   7.148   6.320   0.284  1.1361 -0.4676 -3.2377
   34MOL   H33514261   7.377   6.025   0.417 -0.5112 -1.3853 -0.7166
   34MOL   H33614262   7.505   6.064   0.306  0.8269  0.7033  2.0287
   34MOL   H33714263   7.341   6.015   0.257  0.5390 -0.5010  0.5139
   34MOL   C33814264   7.370   6.528   0.525  0.1088  0.0287 -0.0534
   34MOL   C33914265   7.223   6.519   0.586  0.3715 -0.4443  0.3293
   34MOL   C34014266   7.137   6.635   0.549  0.4236  0.2684 -0.5105
   34MOL   C34114267   6.994   6.617   0.497  0.8619 -0.2075 -0.4886
   34MOL   C34214268   6.997   6.551   0.353 -0.9189  0.1136 -0.2611
   34MOL   C34314269   6.903   6.544   0.590  0.2107 -0.6425  0.0489
   34MOL   C34414270   6.932   6.758   0.497  0.0424  0.7912 -0.2558
   34MOL   H34514271   7.408   6.629   0.536  0.6738 -0.1633 -0.2643
   34MOL   H34614272   7.448   6.487   0.589 -0.0058 -0.8866 -0.4947
   34MOL   H34714273   7.178   6.432   0.538  1.5497 -1.4041  0.9392
   34MOL   H34814274   7.187   6.683   0.465  2.2548 -1.3893 -0.4178
   34MOL   H34914275   7.152   6.715   0.621 -1.6993 -1.1266  1.5385
   34MOL   H35014276   7.015   6.444   0.362  1.4025  0.1543 -3.5458
   34MOL   H35114277   6.909   6.562   0.289  0.1292  2.5317 -1.3962
   34MOL   H35214278   7.083   6.580   0.292  0.0393 -1.8787  0.1331
   34MOL   H35314279   6.939   6.442   0.575 -1.3854 -1.2738  0.4466
   34MOL   H35414280   6.904   6.548   0.699  0.6529  0.0596  0.0186
   34MOL   H35514281   6.804   6.550   0.546  1.1423  1.0518 -1.9480
   34MOL   H35614282   6.999   6.834   0.458 -1.5048  2.3757  0.0727
   34MOL   H35714283   6.836   6.756   0.444 -0.5618 -3.0195  0.8510
   34MOL   H35814284   6.921   6.797   0.598 -0.1757 -0.8457  0.3576
   34MOL   C35914285   7.227   6.500   0.748 -0.0056 -0.0353  1.2106
   34MOL   C36014286   7.304   6.379   0.791  0.1794 -0.4566 -0.2880
   34MOL   C36114287   7.232   6.289   0.898  0.4532  0.6366  0.0719
   34MOL   C36214288   7.127   6.179   0.850 -0.0521 -0.3036  0.6457
   34MOL   C36314289   7.184   6.071   0.760  0.0160 -0.1640  0.4280
   34MOL   C36414290   7.000   6.242   0.787  0.4979 -0.0260 -0.1113
   34MOL   C36514291   7.087   6.111   0.987 -0.4824  0.9012  0.2963
   34MOL   H36614292   7.123   6.487   0.776  0.1236  0.8626  2.1389
   34MOL   H36714293   7.269   6.593   0.786  2.2477 -0.8320  0.7640
   34MOL   H36814294   7.324   6.320   0.701  1.3557 -1.8721  0.8573
   34MOL   H36914295   7.307   6.229   0.949  0.2494 -0.4742 -0.9314
   34MOL   H37014296   7.193   6.355   0.976 -1.6106 -0.4823  0.0190
   34MOL   H37114297   7.274   6.032   0.808 -0.8045 -4.2021 -1.0696
   34MOL   H37214298   7.115   5.989   0.739 -0.0983  0.5040 -1.8745
   34MOL   H37314299   7.220   6.106   0.663  1.2576  0.6311  1.1615
   34MOL   H37414300   6.966   6.328   0.844  2.3019  1.0494 -0.6243
   34MOL   H37514301   6.924   6.165   0.770  1.1757 -0.6387 -0.4035
   34MOL   H37614302   7.020   6.291   0.692 -1.8670 -0.4023 -0.8488
   34MOL   H37714303   7.172   6.079   1.048  1.5943  2.6520 -1.5907
   34MOL   H37814304   7.023   6.028   0.956 -0.1217  0.8302 -0.2718
   34MOL   H37914305   7.029   6.174   1.054 -0.3400 -0.3758  1.6454
   34MOL   C38014306   7.432   6.413   0.864 -0.8136  0.0042  0.2780
   34MOL   C38114307   7.548   6.303   0.873  0.9012  0.2560 -0.2036
   34MOL   C38214308   7.659   6.349   0.974  0.4862 -0.2478 -0.0620
   34MOL   C38314309   7.632   6.315   1.126 -0.3092 -0.6043  0.5195
   34MOL   C38414310   7.510   6.388   1.191 -0.1444 -0.1275 -0.2819
   34MOL   C38514311   7.755   6.359   1.209 -0.5864  0.3821 -1.0027
   34MOL   C38614312   7.619   6.169   1.135 -0.4467  0.2526  0.6412
   34MOL   H38714313   7.424   6.459   0.963  0.8806  0.1990  0.3279
   34MOL   H38814314   7.483   6.486   0.800 -0.3927  1.0008  1.7376
   34MOL   H38914315   7.503   6.214   0.916 -1.1586  0.9015 -0.9637
   34MOL   H39014316   7.750   6.301   0.940  1.8569  1.8215  0.5473
   34MOL   H39114317   7.692   6.452   0.955  1.9407 -0.6907 -0.0077
   34MOL   H39214318   7.416   6.340   1.162 -0.4278 -0.1790  0.6879
   34MOL   H39314319   7.502   6.387   1.300 -1.1908  0.5217 -0.3390
   34MOL   H39414320   7.518   6.490   1.153 -0.2667  0.2540  0.7080
   34MOL   H39514321   0.011   6.464   1.190  2.4069 -0.1906 -1.0313
   34MOL   H39614322   0.077   6.296   1.197 -0.9373 -0.1753 -0.6465
   34MOL   H39714323   7.739   6.345   1.316  0.9844  0.4390 -0.7393
   34MOL   H39814324   7.667   6.131   1.225 -0.8298  0.1433  0.8017
   34MOL   H39914325   7.660   6.126   1.044 -1.9612  0.1116  0.0070
   34MOL   H40014326   7.513   6.145   1.123 -0.3954  0.6913 -0.8671
   34MOL   C40114327   7.617   6.257   0.741  0.3667 -0.4149 -0.0133
   34MOL   C40214328   7.662   6.113   0.721  0.5462  0.0765 -0.3301
   34MOL   C40314329   7.542   6.017   0.718 -0.5951  0.9714  0.6899
   34MOL   C40414330   7.576   5.858   0.717  0.2969 -0.4115  0.1581
   34MOL   C40514331   7.445   5.788   0.733  0.4003  0.4517 -0.5532
   34MOL   C40614332   7.673   5.826   0.828  0.8214  0.1737  0.1100
   34MOL   C40714333   7.639   5.824   0.580  0.2483  0.3819 -0.5031
   34MOL   H40814334   7.554   6.287   0.658  0.1068 -1.0923 -0.0631
   34MOL   H40914335   7.704   6.317   0.715  0.2703 -0.0634  0.4728
   34MOL   H41014336   7.711   6.101   0.624 -1.0948 -0.9603 -1.0452
   34MOL   H41114337   7.478   6.045   0.635 -0.6301 -0.8745  0.0703
   34MOL   H41214338   7.481   6.038   0.806 -1.8801  1.4098 -0.2978
   34MOL   H41314339   7.404   5.793   0.834  0.3970 -0.7907 -0.4860
   34MOL   H41414340   7.463   5.683   0.709 -1.7269 -0.1742  0.4032
   34MOL   H41514341   7.377   5.835   0.662 -1.1255  2.3504  2.0928
   34MOL   H41614342   7.644   5.870   0.923  0.1267  1.9348 -0.8889
   34MOL   H41714343   0.007   5.856   0.797  0.2687  3.1373  0.9973
   34MOL   H41814344   7.664   5.720   0.852 -1.6690  0.4312  0.4384
   34MOL   H41914345   7.734   5.877   0.569 -0.7339  2.5785  1.2552
   34MOL   H42014346   7.657   5.717   0.585  1.8639  0.7262  1.8162
   34MOL   H42114347   7.581   5.847   0.490  1.3095 -1.5732 -1.7169
   34MOL   H42214348   7.737   6.085   0.795 -1.1749 -2.1085  0.6378
   35MOL     C114349   0.879   4.657   5.959 -0.6191 -0.6205 -0.1376
   35MOL     C214350   0.743   4.682   5.886 -0.1469 -0.4746  0.1086
   35MOL     C314351   0.687   4.542   5.861 -0.1763 -0.4936  0.3533
   35MOL     C414352   0.535   4.529   5.894 -0.5059 -0.2982 -0.7677
   35MOL     C514353   0.447   4.651   5.862 -0.3710  0.2861 -0.5957
   35MOL     C614354   0.490   4.414   5.809  0.0977 -0.0802  0.0144
   35MOL     C714355   0.525   4.483   6.039 -0.1394 -0.2472  0.3234
   35MOL     H814356   0.864   4.608   6.055  2.8303  0.4126  0.9946
   35MOL     H914357   0.955   4.606   5.900 -0.6448 -0.1154 -0.6034
   35MOL    H1014358   0.681   4.735   5.958 -0.1428  0.5821 -0.6649
   35MOL    H1114359   0.741   4.462   5.911 -0.3961 -0.4065  0.7383
   35MOL    H1214360   0.702   4.509   5.759  1.5068 -0.8184  0.6912
   35MOL    H1314361   0.341   4.624   5.863  0.1196 -1.7756 -0.7316
   35MOL    H1414362   0.477   4.678   5.761  2.3497 -2.7312 -0.7078
   35MOL    H1514363   0.448   4.734   5.932 -0.7274 -0.0598 -0.1762
   35MOL    H1614364   0.511   4.419   5.702  0.5980 -0.6363  0.0806
   35MOL    H1714365   0.527   4.315   5.834  1.9680  0.7363  0.5752
   35MOL    H1814366   0.383   4.396   5.807  0.0860  0.0276 -0.2899
   35MOL    H1914367   0.419   4.463   6.052  0.0385 -2.9118 -1.7956
   35MOL    H2014368   0.545   4.558   6.115  2.6360 -0.6919  0.0953
   35MOL    H2114369   0.576   4.388   6.050 -0.4430 -0.5392 -0.7552
   35MOL    H2214370   0.922   4.750   5.994 -1.7962  0.0222 -0.3708
   35MOL    C2314371   0.763   4.771   5.765 -0.1691  1.0997  0.3157
   35MOL    C2414372   0.779   4.922   5.802  0.4178  0.0364  0.4641
   35MOL    C2514373   0.639   4.996   5.796 -0.3504 -0.3611 -0.2675
   35MOL    C2614374   0.594   5.079   5.919 -0.3185  0.1781 -0.5010
   35MOL    C2714375   0.698   5.179   5.958  0.1629 -0.8400  0.3685
   35MOL    C2814376   0.461   5.147   5.897 -0.3063  0.2796  0.3010
   35MOL    C2914377   0.576   4.986   6.043 -0.6340  0.8194 -0.3214
   35MOL    H3014378   0.858   4.730   5.731  0.0578  2.0060 -0.1654
   35MOL    H3114379   0.682   4.763   5.693 -1.2366  1.6216  1.4343
   35MOL    H3214380   0.827   4.924   5.900  0.5149 -2.8593  0.5198
   35MOL    H3314381   0.566   4.916   5.780  0.7129 -1.2116 -0.9151
   35MOL    H3414382   0.633   5.059   5.707 -0.2255 -0.7146 -0.5263
   35MOL    H3514383   0.801   5.144   5.968 -0.0745 -1.6008  0.1842
   35MOL    H3614384   0.708   5.264   5.890  1.8847 -0.7169  0.7369
   35MOL    H3714385   0.672   5.241   6.044 -2.1369 -1.3909  0.0847
   35MOL    H3814386   0.459   5.216   5.813  0.9811  0.5535  0.4921
   35MOL    H3914387   0.385   5.071   5.878 -0.8093  0.5132  1.3688
   35MOL    H4014388   0.431   5.207   5.983  1.1266  4.3487 -1.9182
   35MOL    H4114389   0.660   4.926   6.079 -1.4369  0.7235  1.3883
   35MOL    H4214390   0.503   4.918   6.000  1.3467 -1.3691 -0.3267
   35MOL    H4314391   0.522   5.035   6.124  0.9115  0.9939  0.6189
   35MOL    C4414392   0.870   4.989   5.696  1.0214 -0.1156  0.2138
   35MOL    C4514393   0.982   5.077   5.750  0.6894  0.0877  0.4026
   35MOL    C4614394   1.040   5.184   5.652  0.0360 -0.4041 -0.1110
   35MOL    C4714395   0.982   5.325   5.638 -0.0651 -0.3193  0.1680
   35MOL    C4814396   0.839   5.325   5.596  0.5029 -0.4173 -1.2981
   35MOL    C4914397   1.064   5.409   5.546  0.0578 -0.5582 -0.1701
   35MOL    C5014398   0.999   5.391   5.778 -0.0180  0.4430  0.3792
   35MOL    H5114399   0.917   4.909   5.638 -0.7081 -0.3016 -0.9752
   35MOL    H5214400   0.821   5.033   5.609  4.1283 -2.4000 -2.8438
   35MOL    H5314401   0.944   5.134   5.834 -1.2853 -0.3586 -0.1580
   35MOL    H5414402   1.058   5.143   5.553 -2.3286 -1.5470 -0.1080
   35MOL    H5514403   1.144   5.204   5.677 -0.3040  1.6343 -0.2110
   35MOL    H5614404   0.835   5.301   5.489 -0.0149 -3.2765 -0.6859
   35MOL    H5714405   0.804   5.428   5.598 -0.6864 -0.8464  0.5877
   35MOL    H5814406   0.771   5.265   5.657 -0.4670  0.6534 -1.3009
   35MOL    H5914407   1.015   5.505   5.530  0.4840 -0.5572 -1.5297
   35MOL    H6014408   1.160   5.434   5.591 -1.5118  1.1458  2.3615
   35MOL    H6114409   1.082   5.363   5.449 -1.4321 -1.1279 -0.2003
   35MOL    H6214410   0.927   5.362   5.854 -1.6946  2.6714 -0.3095
   35MOL    H6314411   1.097   5.381   5.825  0.8168  0.6500 -1.2564
   35MOL    H6414412   0.984   5.499   5.776  1.6727  0.6886 -2.1640
   35MOL    C6514413   1.100   4.981   5.794  0.1191  0.6856  0.2390
   35MOL    C6614414   1.202   5.034   5.896  0.6650  0.1317 -0.6244
   35MOL    C6714415   1.334   4.962   5.878  0.0656  0.2999 -0.5541
   35MOL    C6814416   1.439   5.016   5.778 -0.0655 -0.4980  0.1636
   35MOL    C6914417   1.565   4.947   5.822 -0.6023 -0.3337 -0.7049
   35MOL    C7014418   1.407   4.981   5.636 -0.4707 -0.3191  0.2992
   35MOL    C7114419   1.464   5.167   5.802 -0.4876  0.5219 -0.1539
   35MOL    H7214420   1.068   4.884   5.832  0.3056  0.9679  1.1125
   35MOL    H7314421   1.152   4.945   5.705  0.7095  0.7002  0.5758
   35MOL    H7414422   1.209   5.142   5.879 -1.5915  0.3394 -0.3677
   35MOL    H7514423   1.316   4.858   5.852  0.9979  0.4512 -1.8611
   35MOL    H7614424   1.364   4.944   5.981 -0.7362 -1.1336 -0.5488
   35MOL    H7714425   1.656   4.986   5.776  0.4069 -0.1852  1.3558
   35MOL    H7814426   1.592   4.969   5.926  1.1275 -0.0378 -1.1879
   35MOL    H7914427   1.565   4.838   5.811 -0.1454 -0.5547  1.2519
   35MOL    H8014428   1.499   5.006   5.584  0.0169 -0.9680  0.8463
   35MOL    H8114429   1.318   5.034   5.601 -1.6472 -1.7553  1.0741
   35MOL    H8214430   1.387   4.876   5.615  0.8854 -0.6953  0.8869
   35MOL    H8314431   1.483   5.182   5.908  1.9071 -0.7913 -0.3556
   35MOL    H8414432   1.375   5.222   5.771 -1.0495 -0.0528  0.4224
   35MOL    H8514433   1.552   5.199   5.747  1.1579 -3.3574  0.0382
   35MOL    C8614434   1.129   5.011   6.032 -0.0429 -0.4672 -0.7146
   35MOL    C8714435   1.150   5.113   6.157  0.2067  0.1084  0.4501
   35MOL    C8814436   1.080   5.248   6.123 -0.1345  0.7173 -0.1031
   35MOL    C8914437   1.017   5.342   6.237 -0.6126  0.6584  0.6084
   35MOL    C9014438   0.964   5.467   6.171 -0.4681 -0.3855 -0.6096
   35MOL    C9114439   1.132   5.382   6.330  0.6820 -0.5932  0.3774
   35MOL    C9214440   0.902   5.282   6.316  0.5851 -0.6492  0.1942
   35MOL    H9314441   1.151   4.909   6.064  0.9309  0.5835  2.0537
   35MOL    H9414442   1.021   5.016   6.014 -0.6268  1.5536  2.8804
   35MOL    H9514443   1.099   5.073   6.244  0.7221  0.1320  0.7608
   35MOL    H9614444   0.988   5.234   6.066  0.9748  0.4158 -1.8609
   35MOL    H9714445   1.146   5.300   6.053  0.8315 -3.6913 -2.6751
   35MOL    H9814446   1.047   5.532   6.145  0.0382  0.1964  2.3116
   35MOL    H9914447   0.893   5.533   6.221 -1.9373 -2.1278 -0.3483
   35MOL   H10014448   0.906   5.435   6.084 -2.5685 -1.3027  1.0833
   35MOL   H10114449   1.123   5.471   6.392  1.8593  0.0189 -0.3153
   35MOL   H10214450   1.169   5.297   6.388 -1.5080 -1.6347  0.2903
   35MOL   H10314451   1.213   5.411   6.262 -1.3855 -0.3567 -2.0527
   35MOL   H10414452   0.890   5.343   6.406  2.8625  1.1340 -0.6597
   35MOL   H10514453   0.808   5.266   6.265  0.8898 -0.9987 -0.2613
   35MOL   H10614454   0.935   5.185   6.354  2.1797 -0.2654 -0.1501
   35MOL   C10714455   1.301   5.135   6.192 -0.3678  0.6244  0.4919
   35MOL   C10814456   1.360   5.057   6.310 -0.5011  0.1300  0.3285
   35MOL   C10914457   1.374   4.904   6.284  0.0432 -0.3120 -0.0351
   35MOL   C11014458   1.341   4.801   6.389  0.0967  0.4348 -0.2413
   35MOL   C11114459   1.464   4.811   6.482 -0.0611 -0.2040  0.0657
   35MOL   C11214460   1.338   4.663   6.320  0.2992  0.2860 -0.6282
   35MOL   C11314461   1.203   4.824   6.452 -0.2690 -0.8029  0.4290
   35MOL   H11414462   1.310   5.242   6.209 -3.4630  0.9591  0.3018
   35MOL   H11514463   1.359   5.121   6.100  1.2929  1.9766  1.3085
   35MOL   H11614464   1.293   5.083   6.392  0.9056  0.6171  1.3435
   35MOL   H11714465   1.304   4.882   6.203  0.7733 -0.2315 -0.6949
   35MOL   H11814466   1.471   4.876   6.242  0.0294 -1.5371  0.7212
   35MOL   H11914467   1.490   4.913   6.509  0.7634 -0.4321  0.1500
   35MOL   H12014468   1.454   4.741   6.565 -1.1795 -1.3299 -0.9855
   35MOL   H12114469   1.549   4.772   6.424  0.2841 -0.4310  0.7230
   35MOL   H12214470   1.433   4.626   6.280  2.4100  3.2200  1.5112
   35MOL   H12314471   1.267   4.658   6.237 -2.8819  1.2900  1.9679
   35MOL   H12414472   1.305   4.581   6.385  0.0873  1.2789  0.5252
   35MOL   H12514473   1.191   4.920   6.502  0.5051 -1.3555  1.7230
   35MOL   H12614474   1.184   4.745   6.525 -0.2087  0.2392  1.6045
   35MOL   H12714475   1.117   4.816   6.387  0.2798 -2.4763 -0.1076
   35MOL   C12814476   1.497   5.126   6.337 -0.1451 -0.0333 -0.3540
   35MOL   C12914477   1.501   5.235   6.451  0.4382  0.1476  0.0740
   35MOL   C13014478   1.470   5.169   6.589  0.1007 -0.1466  0.5768
   35MOL   C13114479   1.436   5.254   6.715 -0.3735 -0.4905 -0.2120
   35MOL   C13214480   1.298   5.332   6.691  0.5626  0.5558  0.2675
   35MOL   C13314481   1.537   5.349   6.758  0.1486  0.7452  0.4389
   35MOL   C13414482   1.417   5.153   6.835 -0.3249  0.3757 -0.2304
   35MOL   H13514483   1.531   5.161   6.240 -0.4619 -0.6239 -0.6794
   35MOL   H13614484   1.576   5.052   6.354  0.2526  0.3433 -0.5527
   35MOL   H13714485   1.412   5.293   6.431  0.6841  0.5184  0.0501
   35MOL   H13814486   1.394   5.091   6.583 -0.4549  0.3481  1.1631
   35MOL   H13914487   1.560   5.110   6.607  0.5480  0.3702  0.0420
   35MOL   H14014488   1.303   5.407   6.613 -1.9310 -0.2849 -0.7713
   35MOL   H14114489   1.263   5.384   6.780 -0.6919 -0.0260  0.1400
   35MOL   H14214490   1.207   5.277   6.666  1.2225 -0.8057  0.7714
   35MOL   H14314491   1.635   5.302   6.761 -0.4827 -0.6750 -1.0385
   35MOL   H14414492   1.519   5.400   6.853 -0.1367 -0.8005  1.2211
   35MOL   H14514493   1.543   5.429   6.684  0.5462  0.0653 -0.2647
   35MOL   H14614494   1.506   5.092   6.848 -0.0133  0.6183 -1.2126
   35MOL   H14714495   1.389   5.198   6.930  3.5235  1.0797  0.6473
   35MOL   H14814496   1.328   5.092   6.819 -0.0723  0.0362 -0.3497
   35MOL   C14914497   1.635   5.316   6.449  0.3136 -0.4132  0.1545
   35MOL   C15014498   1.669   5.396   6.315 -0.3646 -0.5596 -0.1587
   35MOL   C15114499   1.563   5.515   6.294 -0.3303  0.6168  0.2007
   35MOL   C15214500   1.539   5.566   6.150 -0.9895  0.0529  0.3188
   35MOL   C15314501   1.670   5.591   6.064  0.2455  0.0496 -0.0444
   35MOL   C15414502   1.461   5.698   6.152 -0.2633  0.6826 -0.0698
   35MOL   C15514503   1.476   5.447   6.072 -0.0550  0.0995 -0.0815
   35MOL   H15614504   1.707   5.240   6.481  1.1839  1.4703  2.8467
   35MOL   H15714505   1.647   5.393   6.526  0.3779 -0.3930  0.1239
   35MOL   H15814506   1.680   5.333   6.226 -1.0929 -1.6128  0.4824
   35MOL   H15914507   1.603   5.599   6.350  0.9070 -0.3426  0.7855
   35MOL   H16014508   1.468   5.482   6.337  0.1709  0.4532  1.1772
   35MOL   H16114509   1.646   5.592   5.958  0.3796 -0.2481 -0.0782
   35MOL   H16214510   1.720   5.681   6.099  1.5174 -0.9302  0.6972
   35MOL   H16314511   1.733   5.502   6.073  0.1037 -0.0288  0.1914
   35MOL   H16414512   1.516   5.791   6.165 -1.6830  1.5343 -0.1752
   35MOL   H16514513   1.386   5.700   6.231  1.5068  2.0822  1.6184
   35MOL   H16614514   1.407   5.720   6.060  1.7157  0.1931 -1.3966
   35MOL   H16714515   1.545   5.363   6.066 -1.9368 -1.5855  1.1798
   35MOL   H16814516   1.387   5.410   6.123 -0.5215 -0.5006 -1.3023
   35MOL   H16914517   1.450   5.479   5.971 -0.0115  2.3284  0.5822
   35MOL   C17014518   1.803   5.468   6.335 -0.4303 -0.4165  0.0760
   35MOL   C17114519   1.929   5.387   6.383 -0.1679  0.4531  0.8480
   35MOL   C17214520   2.049   5.478   6.424 -0.2129  0.1777  0.6279
   35MOL   C17314521   2.067   5.481   6.580  0.6436  0.2178 -0.0538
   35MOL   C17414522   1.945   5.548   6.642 -0.1813  0.1821  0.2931
   35MOL   C17514523   2.184   5.582   6.606  0.0632 -0.3332 -0.4246
   35MOL   C17614524   2.106   5.351   6.649 -0.8447 -0.6163  0.0633
   35MOL   H17714525   1.786   5.543   6.412 -1.4278 -2.6918  2.1442
   35MOL   H17814526   1.828   5.533   6.251 -1.2039 -0.2552 -0.0405
   35MOL   H17914527   1.908   5.319   6.466  1.8277 -1.1813  0.0669
   35MOL   H18014528   2.137   5.440   6.372 -0.8041 -3.1352  1.9587
   35MOL   H18114529   2.033   5.580   6.389 -0.9618 -1.0570 -2.8427
   35MOL   H18214530   1.853   5.489   6.638 -0.4352  0.6249 -0.6149
   35MOL   H18314531   1.951   5.576   6.747 -1.4256  0.1009  0.3952
   35MOL   H18414532   1.924   5.641   6.590 -0.6613 -0.1174 -0.0560
   35MOL   H18514533   2.161   5.669   6.545 -1.4745 -0.3905  0.0703
   35MOL   H18614534   2.183   5.604   6.713 -1.4067  1.8819 -0.8517
   35MOL   H18714535   2.281   5.541   6.576  1.3351  1.1855  1.5299
   35MOL   H18814536   2.196   5.307   6.606  0.4353  1.9365  0.0060
   35MOL   H18914537   2.142   5.376   6.749  0.5168  1.9169 -0.9939
   35MOL   H19014538   2.026   5.280   6.668 -1.7068  0.5719  0.9516
   35MOL   C19114539   1.969   5.298   6.260  0.6911  0.2178 -0.3010
   35MOL   C19214540   2.040   5.162   6.287 -0.0129  0.4682 -0.0410
   35MOL   C19314541   2.116   5.112   6.160 -0.0757 -0.0007 -0.6097
   35MOL   C19414542   2.268   5.146   6.148  0.3338  0.0479  0.1961
   35MOL   C19514543   2.321   5.079   6.022 -0.0775  0.1515  0.4559
   35MOL   C19614544   2.345   5.085   6.266  0.3893 -0.3117 -0.4446
   35MOL   C19714545   2.300   5.292   6.147 -0.8060  0.1271 -0.1054
   35MOL   H19814546   1.880   5.287   6.198  0.1643 -0.0832  0.5049
   35MOL   H19914547   2.031   5.359   6.195  0.3925 -0.3992 -1.1704
   35MOL   H20014548   2.109   5.162   6.372 -0.3511  0.5705  0.2373
   35MOL   H20114549   2.061   5.144   6.071  0.6529  1.3795 -0.5843
   35MOL   H20214550   2.114   5.003   6.160  1.2969 -0.1135  3.2758
   35MOL   H20314551   2.338   4.972   6.037 -1.5983 -0.3793 -1.4086
   35MOL   H20414552   2.264   5.115   5.936  1.2277 -1.1824 -1.0154
   35MOL   H20514553   2.420   5.122   6.003 -0.8040  0.5906 -2.6416
   35MOL   H20614554   2.453   5.079   6.252 -0.1026 -2.0029 -4.1788
   35MOL   H20714555   2.330   5.146   6.355 -1.8404 -1.7141  0.1696
   35MOL   H20814556   2.315   4.982   6.285  0.1945 -0.4769 -1.6249
   35MOL   H20914557   2.247   5.343   6.067 -2.5567 -1.2526  0.1231
   35MOL   H21014558   2.266   5.342   6.238 -0.4760 -0.3057  0.2627
   35MOL   H21114559   2.407   5.312   6.137 -1.0292 -0.1959 -3.5790
   35MOL   C21214560   1.930   5.054   6.320 -0.0740 -0.3020  0.0592
   35MOL   C21314561   1.981   4.940   6.403  0.1258  0.0813  0.3339
   35MOL   C21414562   1.893   4.806   6.407 -0.5648 -0.0565  0.6472
   35MOL   C21514563   1.853   4.741   6.271  1.1835  0.2160  0.3136
   35MOL   C21614564   1.977   4.735   6.175 -0.3281 -0.0617  0.9153
   35MOL   C21714565   1.798   4.608   6.315  0.0438  0.8681  0.1827
   35MOL   C21814566   1.741   4.808   6.195  0.2307  0.0828  0.0773
   35MOL   H21914567   1.849   5.103   6.374 -0.7850  1.0694 -2.1393
   35MOL   H22014568   1.886   5.011   6.230 -1.8466  0.5064  0.5200
   35MOL   H22114569   2.077   4.901   6.368  0.8764  0.6011  1.7721
   35MOL   H22214570   1.796   4.830   6.450 -0.8888 -2.2278  1.2195
   35MOL   H22314571   1.945   4.735   6.472  0.0099  0.2261  0.4987
   35MOL   H22414572   1.946   4.681   6.086  0.5626  4.0995 -2.0320
   35MOL   H22514573   2.060   4.676   6.213  0.3052 -0.5574 -1.1877
   35MOL   H22614574   2.015   4.830   6.137 -2.6835  1.2816  1.7713
   35MOL   H22714575   1.698   4.614   6.356  0.3616 -0.5392  1.1885
   35MOL   H22814576   1.807   4.536   6.234 -0.6914  0.6371  0.3080
   35MOL   H22914577   1.860   4.562   6.392 -0.2358  0.1574 -0.0140
   35MOL   H23014578   1.700   4.883   6.262 -0.1273 -1.5531  1.7252
   35MOL   H23114579   1.662   4.739   6.166 -0.0138  1.2148 -2.0808
   35MOL   H23214580   1.762   4.875   6.112 -0.7997  0.0551 -0.2033
   35MOL   C23314581   1.994   4.985   6.552 -0.0353 -0.5021 -0.4450
   35MOL   C23414582   2.096   4.916   6.647 -0.5147  0.2997  0.7997
   35MOL   C23514583   2.239   4.940   6.593  0.2210 -0.1038  0.5010
   35MOL   C23614584   2.341   4.825   6.583  0.5624  0.3084 -0.0174
   35MOL   C23714585   2.289   4.729   6.464  0.1769  0.9442  0.2243
   35MOL   C23814586   2.482   4.878   6.549  1.0272 -0.1399 -0.1111
   35MOL   C23914587   2.358   4.736   6.712  0.3344  0.3160  0.8175
   35MOL   H24014588   1.900   4.989   6.606  0.8849  3.1205  1.0375
   35MOL   H24114589   2.013   5.092   6.552  1.5393 -0.7796  0.1390
   35MOL   H24214590   2.077   4.810   6.626 -0.7652 -0.0624  2.7373
   35MOL   H24314591   2.239   4.979   6.491  0.4436 -1.2839  0.0429
   35MOL   H24414592   2.276   5.024   6.652  3.7652 -2.2897  1.5294
   35MOL   H24514593   2.197   4.675   6.485  0.4930  1.2648  2.6501
   35MOL   H24614594   2.371   4.661   6.438  0.3809  0.4195  2.1517
   35MOL   H24714595   2.278   4.783   6.370 -1.0852 -0.2108 -0.3048
   35MOL   H24814596   2.552   4.795   6.547  2.0908  0.5990  3.3644
   35MOL   H24914597   2.470   4.918   6.448 -2.4209  0.5804  0.5258
   35MOL   H25014598   2.516   4.964   6.606  0.4600 -0.2671  0.4281
   35MOL   H25114599   2.426   4.653   6.692 -0.1417 -0.0666  0.7876
   35MOL   H25214600   2.390   4.787   6.803  3.2423  0.6720 -0.3294
   35MOL   H25314601   2.262   4.691   6.735 -0.0659  0.6773 -0.1263
   35MOL   C25414602   2.083   4.942   6.793 -0.3606  1.0030 -0.9804
   35MOL   C25514603   1.953   4.891   6.868 -0.1679 -0.1052  0.5715
   35MOL   C25614604   1.939   4.954   7.008  0.6613  0.6253 -0.3957
   35MOL   C25714605   1.868   5.095   7.018 -0.1558 -0.4364  0.1249
   35MOL   C25814606   1.883   5.132   7.166  0.0714 -0.6555  0.5614
   35MOL   C25914607   1.721   5.085   6.984  0.5795  0.7994 -0.0660
   35MOL   C26014608   1.927   5.202   6.922 -0.7301 -0.4900 -0.8466
   35MOL   H26114609   2.099   5.047   6.816 -0.3350  0.4154  1.8435
   35MOL   H26214610   2.173   4.900   6.837  0.9491  3.4182 -1.2898
   35MOL   H26314611   1.872   4.933   6.809 -0.2498 -0.4140  0.4650
   35MOL   H26414612   1.879   4.894   7.077  0.0667  2.0191  0.3224
   35MOL   H26514613   2.041   4.965   7.045  0.7626 -1.0791 -0.1307
   35MOL   H26614614   1.982   5.170   7.188 -0.0888 -0.4435  0.9280
   35MOL   H26714615   1.857   5.050   7.233  1.7649  0.5040  2.6813
   35MOL   H26814616   1.826   5.222   7.191  2.3178  0.3802  2.1066
   35MOL   H26914617   1.664   5.178   6.991 -0.5448  0.0079  1.6678
   35MOL   H27014618   1.677   5.009   7.048 -1.1271  0.5363 -1.5225
   35MOL   H27114619   1.703   5.041   6.887 -0.9594 -2.1887  1.5002
   35MOL   H27214620   1.905   5.187   6.816 -0.5032 -0.2260 -0.9340
   35MOL   H27314621   1.881   5.299   6.940 -2.1809 -1.3294  0.0111
   35MOL   H27414622   2.035   5.216   6.932 -0.8192 -1.5790  1.8470
   35MOL   C27514623   1.954   4.733   6.872 -0.1280  0.4813  0.1066
   35MOL   C27614624   1.833   4.656   6.934 -0.7419 -0.6780  0.1829
   35MOL   C27714625   1.699   4.707   6.874 -0.1328 -0.3142 -0.4903
   35MOL   C27814626   1.563   4.650   6.917  0.4341  0.3141 -0.3965
   35MOL   C27914627   1.456   4.759   6.897  0.1854  0.4102 -0.7348
   35MOL   C28014628   1.527   4.524   6.841  0.0636  0.5113  0.1440
   35MOL   C28114629   1.564   4.629   7.075 -0.2314 -0.8575 -0.2141
   35MOL   H28214630   1.956   4.695   6.770  2.8349 -0.2246  0.3780
   35MOL   H28314631   2.053   4.699   6.902 -0.7882 -0.4567  1.2309
   35MOL   H28414632   1.830   4.682   7.039 -1.4234  1.1196 -0.2601
   35MOL   H28514633   1.699   4.708   6.765 -0.5043 -0.5753 -0.4928
   35MOL   H28614634   1.700   4.815   6.892  1.2492  0.1036 -2.7760
   35MOL   H28714635   1.466   4.846   6.962  1.8251 -0.2984 -0.0174
   35MOL   H28814636   1.462   4.802   6.797  3.7547 -0.1752 -0.8427
   35MOL   H28914637   1.356   4.718   6.915  0.8959 -1.8043 -1.7197
   35MOL   H29014638   1.421   4.525   6.817  0.0053 -1.7194  0.1748
   35MOL   H29114639   1.558   4.434   6.893 -0.0128  0.2058 -0.3352
   35MOL   H29214640   1.575   4.519   6.743  0.8699  3.0302  0.3690
   35MOL   H29314641   1.634   4.549   7.099 -1.0886 -1.7841 -0.7829
   35MOL   H29414642   1.469   4.590   7.111 -1.1458  1.4305 -0.0596
   35MOL   H29514643   1.588   4.717   7.135 -0.8252 -0.5790 -0.3845
   35MOL   C29614644   1.858   4.503   6.907 -0.1692 -0.4897 -0.4627
   35MOL   C29714645   1.972   4.436   6.995 -0.0014  0.3624 -0.4691
   35MOL   C29814646   2.009   4.296   6.942  0.1760 -0.5824  0.3756
   35MOL   C29914647   2.079   4.260   6.802 -0.5483  0.3724 -0.5847
   35MOL   C30014648   1.995   4.296   6.680 -1.2945  0.0459 -0.1907
   35MOL   C30114649   2.218   4.328   6.790  0.0092 -0.6914  0.0203
   35MOL   C30214650   2.082   4.111   6.793 -0.0010 -0.2784  0.1538
   35MOL   H30314651   1.874   4.494   6.800  1.6641 -0.7172 -0.1962
   35MOL   H30414652   1.768   4.450   6.936 -0.3991  0.6972  1.0614
   35MOL   H30514653   2.063   4.495   6.985 -0.5689  1.4796  0.8536
   35MOL   H30614654   1.913   4.244   6.933  0.7359 -1.3616 -1.0462
   35MOL   H30714655   2.070   4.246   7.017 -2.3263 -1.9780  1.5741
   35MOL   H30814656   1.887   4.296   6.695 -0.9828  0.5632  2.1272
   35MOL   H30914657   2.011   4.402   6.663  0.2229 -0.0638  0.4676
   35MOL   H31014658   2.033   4.256   6.586  0.6329  1.0753  0.1324
   35MOL   H31114659   2.284   4.289   6.866 -0.7456 -0.5771  0.7434
   35MOL   H31214660   2.270   4.308   6.696  0.5774  0.4655  0.0797
   35MOL   H31314661   2.197   4.435   6.802  2.0268 -0.0856 -1.5065
   35MOL   H31414662   1.983   4.071   6.814 -0.1437  0.0603  0.1368
   35MOL   H31514663   2.126   4.079   6.698  0.3172 -2.6044  1.0641
   35MOL   H31614664   2.150   4.071   6.868 -0.2647 -2.2971 -0.6593
   35MOL   C31714665   1.939   4.433   7.154  0.2223  0.5092 -0.0377
   35MOL   C31814666   2.038   4.371   7.266 -0.2347 -0.8647 -0.2287
   35MOL   C31914667   2.184   4.424   7.243 -0.2830  0.4410 -0.5188
   35MOL   C32014668   2.303   4.364   7.332  0.1043  0.6334  0.1850
   35MOL   C32114669   2.327   4.454   7.456 -0.0684  0.5459 -0.6715
   35MOL   C32214670   2.423   4.388   7.243 -0.5708 -0.2242 -0.0464
   35MOL   C32314671   2.283   4.209   7.365 -0.6920 -0.2809 -0.2933
   35MOL   H32414672   1.918   4.532   7.194  1.9099  0.2712  1.5341
   35MOL   H32514673   1.840   4.390   7.169  1.0050 -0.9134  1.1872
   35MOL   H32614674   2.045   4.267   7.234 -3.0367 -0.9024 -0.8305
   35MOL   H32714675   2.173   4.530   7.265 -1.0276  0.1070  0.7379
   35MOL   H32814676   2.202   4.415   7.136 -2.8224  1.2032 -1.0460
   35MOL   H32914677   2.299   4.558   7.440 -1.0824  0.6193  1.4165
   35MOL   H33014678   2.428   4.444   7.496 -0.2682  1.8918  0.2104
   35MOL   H33114679   2.261   4.434   7.540 -1.3968  0.2840 -1.7731
   35MOL   H33214680   2.426   4.490   7.202  0.5607 -0.6916 -1.1318
   35MOL   H33314681   2.525   4.375   7.279  0.2929  0.5423 -2.1389
   35MOL   H33414682   2.418   4.329   7.152 -0.2975 -1.5448  0.7772
   35MOL   H33514683   2.193   4.186   7.422  0.0168  2.3317  2.0073
   35MOL   H33614684   2.366   4.183   7.430  1.7728  0.0568 -3.1433
   35MOL   H33714685   2.287   4.148   7.275 -0.9394 -0.7369  0.0038
   35MOL   C33814686   1.988   4.395   7.410  0.4352 -0.3088  0.0568
   35MOL   C33914687   1.835   4.391   7.443  0.0226 -0.7062  0.6273
   35MOL   C34014688   1.794   4.443   7.589  0.5513 -0.1551  0.5812
   35MOL   C34114689   1.792   4.596   7.606  0.5775  0.1599 -0.1245
   35MOL   C34214690   1.926   4.667   7.645  0.1333  0.4552  0.2109
   35MOL   C34314691   1.739   4.659   7.480  0.1331  0.3921  0.3842
   35MOL   C34414692   1.679   4.624   7.714 -0.1428  0.5016  0.0513
   35MOL   H34514693   2.006   4.502   7.418 -1.5478 -0.0294  1.2300
   35MOL   H34614694   2.046   4.340   7.484 -0.3857  0.4846  1.3107
   35MOL   H34714695   1.776   4.456   7.378 -1.9297 -1.5762  1.4840
   35MOL   H34814696   1.846   4.401   7.675  1.5977  2.0239  1.0502
   35MOL   H34914697   1.691   4.410   7.597  0.8085 -1.3342 -0.6744
   35MOL   H35014698   1.908   4.767   7.686 -0.1796  0.4033  0.2001
   35MOL   H35114699   1.979   4.616   7.725 -1.6109  0.0439  1.1114
   35MOL   H35214700   1.998   4.677   7.563  1.2277  1.3905  1.2522
   35MOL   H35314701   1.811   4.664   7.397 -1.6425  1.2965 -1.1318
   35MOL   H35414702   1.645   4.615   7.448  1.4462 -2.1481 -0.1673
   35MOL   H35514703   1.723   4.766   7.495  0.7401  0.9369 -2.4685
   35MOL   H35614704   1.575   4.629   7.682  0.0873  0.5968 -0.6799
   35MOL   H35714705   1.696   4.551   0.028  0.8923  0.3156 -0.3304
   35MOL   H35814706   1.700   4.718   0.000 -3.2656  1.0121  0.5155
   35MOL   C35914707   1.788   4.242   7.409  0.1465 -0.2744  0.8708
   35MOL   C36014708   1.633   4.217   7.411 -0.3284 -0.5095 -0.1156
   35MOL   C36114709   1.594   4.065   7.412 -0.4215 -0.0537  0.1139
   35MOL   C36214710   1.517   4.003   7.533 -0.6246 -0.1151  0.8096
   35MOL   C36314711   1.600   4.023   7.665  0.1437  0.1291  0.2589
   35MOL   C36414712   1.493   3.852   7.502  0.0009 -0.4269  0.0630
   35MOL   C36514713   1.376   4.066   7.551  0.3774  0.4661 -0.4927
   35MOL   H36614714   1.828   4.186   7.493  0.3895 -1.8063 -0.2511
   35MOL   H36714715   1.828   4.198   7.318  1.1600  2.4386 -0.0486
   35MOL   H36814716   1.596   4.261   7.504 -1.1346 -0.1519 -0.5950
   35MOL   H36914717   1.529   4.052   7.326  1.1870 -0.0022 -1.1164
   35MOL   H37014718   1.681   4.011   7.376 -0.5909 -0.1574 -0.1465
   35MOL   H37114719   1.694   3.969   7.673 -0.7427 -1.5129 -0.2939
   35MOL   H37214720   1.610   4.130   7.686 -0.6765  0.2778 -0.0891
   35MOL   H37314721   1.545   3.988   7.752  1.7675  0.3582  1.3965
   35MOL   H37414722   1.452   3.841   7.402 -0.0431 -0.0497  0.0399
   35MOL   H37514723   1.423   3.815   7.577 -0.2635 -1.0559 -0.4811
   35MOL   H37614724   1.585   3.795   7.514  0.2109 -0.1486 -0.2126
   35MOL   H37714725   1.374   4.174   7.562 -0.5084  0.3388  0.7819
   35MOL   H37814726   1.316   4.036   7.637 -0.7337 -0.6513 -1.6164
   35MOL   H37914727   1.326   4.049   7.456 -0.7328  1.7815 -0.1472
   35MOL   C38014728   1.566   4.290   7.286 -0.2232  0.3792 -0.3491
   35MOL   C38114729   1.414   4.322   7.299  0.4511 -0.1167  0.1233
   35MOL   C38214730   1.350   4.346   7.162  0.3680 -0.4889  0.0940
   35MOL   C38314731   1.267   4.232   7.098  0.4263  0.5348  0.1710
   35MOL   C38414732   1.144   4.205   7.189  0.4801  0.7885 -0.3539
   35MOL   C38514733   1.363   4.121   7.075  0.7294  0.1798 -0.1836
   35MOL   C38614734   1.217   4.287   6.963  0.3556  0.6325  0.3608
   35MOL   H38714735   1.585   4.231   7.196  0.4842  1.6929 -1.0681
   35MOL   H38814736   1.616   4.386   7.279 -0.2276  0.2143 -3.4693
   35MOL   H38914737   1.379   4.234   7.354  2.4081 -1.1005 -0.1945
   35MOL   H39014738   1.281   4.430   7.173 -0.7912 -1.3537 -0.4502
   35MOL   H39114739   1.430   4.383   7.098  0.0770  0.6016  0.3433
   35MOL   H39214740   1.090   4.119   7.150  2.4581 -1.0276  0.8087
   35MOL   H39314741   1.162   4.189   7.295  0.9430 -0.9645 -0.6786
   35MOL   H39414742   1.092   4.301   7.182  1.8226  1.5421 -0.2025
   35MOL   H39514743   1.313   4.052   7.007  2.6356  0.2552 -1.7196
   35MOL   H39614744   1.359   4.071   7.172 -1.1924  1.6019  0.5101
   35MOL   H39714745   1.462   4.132   7.031  1.0076 -0.8708  0.1634
   35MOL   H39814746   1.158   4.223   6.897 -0.6011  2.9030 -1.0474
   35MOL   H39914747   1.303   4.311   6.900  0.5577 -0.7844  0.0716
   35MOL   H40014748   1.159   4.378   6.971  0.3491  0.6175  0.4719
   35MOL   C40114749   1.389   4.436   7.398 -0.6014  0.0628 -0.2521
   35MOL   C40214750   1.252   4.443   7.460 -0.6994  0.3321  0.0156
   35MOL   C40314751   1.241   4.544   7.567 -0.1206 -0.1086 -0.3401
   35MOL   C40414752   1.195   4.692   7.538 -0.5126  0.0989  0.3373
   35MOL   C40514753   1.240   4.774   7.651  0.9476  0.5619 -0.1303
   35MOL   C40614754   1.040   4.690   7.539  0.3524 -0.3303  0.2228
   35MOL   C40714755   1.255   4.748   7.399 -0.2894  0.5930 -0.6114
   35MOL   H40814756   1.455   4.423   7.484 -1.9729  0.1339  0.8291
   35MOL   H40914757   1.413   4.531   7.350 -0.4935 -0.8534 -2.0257
   35MOL   H41014758   1.174   4.479   7.392 -0.7869  1.4649  0.6882
   35MOL   H41114759   1.333   4.555   7.623 -0.0243  2.6307 -0.9650
   35MOL   H41214760   1.194   4.511   7.659  0.8156  0.6451  0.4148
   35MOL   H41314761   1.349   4.784   7.656  0.9627  0.2703  0.1198
   35MOL   H41414762   1.216   4.724   7.745 -0.8564 -1.2813 -1.5386
   35MOL   H41514763   1.199   4.874   7.654 -0.3674  0.0224  0.1083
   35MOL   H41614764   1.007   4.794   7.533 -0.3945 -0.5614  0.2527
   35MOL   H41714765   1.016   4.640   7.633 -0.1995 -1.8482 -0.7043
   35MOL   H41814766   0.994   4.636   7.456 -0.7676  1.5093 -0.3959
   35MOL   H41914767   1.215   4.684   7.319 -2.4699 -0.7061  1.4481
   35MOL   H42014768   1.215   4.848   7.386 -0.2588  0.8082  0.9181
   35MOL   H42114769   1.364   4.755   7.396 -0.0393 -2.4989 -0.2499
   35MOL   H42214770   1.234   4.348   7.511  0.2875  0.9069  1.4836
   36MOL     C114771   2.585   3.277   4.419  0.3654 -0.5488 -0.3530
   36MOL     C214772   2.445   3.233   4.364 -0.1493 -0.3564 -0.5292
   36MOL     C314773   2.389   3.102   4.436 -0.0148 -0.1225  0.3517
   36MOL     C414774   2.320   3.113   4.585  0.5019  0.1500 -0.0066
   36MOL     C514775   2.415   3.175   4.689 -0.3266 -0.6501 -0.3238
   36MOL     C614776   2.202   3.206   4.572  0.1565  0.7979 -0.1076
   36MOL     C714777   2.279   2.967   4.635  0.4225  0.4726  0.1287
   36MOL     H814778   2.663   3.205   4.393 -0.9197 -2.0334 -0.2055
   36MOL     H914779   2.612   3.370   4.369  0.5121 -0.0602  0.6385
   36MOL    H1014780   2.375   3.317   4.369 -0.0678 -0.2349 -1.3350
   36MOL    H1114781   2.476   3.037   4.447 -0.3342 -0.6951 -0.4899
   36MOL    H1214782   2.326   3.035   4.379  1.7482 -1.5870  0.0440
   36MOL    H1314783   2.375   3.155   4.789 -0.3401  0.9192 -0.0142
   36MOL    H1414784   2.430   3.282   4.678  1.0265 -0.6704  1.2717
   36MOL    H1514785   2.509   3.121   4.680 -1.2365 -1.8953 -3.1298
   36MOL    H1614786   2.128   3.166   4.502 -1.1175  3.2075 -0.2122
   36MOL    H1714787   2.144   3.209   4.664  0.9303  0.4626  0.3913
   36MOL    H1814788   2.223   3.303   4.527 -2.5950  0.0105 -3.3862
   36MOL    H1914789   2.371   2.908   4.636  1.4779  2.0546  2.2083
   36MOL    H2014790   2.204   2.936   4.563  1.6743 -1.9261 -0.1714
   36MOL    H2114791   2.247   2.955   4.739 -1.0384  0.6322 -0.2951
   36MOL    H2214792   2.594   3.300   4.525  4.7160  0.6724 -0.8859
   36MOL    C2314793   2.458   3.210   4.210  0.2648  0.0589  0.1525
   36MOL    C2414794   2.323   3.204   4.133  0.0380 -0.3505  0.1191
   36MOL    C2514795   2.335   3.136   3.996  0.6396  0.2040 -0.1047
   36MOL    C2614796   2.298   2.985   3.995 -0.5718  0.4767  0.0220
   36MOL    C2714797   2.153   2.964   4.039  1.2760 -0.4068 -0.1628
   36MOL    C2814798   2.320   2.936   3.858 -1.0406  0.0765  0.2962
   36MOL    C2914799   2.393   2.904   4.088  0.0235  0.1322 -0.5062
   36MOL    H3014800   2.510   3.288   4.155 -0.7459 -0.1201 -1.0683
   36MOL    H3114801   2.513   3.119   4.186 -1.5478 -1.2295  0.7370
   36MOL    H3214802   2.240   3.170   4.195 -0.5564  2.4851  0.9675
   36MOL    H3314803   2.436   3.151   3.960  0.3746 -0.3231 -1.0920
   36MOL    H3414804   2.281   3.184   3.915  0.0293 -2.3053 -1.2480
   36MOL    H3514805   2.125   2.859   4.030 -2.6968  0.5168  0.5715
   36MOL    H3614806   2.138   2.986   4.145  2.5973  0.9247 -0.2294
   36MOL    H3714807   2.074   3.022   3.991 -0.0866 -0.9295  1.3905
   36MOL    H3814808   2.256   2.850   3.839  0.1021 -0.8047  0.3725
   36MOL    H3914809   2.291   3.007   3.780 -1.2044 -0.1262  0.1747
   36MOL    H4014810   2.422   2.901   3.843 -1.0113  0.3338 -0.1307
   36MOL    H4114811   2.495   2.919   4.052  0.3882 -1.0385  0.0125
   36MOL    H4214812   2.359   2.800   4.092 -3.4463  1.1119 -2.4222
   36MOL    H4314813   2.387   2.943   4.189 -0.2944  1.0509 -0.8736
   36MOL    C4414814   2.283   3.351   4.106  0.6057  0.3630 -0.1408
   36MOL    C4514815   2.136   3.385   4.087  0.2088 -0.2522 -0.5143
   36MOL    C4614816   2.114   3.500   3.983 -0.1097  0.3637  0.5348
   36MOL    C4714817   2.060   3.482   3.838  1.5310 -0.0202  0.6395
   36MOL    C4814818   2.087   3.607   3.748  0.1964 -0.2981  0.6948
   36MOL    C4914819   1.909   3.471   3.849 -0.0698 -0.0745  0.1996
   36MOL    C5014820   2.119   3.368   3.760 -0.3698  0.0972  0.0314
   36MOL    H5114821   2.318   3.425   4.178  1.2198 -1.2799  1.2694
   36MOL    H5214822   2.330   3.373   4.010  1.4382 -2.0430 -0.3153
   36MOL    H5314823   2.085   3.293   4.061  0.1349  0.3166 -2.4375
   36MOL    H5414824   2.200   3.567   3.977 -1.1862  1.5650 -2.4427
   36MOL    H5514825   2.053   3.578   4.028  0.3627  0.5109  0.9344
   36MOL    H5614826   2.025   3.608   3.659  3.2356 -0.1742 -1.5176
   36MOL    H5714827   2.192   3.606   3.716 -0.2749  2.0005 -1.1378
   36MOL    H5814828   2.075   3.704   3.796 -0.2363  0.6876 -1.3283
   36MOL    H5914829   1.866   3.562   3.891 -2.5554 -1.3902  0.5591
   36MOL    H6014830   1.854   3.461   3.756 -0.1742  0.3693  0.2089
   36MOL    H6114831   1.872   3.398   3.920 -1.2507  1.4062  1.1545
   36MOL    H6214832   2.075   3.277   3.801  0.3545 -2.0344 -3.6962
   36MOL    H6314833   2.091   3.369   3.655  0.9133 -0.1437 -0.3294
   36MOL    H6414834   2.228   3.377   3.764 -0.4866  1.9124 -0.3473
   36MOL    C6514835   2.086   3.419   4.232 -0.4429  0.0455 -0.0862
   36MOL    C6614836   1.935   3.418   4.260 -0.3607 -0.2989  0.3538
   36MOL    C6714837   1.907   3.497   4.387  0.7174  0.0571 -0.8820
   36MOL    C6814838   1.868   3.648   4.378  0.0976  0.7482  0.6575
   36MOL    C6914839   1.730   3.672   4.297  0.4745  0.1062  0.1756
   36MOL    C7014840   1.834   3.708   4.514  0.3223  0.6594  0.2072
   36MOL    C7114841   1.975   3.733   4.305  0.5851  0.0996 -0.1424
   36MOL    H7214842   2.136   3.343   4.291  1.3758 -0.5175 -2.2556
   36MOL    H7314843   2.130   3.515   4.259 -0.6154 -0.6312  2.7666
   36MOL    H7414844   1.889   3.474   4.178 -0.0163 -1.6835 -0.8113
   36MOL    H7514845   1.986   3.486   4.462 -0.5074  3.1990  0.9854
   36MOL    H7614846   1.821   3.452   4.437  1.0172  2.8173  2.3372
   36MOL    H7714847   1.648   3.613   4.337 -0.8304  2.0980  0.5129
   36MOL    H7814848   1.706   3.778   4.297  2.4819  0.6387 -2.1584
   36MOL    H7914849   1.755   3.640   4.195  1.3579  0.3655  0.3025
   36MOL    H8014850   1.820   3.816   4.512 -1.2139  0.4649  0.1573
   36MOL    H8114851   1.916   3.688   4.584 -0.1193  0.1281  0.5736
   36MOL    H8214852   1.744   3.662   4.554 -1.2591  1.4027 -2.3683
   36MOL    H8314853   1.963   3.838   4.332 -0.7860  0.5029 -2.2000
   36MOL    H8414854   1.972   3.710   4.198 -0.0295  2.1476 -0.5691
   36MOL    H8514855   2.080   3.709   4.327 -0.3388 -1.5880  2.7699
   36MOL    C8614856   1.883   3.274   4.271 -0.7199  0.5601 -0.0036
   36MOL    C8714857   1.730   3.239   4.260 -0.5632  0.8834  0.5606
   36MOL    C8814858   1.707   3.101   4.333  1.1166  0.4272  0.2630
   36MOL    C8914859   1.668   3.103   4.487  0.3759  0.7962  0.1995
   36MOL    C9014860   1.545   3.198   4.519 -0.0692  0.0153 -0.2418
   36MOL    C9114861   1.781   3.138   4.586  0.4867  0.1435 -0.2556
   36MOL    C9214862   1.625   2.964   4.526 -0.1082 -0.1767 -0.4260
   36MOL    H9314863   1.916   3.235   4.368  1.0921  1.3982 -0.2709
   36MOL    H9414864   1.935   3.221   4.192  0.3466  1.1568  0.2817
   36MOL    H9514865   1.675   3.321   4.307 -0.7175  2.0579 -1.5715
   36MOL    H9614866   1.794   3.036   4.319 -1.3262 -2.6163 -1.4164
   36MOL    H9714867   1.625   3.047   4.285 -0.2659  1.6652  1.2146
   36MOL    H9814868   1.559   3.304   4.499  3.2024 -0.3059  0.1036
   36MOL    H9914869   1.511   3.190   4.622 -0.7212  0.1066 -0.4445
   36MOL   H10014870   1.471   3.160   4.448 -1.6151  1.4459  0.5726
   36MOL   H10114871   1.872   3.078   4.576 -1.0648 -2.3409  0.0671
   36MOL   H10214872   1.801   3.245   4.579 -3.5387  1.2396  2.9541
   36MOL   H10314873   1.743   3.114   4.686  0.6641 -3.0267 -0.8892
   36MOL   H10414874   1.564   2.964   4.616  0.1819 -0.7702 -0.2221
   36MOL   H10514875   1.556   2.929   4.449 -0.6512 -0.7327  0.3043
   36MOL   H10614876   1.709   2.895   4.536  0.3150  0.2559 -0.9645
   36MOL   C10714877   1.675   3.224   4.123 -0.1274 -0.0879 -0.2833
   36MOL   C10814878   1.526   3.257   4.116  0.4518 -0.2893 -0.4095
   36MOL   C10914879   1.507   3.417   4.114 -0.0544 -0.6616 -0.1867
   36MOL   C11014880   1.370   3.466   4.174  0.0733  0.4256 -0.2043
   36MOL   C11114881   1.377   3.480   4.326  0.3123 -1.2416  0.5163
   36MOL   C11214882   1.243   3.380   4.145 -0.4798 -1.1836 -0.6501
   36MOL   C11314883   1.342   3.608   4.115 -0.5786  0.0318  0.3711
   36MOL   H11414884   1.694   3.123   4.087 -0.1779  0.8574 -3.1299
   36MOL   H11514885   1.730   3.296   4.062 -0.2185  0.1086 -0.1343
   36MOL   H11614886   1.478   3.222   4.207  1.0186  0.6793  0.2735
   36MOL   H11714887   1.597   3.469   4.146 -0.5830  0.5249 -0.6283
   36MOL   H11814888   1.491   3.445   4.010  0.5185  1.0183  0.1688
   36MOL   H11914889   1.458   3.546   4.356 -0.7181  0.1728  0.2215
   36MOL   H12014890   1.279   3.508   4.365 -0.3136 -1.5258 -0.8205
   36MOL   H12114891   1.399   3.381   4.365  1.5725 -0.9573  0.5457
   36MOL   H12214892   1.209   3.395   4.043  0.0986  0.7061 -0.5783
   36MOL   H12314893   1.161   3.413   4.209  0.2970  0.5474 -0.5344
   36MOL   H12414894   1.266   3.276   4.168 -0.8101 -0.7505  1.8442
   36MOL   H12514895   1.346   3.605   4.006  0.3285 -0.7174  0.4137
   36MOL   H12614896   1.416   3.680   4.150 -1.3839 -0.0365  2.2446
   36MOL   H12714897   1.241   3.640   4.142 -0.2998  2.1526 -0.9607
   36MOL   C12814898   1.453   3.208   3.983  0.3487 -0.1965  0.7607
   36MOL   C12914899   1.365   3.079   3.985 -0.7213  0.1887 -0.4126
   36MOL   C13014900   1.330   3.040   3.838  0.3342 -0.0310 -0.3453
   36MOL   C13114901   1.205   3.112   3.781  0.1292  0.1225  0.6856
   36MOL   C13214902   1.075   3.093   3.859 -0.0752 -0.0471 -0.0483
   36MOL   C13314903   1.174   3.040   3.641 -0.2354  0.2143  0.2293
   36MOL   C13414904   1.215   3.264   3.751 -0.6035 -0.2999  0.7117
   36MOL   H13514905   1.521   3.202   3.898  0.1603  2.8308  0.3396
   36MOL   H13614906   1.378   3.280   3.951  0.2117 -0.3723  0.6830
   36MOL   H13714907   1.271   3.105   4.034 -0.0226 -0.8244  1.5404
   36MOL   H13814908   1.413   3.046   3.768 -1.8168  0.2129 -2.9258
   36MOL   H13914909   1.298   2.936   3.832  0.3696 -0.0099 -0.8792
   36MOL   H14014910   0.991   3.126   3.798 -0.3798  0.6253  0.7231
   36MOL   H14114911   1.066   3.152   3.951  0.0694  1.7650 -1.1686
   36MOL   H14214912   1.058   2.986   3.866 -0.2378 -0.0187 -0.0131
   36MOL   H14314913   1.251   3.043   3.564 -0.9966 -0.7304 -0.5964
   36MOL   H14414914   1.089   3.090   3.595  1.2430  3.4756  0.9471
   36MOL   H14514915   1.147   2.936   3.660  0.2085 -0.5833 -3.1621
   36MOL   H14614916   1.311   3.282   3.703 -1.1240 -0.0226 -0.2359
   36MOL   H14714917   1.148   3.310   3.679  1.0581 -0.6112 -1.0543
   36MOL   H14814918   1.194   3.330   3.835  0.6390 -0.6854  1.3525
   36MOL   C14914919   1.443   2.957   4.043  0.5311  0.6226 -0.0668
   36MOL   C15014920   1.381   2.818   4.081  0.3385 -0.9831 -0.2961
   36MOL   C15114921   1.470   2.728   4.166  1.1315  0.1694  0.1022
   36MOL   C15214922   1.586   2.661   4.101 -0.1454 -0.3247  0.5260
   36MOL   C15314923   1.647   2.569   4.207  0.2563 -0.1353 -0.0983
   36MOL   C15414924   1.692   2.757   4.045 -0.0444  0.2215  0.7186
   36MOL   C15514925   1.551   2.568   3.982  0.1760  0.2105  0.1163
   36MOL   H15614926   1.492   2.990   4.135  0.8353 -0.2039  0.0774
   36MOL   H15714927   1.529   2.938   3.980  0.3944  0.3395 -0.1717
   36MOL   H15814928   1.354   2.767   3.989  2.5358 -1.1573 -0.8654
   36MOL   H15914929   1.402   2.654   4.209  1.6952 -0.5971 -0.3043
   36MOL   H16014930   1.497   2.784   4.255 -0.2250  0.2763  0.4508
   36MOL   H16114931   1.677   2.623   4.297 -1.2800  0.0969  0.2806
   36MOL   H16214932   1.576   2.489   4.225  0.4191 -0.9360 -2.8447
   36MOL   H16314933   1.734   2.512   4.174  0.4147  0.2669 -0.3856
   36MOL   H16414934   1.783   2.702   4.022  0.5083  0.8783  1.3214
   36MOL   H16514935   1.725   2.835   4.113  0.3003  0.4049  0.3376
   36MOL   H16614936   1.663   2.796   3.948  1.9443 -0.1386 -0.0321
   36MOL   H16714937   1.460   2.509   3.993 -1.8920  3.0500 -0.9309
   36MOL   H16814938   1.530   2.621   3.889 -0.6998  0.0935  0.2435
   36MOL   H16914939   1.627   2.493   3.960 -1.1657 -0.1539 -3.5529
   36MOL   C17014940   1.248   2.837   4.157  0.4746  0.3380 -0.4389
   36MOL   C17114941   1.150   2.715   4.162 -0.7161  0.1626  0.0944
   36MOL   C17214942   1.044   2.708   4.040 -0.1628  0.6777 -0.1716
   36MOL   C17314943   1.047   2.590   3.934 -0.0047 -0.1418  0.0936
   36MOL   C17414944   1.187   2.539   3.893  0.3174 -0.8699 -0.4476
   36MOL   C17514945   0.972   2.637   3.806  0.2074 -0.9946  0.1737
   36MOL   C17614946   0.966   2.475   3.996 -0.3943  0.1149  0.4218
   36MOL   H17714947   1.190   2.922   4.120  1.3070  1.5870  1.1060
   36MOL   H17814948   1.267   2.873   4.258  2.6233 -0.0917 -0.6734
   36MOL   H17914949   1.202   2.620   4.171 -1.0642 -0.2481 -1.9732
   36MOL   H18014950   0.939   2.714   4.071  0.3802  0.2149  1.8323
   36MOL   H18114951   1.064   2.804   3.991  0.1698  0.8105  0.2168
   36MOL   H18214952   1.191   2.461   3.817  2.2498 -1.9782  0.7458
   36MOL   H18314953   1.259   2.618   3.872 -2.0903  1.3178 -0.6748
   36MOL   H18414954   1.231   2.488   3.979 -1.2215  0.9388  1.4552
   36MOL   H18514955   0.869   2.664   3.828  0.6031 -0.7284  1.7851
   36MOL   H18614956   1.028   2.708   3.744  0.8290  0.2064  2.0499
   36MOL   H18714957   0.949   2.557   3.735 -0.0660 -1.3495  0.6637
   36MOL   H18814958   1.001   2.432   4.090  0.7274 -0.0541 -0.0701
   36MOL   H18914959   0.869   2.520   4.016  1.2293  2.8160  2.5546
   36MOL   H19014960   0.954   2.397   3.920 -0.7153 -0.2513  0.8458
   36MOL   C19114961   1.075   2.718   4.300  0.1650  0.3685 -0.3682
   36MOL   C19214962   0.972   2.608   4.340 -0.0795  0.3756  0.6136
   36MOL   C19314963   0.881   2.654   4.455 -0.1115 -0.3045 -0.1516
   36MOL   C19414964   0.743   2.709   4.422 -0.1212 -0.0048 -0.2135
   36MOL   C19514965   0.748   2.829   4.324  0.6056  0.2254  0.4716
   36MOL   C19614966   0.685   2.769   4.551  0.2717 -0.0401 -0.7268
   36MOL   C19714967   0.656   2.590   4.370 -0.0838 -0.0040  0.8455
   36MOL   H19814968   1.136   2.737   4.388  0.5470 -0.9519 -0.3268
   36MOL   H19914969   1.012   2.807   4.295 -1.1941 -0.5358  0.2220
   36MOL   H20014970   0.907   2.582   4.257 -0.3722 -2.9314  1.7823
   36MOL   H20114971   0.934   2.726   4.517 -0.2779  0.3725 -0.7913
   36MOL   H20214972   0.872   2.571   4.525  1.6832 -0.5432 -0.1684
   36MOL   H20314973   0.812   2.907   4.365  1.8628  0.7878 -2.4707
   36MOL   H20414974   0.776   2.813   4.220 -2.4802 -2.4222 -0.0616
   36MOL   H20514975   0.647   2.870   4.321  0.8863  0.8925  0.0358
   36MOL   H20614976   0.582   2.802   4.537 -0.1034 -0.7764  0.2209
   36MOL   H20714977   0.694   2.680   4.614 -0.4465 -0.3957 -1.1212
   36MOL   H20814978   0.735   2.858   4.590 -0.8448  1.0775 -1.8062
   36MOL   H20914979   0.665   2.500   4.430  0.4329 -0.5897 -0.1041
   36MOL   H21014980   0.555   2.632   4.380 -0.7579 -1.0125 -1.3567
   36MOL   H21114981   0.689   2.574   4.267  0.4260  1.6180  0.7316
   36MOL   C21214982   1.052   2.475   4.358 -0.3314  0.5815 -0.5082
   36MOL   C21314983   1.117   2.445   4.501  0.2134 -0.5134  0.6634
   36MOL   C21414984   1.264   2.485   4.496  0.6906 -0.2218 -0.4545
   36MOL   C21514985   1.324   2.550   4.621 -0.8956 -0.9570  0.6599
   36MOL   C21614986   1.349   2.442   4.728 -0.1164  0.2071  0.0739
   36MOL   C21714987   1.465   2.615   4.587  0.5017 -0.1617 -0.7310
   36MOL   C21814988   1.239   2.671   4.675 -0.0155 -0.1643 -0.0628
   36MOL   H21914989   0.975   2.400   4.340 -0.0132 -0.0646  0.7990
   36MOL   H22014990   1.118   2.455   4.273  0.1993 -1.4340  0.3570
   36MOL   H22114991   1.074   2.512   4.575  1.0160  0.8105 -0.0440
   36MOL   H22214992   1.285   2.549   4.410 -1.7965 -0.2048 -1.1108
   36MOL   H22314993   1.325   2.398   4.472  1.1054 -0.1163  0.2173
   36MOL   H22414994   1.258   2.415   4.780  0.6547 -1.1808  0.7229
   36MOL   H22514995   1.419   2.474   4.806  0.8513 -3.2061  0.6723
   36MOL   H22614996   1.385   2.346   4.691  1.3137  0.2336  1.3442
   36MOL   H22714997   1.537   2.549   4.538  0.8681  0.4086 -0.9715
   36MOL   H22814998   1.445   2.695   4.515 -3.4454  1.3144  1.8693
   36MOL   H22914999   1.503   2.669   4.675 -1.6546 -1.5388  1.0777
   36MOL   H23015000   1.294   2.714   4.759  0.8427 -0.3950 -0.5084
   36MOL   H23115001   1.144   2.641   4.719  0.0647  1.3323  1.2156
   36MOL   H23215002   1.225   2.752   4.604  1.0028  0.2526  0.2020
   36MOL   C23315003   1.093   2.294   4.542 -1.1300  0.3861  0.2343
   36MOL   C23415004   0.950   2.258   4.588 -0.2585 -0.3218  0.5676
   36MOL   C23515005   0.925   2.110   4.566 -0.3884  0.1191  0.5879
   36MOL   C23615006   0.875   2.058   4.426 -0.0150 -0.4104  0.1923
   36MOL   C23715007   0.737   2.115   4.375  0.7919  0.1498  0.6245
   36MOL   C23815008   0.969   2.073   4.305  0.6848  0.2593 -0.1161
   36MOL   C23915009   0.860   1.910   4.445 -0.4694  0.8379  0.4082
   36MOL   H24015010   1.162   2.282   4.626  1.2845 -1.9684 -1.9793
   36MOL   H24115011   1.132   2.219   4.473 -0.7645  1.6144 -0.9029
   36MOL   H24215012   0.887   2.314   4.519 -0.3181 -1.6414 -0.4762
   36MOL   H24315013   1.021   2.067   4.594  0.6733  2.8685  1.2313
   36MOL   H24415014   0.852   2.077   4.640  0.4287 -0.0894  1.3062
   36MOL   H24515015   0.733   2.223   4.364  2.1850  0.4055  2.4498
   36MOL   H24615016   0.650   2.103   4.441  0.4747  1.9729  0.5640
   36MOL   H24715017   0.695   2.086   4.279  1.1228  1.1949  0.1594
   36MOL   H24815018   0.984   2.179   4.287 -1.2470  0.6510  0.5016
   36MOL   H24915019   1.066   2.035   4.337  0.5011  0.6857  0.9738
   36MOL   H25015020   0.935   2.023   4.214 -0.7448  0.3923  0.3389
   36MOL   H25115021   0.797   1.877   4.528 -0.5282  1.6363  0.6878
   36MOL   H25215022   0.822   1.859   4.356  0.6519 -1.9989  1.5338
   36MOL   H25315023   0.959   1.868   4.461 -0.4243 -0.1150 -2.1306
   36MOL   C25415024   0.909   2.311   4.727  0.2769  0.5439  0.0565
   36MOL   C25515025   0.767   2.284   4.791  0.2202 -0.0199 -0.1625
   36MOL   C25615026   0.649   2.329   4.695 -0.4853  0.1186  0.1712
   36MOL   C25715027   0.501   2.323   4.753  0.2127 -1.0841 -0.3219
   36MOL   C25815028   0.409   2.332   4.637  0.6276  0.1026 -0.4273
   36MOL   C25915029   0.456   2.441   4.846  0.0068  0.0697  0.2358
   36MOL   C26015030   0.477   2.189   4.819 -0.2062 -0.5016 -0.1075
   36MOL   H26115031   0.941   2.415   4.732  2.8376 -0.2024 -0.1247
   36MOL   H26215032   0.985   2.265   4.790  0.6525  1.8678  0.5938
   36MOL   H26315033   0.757   2.175   4.796  1.0851 -0.1997 -1.9510
   36MOL   H26415034   0.683   2.431   4.676  0.4117  0.3193  2.5684
   36MOL   H26515035   0.655   2.264   4.608 -0.5429 -1.4432  1.3024
   36MOL   H26615036   0.422   2.434   4.602  0.0514  0.1046 -0.6535
   36MOL   H26715037   0.305   2.307   4.662  1.7161 -0.4973  3.9233
   36MOL   H26815038   0.439   2.258   4.563 -2.4523 -0.9225 -0.7379
   36MOL   H26915039   0.485   2.533   4.796 -1.2470  1.9737  2.8808
   36MOL   H27015040   0.502   2.449   4.944  1.2084  0.4266 -0.3574
   36MOL   H27115041   0.347   2.450   4.847  0.1366  2.3450 -1.2399
   36MOL   H27215042   0.514   2.180   4.922  2.6742  0.4216 -1.0224
   36MOL   H27315043   0.370   2.186   4.841 -0.1227 -0.7250  0.2839
   36MOL   H27415044   0.509   2.106   4.756 -0.5643  0.3991 -1.4866
   36MOL   C27515045   0.759   2.346   4.937  0.5618  0.2195 -0.9069
   36MOL   C27615046   0.866   2.305   5.036  0.0959  0.3803 -0.3013
   36MOL   C27715047   0.849   2.403   5.160 -0.1628  0.5966  0.8820
   36MOL   C27815048   0.900   2.556   5.155 -0.6288 -0.2677  0.4251
   36MOL   C27915049   1.017   2.572   5.051  0.0143  0.2610 -0.5757
   36MOL   C28015050   0.777   2.645   5.120  0.0425 -0.4924 -0.0970
   36MOL   C28115051   0.955   2.602   5.291  0.8393  0.7949 -0.1648
   36MOL   H28215052   0.768   2.454   4.922 -0.2388  0.3688 -0.3699
   36MOL   H28315053   0.663   2.322   4.984  0.7380 -0.8066 -1.0613
   36MOL   H28415054   0.959   2.330   4.984  0.6452 -4.9501 -2.2012
   36MOL   H28515055   0.914   2.352   5.231 -0.1819 -1.8922 -0.8189
   36MOL   H28615056   0.758   2.390   5.219 -1.4299 -2.7421 -1.6199
   36MOL   H28715057   1.061   2.671   5.063  0.1206  0.4523 -2.3636
   36MOL   H28815058   1.089   2.491   5.057  0.2707  0.4635 -0.8774
   36MOL   H28915059   0.975   2.570   4.950 -0.3716 -1.0346 -0.3930
   36MOL   H29015060   0.767   2.644   5.012 -1.7783 -1.4313  0.0664
   36MOL   H29115061   0.806   2.749   5.133  0.6606 -0.7688  0.8522
   36MOL   H29215062   0.688   2.618   5.177 -0.3571  4.0014  1.6672
   36MOL   H29315063   0.878   2.586   5.366  0.1175  1.2510 -0.8096
   36MOL   H29415064   0.982   2.707   5.289 -2.6861  1.8281  2.2129
   36MOL   H29515065   1.040   2.540   5.322 -0.0664  0.4757  1.7616
   36MOL   C29615066   0.868   2.149   5.067  0.3056 -0.2360 -0.3417
   36MOL   C29715067   1.006   2.080   5.096 -0.3422 -0.3861  0.0333
   36MOL   C29815068   1.082   2.154   5.205  0.3178  0.3005  0.4745
   36MOL   C29915069   1.048   2.116   5.349 -0.1000 -0.6272 -0.0964
   36MOL   C30015070   1.093   2.219   5.442  0.3155 -0.0474  0.8895
   36MOL   C30115071   0.905   2.084   5.385 -0.1114  0.2446 -0.2564
   36MOL   C30215072   1.124   1.982   5.398  0.0031 -0.3313  1.1860
   36MOL   H30315073   0.833   2.089   4.983 -0.5146 -2.2622  1.4244
   36MOL   H30415074   0.800   2.122   5.148 -0.0565 -2.1654 -1.2629
   36MOL   H30515075   0.972   1.982   5.129  0.9602 -1.0282 -0.5173
   36MOL   H30615076   1.080   2.259   5.175  3.3647 -0.0106 -0.9547
   36MOL   H30715077   1.190   2.149   5.194  0.2026 -0.0741 -0.4659
   36MOL   H30815078   1.044   2.313   5.415  1.5571 -0.1442 -1.8127
   36MOL   H30915079   1.093   2.201   5.550  0.3261  0.0148  0.8994
   36MOL   H31015080   1.198   2.245   5.426 -0.0628 -0.2047 -2.0688
   36MOL   H31115081   0.897   2.049   5.488 -0.0427 -1.1938 -0.7289
   36MOL   H31215082   0.849   2.177   5.374 -0.7725 -0.3164 -1.6340
   36MOL   H31315083   0.869   2.003   5.323  2.3040 -0.1221 -1.2144
   36MOL   H31415084   1.098   1.950   5.499  0.0864  0.5990  1.5031
   36MOL   H31515085   1.111   1.895   5.332 -1.7516  1.1395 -0.4742
   36MOL   H31615086   1.231   1.994   5.408  0.2647 -0.4584 -1.0968
   36MOL   C31715087   1.098   2.067   4.970  0.0464  0.5357  0.4439
   36MOL   C31815088   1.213   1.959   4.996  0.0830 -0.0842  0.4150
   36MOL   C31915089   1.215   1.836   4.902  0.4303  0.3705  0.6832
   36MOL   C32015090   1.092   1.735   4.903  0.0554  0.7196  0.7520
   36MOL   C32115091   1.136   1.612   4.818 -0.4065  0.1248 -0.7420
   36MOL   C32215092   0.963   1.790   4.835  0.5011  0.2110  0.3329
   36MOL   C32315093   1.060   1.691   5.044 -0.1046 -0.3649 -0.2641
   36MOL   H32415094   1.039   2.039   4.882  0.7186  2.1286 -0.5274
   36MOL   H32515095   1.136   2.164   4.940  1.0443 -0.5287 -1.9258
   36MOL   H32615096   1.220   1.924   5.099  1.5111  0.6620  0.5853
   36MOL   H32715097   1.303   1.779   4.933  1.6077  2.3618  1.0619
   36MOL   H32815098   1.247   1.857   4.800  1.5423 -0.9201  0.7501
   36MOL   H32915099   1.174   1.639   4.720  1.4669  0.2980  0.0205
   36MOL   H33015100   1.062   1.533   4.805  0.1746 -0.8309  1.5327
   36MOL   H33115101   1.223   1.566   4.864  1.1596  3.4730 -0.1947
   36MOL   H33215102   0.912   1.857   4.906  0.9433  0.2410  0.6195
   36MOL   H33315103   0.976   1.835   4.737 -1.9893 -0.7524 -0.4891
   36MOL   H33415104   0.896   1.708   4.808 -0.4082  1.0654 -0.0672
   36MOL   H33515105   1.017   1.776   5.096 -1.4258 -0.7579 -0.6901
   36MOL   H33615106   1.148   1.659   5.099 -0.8430 -2.7358 -0.3856
   36MOL   H33715107   0.982   1.616   5.059  0.2282 -0.5251  0.6630
   36MOL   C33815108   1.346   2.033   4.985 -0.2337 -0.1308  0.2255
   36MOL   C33915109   1.473   1.967   5.036 -0.4190 -0.6095 -0.2345
   36MOL   C34015110   1.489   1.979   5.187 -0.0389 -0.6219  0.6093
   36MOL   C34115111   1.549   1.864   5.266 -0.0057  0.2432 -0.3473
   36MOL   C34215112   1.587   1.903   5.412  1.0231  0.0656  0.7446
   36MOL   C34315113   1.451   1.742   5.264 -0.1923 -0.1552  0.0178
   36MOL   C34415114   1.676   1.809   5.198 -0.2364  0.3102  0.0933
   36MOL   H34515115   1.329   2.135   5.022  1.2234 -0.4077  1.6971
   36MOL   H34615116   1.357   2.057   4.880 -0.9224  1.1127  0.4231
   36MOL   H34715117   1.469   1.859   5.017 -1.9031 -1.0264  2.3341
   36MOL   H34815118   1.394   1.998   5.238  0.7237 -0.0278  1.8361
   36MOL   H34915119   1.543   2.072   5.206 -0.4441 -0.4331  0.8376
   36MOL   H35015120   1.660   1.983   5.398  1.2459 -0.0684  1.1306
   36MOL   H35115121   1.490   1.935   5.451  0.6135 -0.1701 -0.0713
   36MOL   H35215122   1.620   1.819   5.473  0.6908 -1.1772 -0.7418
   36MOL   H35315123   1.487   1.668   5.336  1.0713 -0.4977 -0.9559
   36MOL   H35415124   1.350   1.768   5.296 -0.1189 -0.2972  0.3721
   36MOL   H35515125   1.451   1.695   5.166 -0.7985 -0.8390  0.3361
   36MOL   H35615126   1.767   1.867   5.214  0.3305 -1.3323  3.3329
   36MOL   H35715127   1.698   1.717   5.253 -1.0669 -0.1509 -0.3324
   36MOL   H35815128   1.669   1.776   5.095 -1.1766 -0.8365  0.5166
   36MOL   C35915129   1.602   2.020   4.962  0.0165  0.3430  0.1008
   36MOL   C36015130   1.626   1.992   4.810 -0.0400 -0.0637 -0.4059
   36MOL   C36115131   1.611   2.123   4.725 -0.3281  0.4621  0.1778
   36MOL   C36215132   1.738   2.212   4.705  0.2789 -0.1113  0.1488
   36MOL   C36315133   1.840   2.132   4.628  1.0454 -0.1390 -0.7109
   36MOL   C36415134   1.794   2.265   4.837 -0.2874  0.4206 -0.5701
   36MOL   C36515135   1.701   2.341   4.633  0.5130 -0.1343 -1.0915
   36MOL   H36615136   1.691   1.992   5.018 -1.4378 -2.6227  1.0127
   36MOL   H36715137   1.592   2.128   4.976 -2.6951  0.0732  0.5582
   36MOL   H36815138   1.730   1.959   4.804  0.7172  1.9213  1.2926
   36MOL   H36915139   1.578   2.094   4.626  1.8050  0.5733 -0.5835
   36MOL   H37015140   1.539   2.193   4.769 -0.6521 -0.8555  1.7599
   36MOL   H37115141   1.919   2.192   4.583 -0.1622 -0.6585 -3.6186
   36MOL   H37215142   1.876   2.051   4.693  0.4598 -0.4337 -0.7495
   36MOL   H37315143   1.793   2.092   4.539  2.0340 -1.5428 -0.6333
   36MOL   H37415144   1.712   2.318   4.885  0.6570  1.7174 -0.3497
   36MOL   H37515145   1.886   2.323   4.831 -0.1340  0.1310 -1.0317
   36MOL   H37615146   1.815   2.178   4.899 -1.2319  0.4168 -0.2434
   36MOL   H37715147   1.789   2.396   4.601  2.2712 -2.3230 -0.1794
   36MOL   H37815148   1.632   2.408   4.684 -2.1123 -0.6527 -3.8503
   36MOL   H37915149   1.643   2.312   4.546 -1.3221  0.8870 -0.2450
   36MOL   C38015150   1.540   1.877   4.748  0.2243  0.0782 -0.7331
   36MOL   C38115151   1.579   1.813   4.613  0.0417  0.2615 -0.4506
   36MOL   C38215152   1.466   1.733   4.542  0.6396 -0.0070  0.1567
   36MOL   C38315153   1.392   1.808   4.427  0.4137  0.5365  0.6085
   36MOL   C38415154   1.280   1.715   4.380  1.0982 -0.4641 -0.2262
   36MOL   C38515155   1.486   1.830   4.303  0.2730 -0.2526  0.6177
   36MOL   C38615156   1.340   1.948   4.459 -0.0961 -0.0768 -0.5111
   36MOL   H38715157   1.440   1.918   4.732  0.4005  0.4437 -0.9048
   36MOL   H38815158   1.523   1.790   4.810 -1.6702  1.5972  0.9661
   36MOL   H38915159   1.604   1.891   4.541  3.2610  1.8616  2.3083
   36MOL   H39015160   1.503   1.638   4.502 -0.7818 -0.1152 -0.9644
   36MOL   H39115161   1.396   1.692   4.614  0.0946  1.2811  0.3694
   36MOL   H39215162   1.213   1.672   4.454  0.0403  2.2905  0.4891
   36MOL   H39315163   1.229   1.775   4.304  1.0875  0.0826  0.2055
   36MOL   H39415164   1.335   1.633   4.334  2.7492  0.2872  0.3565
   36MOL   H39515165   1.556   1.913   4.311 -0.0544  0.2201 -1.1518
   36MOL   H39615166   1.430   1.865   4.216 -0.8478 -0.6108  1.1935
   36MOL   H39715167   1.544   1.744   4.271 -0.8265 -0.6938 -0.2213
   36MOL   H39815168   1.305   1.997   4.368  0.1059  1.2513  0.1264
   36MOL   H39915169   1.423   2.007   4.498  1.3238 -2.1230 -0.3425
   36MOL   H40015170   1.270   1.958   4.542 -0.7707  0.8108 -1.1729
   36MOL   C40115171   1.708   1.722   4.623 -0.3952 -0.5088  0.1037
   36MOL   C40215172   1.725   1.646   4.761  0.3864 -0.9705  0.4295
   36MOL   C40315173   1.635   1.520   4.758  0.4911  0.0105  0.7693
   36MOL   C40415174   1.654   1.415   4.871  0.4386 -0.6991 -0.2301
   36MOL   C40515175   1.535   1.322   4.861  0.3908  0.4435 -0.6387
   36MOL   C40615176   1.636   1.490   5.006  0.2784 -0.1335  0.6643
   36MOL   C40715177   1.781   1.329   4.871 -0.4593 -0.7980  0.1451
   36MOL   H40815178   1.727   1.650   4.544 -0.3181  0.5418 -0.8529
   36MOL   H40915179   1.799   1.782   4.619  0.2997 -1.5909 -0.4297
   36MOL   H41015180   1.823   1.598   4.761  1.2566  0.7471 -0.1260
   36MOL   H41115181   1.658   1.460   4.670 -1.0637 -0.1807  0.4859
   36MOL   H41215182   1.532   1.552   4.769  0.1009 -0.4765 -1.3770
   36MOL   H41315183   1.437   1.368   4.871 -0.2703 -1.2698  1.0021
   36MOL   H41415184   1.536   1.248   4.941 -1.5746 -0.3694 -1.3279
   36MOL   H41515185   1.538   1.267   4.766 -0.6025  0.5103 -0.7048
   36MOL   H41615186   1.721   1.557   5.019 -0.0142  0.5530 -0.7901
   36MOL   H41715187   1.626   1.423   5.091 -2.5780 -0.8612 -0.1994
   36MOL   H41815188   1.550   1.557   5.011 -0.5890 -1.2501  0.8364
   36MOL   H41915189   1.771   1.260   4.954 -1.6830 -0.1483  0.5458
   36MOL   H42015190   1.780   1.282   4.772 -2.6943 -1.8768  0.6566
   36MOL   H42115191   1.876   1.380   4.887 -1.1543  0.4312  0.4376
   36MOL   H42215192   1.715   1.710   4.849 -1.1600  0.4715 -0.7726
   37MOL     C115193   6.452   0.304   1.567 -0.0515 -0.2410 -0.2154
   37MOL     C215194   6.446   0.253   1.421 -0.1644 -0.0999 -0.8619
   37MOL     C315195   6.503   0.109   1.389  0.2189  0.1146  0.4780
   37MOL     C415196   6.431   7.742   1.435 -0.0257 -0.3731  0.3372
   37MOL     C515197   6.428   7.732   1.586  0.4818  0.1147 -0.1732
   37MOL     C615198   6.277   7.736   1.389  0.0859 -0.8848 -0.2292
   37MOL     C715199   6.502   7.609   1.376  0.1582  1.1198  0.3505
   37MOL     H815200   6.397   0.397   1.577  0.5800  0.5421 -3.5806
   37MOL     H915201   6.414   0.236   1.643 -1.0790  0.5030 -0.0557
   37MOL    H1015202   6.339   0.254   1.397 -0.9842 -0.3382  2.4948
   37MOL    H1115203   6.605   0.109   1.429  2.0293 -3.6016 -3.7142
   37MOL    H1215204   6.528   0.098   1.284  1.8849 -0.8639  0.9585
   37MOL    H1315205   6.353   0.025   1.639  0.5449 -0.1967  0.2695
   37MOL    H1415206   6.528   7.755   1.622  0.3786 -1.6211  1.3219
   37MOL    H1515207   6.403   7.630   1.615 -1.1017  0.8216  1.0483
   37MOL    H1615208   6.275   7.753   1.282  0.6910 -1.0927 -0.2759
   37MOL    H1715209   6.224   7.643   1.407 -0.7065 -0.8989 -2.4577
   37MOL    H1815210   6.212   0.046   1.433 -1.7199 -1.4904 -1.7965
   37MOL    H1915211   6.454   7.513   1.396 -0.5457  1.3177 -0.3627
   37MOL    H2015212   6.608   7.601   1.398  0.4271 -1.6636 -1.6789
   37MOL    H2115213   6.496   7.634   1.270  0.8127  1.3376  0.3674
   37MOL    H2215214   6.554   0.338   1.585  0.7298 -1.2190 -2.6171
   37MOL    C2315215   6.522   0.352   1.337  0.2048 -0.2607 -0.9414
   37MOL    C2415216   6.464   0.376   1.196 -0.0729 -0.2550  0.1506
   37MOL    C2515217   6.572   0.431   1.090 -0.1294  0.2100 -0.1002
   37MOL    C2615218   6.654   0.322   0.994  0.1221 -0.1409  0.1732
   37MOL    C2715219   6.764   0.398   0.923 -0.1596  0.2956  0.0854
   37MOL    C2815220   6.721   0.209   1.069 -0.9369  0.2088  0.1479
   37MOL    C2915221   6.560   0.264   0.884 -0.2250  0.1041 -0.4632
   37MOL    H3015222   6.511   0.452   1.379  2.5922  0.7102 -2.5139
   37MOL    H3115223   6.625   0.318   1.340  0.2318  0.0233  3.0443
   37MOL    H3215224   6.446   0.280   1.146  0.6026  0.5553 -1.6977
   37MOL    H3315225   6.651   0.491   1.135  1.0667 -2.6880  1.8043
   37MOL    H3415226   6.527   0.505   1.024 -1.9526 -1.6419 -1.0023
   37MOL    H3515227   6.716   0.469   0.855  2.0923  1.1184 -0.7128
   37MOL    H3615228   6.827   0.456   0.992 -1.4160  0.8709  0.7592
   37MOL    H3715229   6.831   0.333   0.867 -0.3166  2.0515 -2.2384
   37MOL    H3815230   6.645   0.145   1.115  0.5090  0.7519  3.4136
   37MOL    H3915231   6.782   0.146   1.005  0.3010 -0.1174  1.6490
   37MOL    H4015232   6.775   0.235   1.160  0.7764  0.5968 -0.9511
   37MOL    H4115233   6.495   0.187   0.925  0.5086 -0.8829 -1.1058
   37MOL    H4215234   6.623   0.204   0.818 -2.0294 -4.2662  1.6358
   37MOL    H4315235   6.509   0.337   0.822 -0.8107 -0.5827 -0.7955
   37MOL    C4415236   6.348   0.476   1.201 -0.4256 -0.0581  0.2196
   37MOL    C4515237   6.241   0.443   1.089  0.3532 -0.1390  0.4612
   37MOL    C4615238   6.161   0.577   1.067 -0.7477 -0.4561 -0.9837
   37MOL    C4715239   6.197   0.660   0.946 -0.8187 -0.1140  0.1934
   37MOL    C4815240   6.349   0.668   0.924  0.4123  0.0501 -0.5747
   37MOL    C4915241   6.134   0.807   0.952 -0.7052  0.3693 -0.4967
   37MOL    C5015242   6.141   0.588   0.818 -0.1824 -0.4952  0.1123
   37MOL    H5115243   6.294   0.466   1.295  0.9187 -0.3438  0.9724
   37MOL    H5215244   6.378   0.581   1.201  0.0202 -0.1686  2.0878
   37MOL    H5315245   6.291   0.419   0.995 -0.8099  0.3048 -0.2749
   37MOL    H5415246   6.176   0.634   1.159 -2.1695  1.3279 -1.8122
   37MOL    H5515247   6.052   0.564   1.065 -0.9970  1.2975  0.3959
   37MOL    H5615248   6.399   0.704   1.014  0.0888  0.0990 -0.4132
   37MOL    H5715249   6.361   0.741   0.844  0.4589  0.5928 -0.0709
   37MOL    H5815250   6.397   0.580   0.879  0.2669  0.3925 -1.4128
   37MOL    H5915251   6.030   0.807   0.984 -0.0243  1.8773  1.9036
   37MOL    H6015252   6.190   0.864   1.027  1.2399  0.5236 -1.9991
   37MOL    H6115253   6.143   0.856   0.855 -0.1144 -0.5658 -0.9209
   37MOL    H6215254   6.152   0.658   0.735  1.9739 -0.0250  0.7658
   37MOL    H6315255   6.196   0.498   0.789 -1.1613 -0.9068 -0.5028
   37MOL    H6415256   6.038   0.556   0.826 -0.6389  0.4887 -1.5133
   37MOL    C6515257   6.140   0.330   1.136 -0.2023 -0.2768 -0.7247
   37MOL    C6615258   6.060   0.266   1.019 -0.4440 -0.5338 -0.1655
   37MOL    C6715259   5.938   0.192   1.074  0.5706  0.6475 -0.3196
   37MOL    C6815260   5.798   0.266   1.049  0.0280  0.5806 -0.4400
   37MOL    C6915261   5.690   0.185   1.124  0.1233 -0.1908 -0.4558
   37MOL    C7015262   5.795   0.412   1.102 -0.7830  0.0468 -0.0634
   37MOL    C7115263   5.753   0.266   0.899 -0.3320  0.0506 -0.1974
   37MOL    H7215264   6.197   0.246   1.175  1.0466  1.6961  1.8421
   37MOL    H7315265   6.082   0.359   1.223 -1.3925  0.0153 -1.5993
   37MOL    H7415266   6.048   0.349   0.950  0.1877 -0.0494  0.2979
   37MOL    H7515267   5.950   0.177   1.181  0.4089  0.5217 -0.3191
   37MOL    H7615268   5.923   0.094   1.029  0.7603 -0.2955  1.6263
   37MOL    H7715269   5.712   0.180   1.231 -0.7991 -0.5179 -0.2696
   37MOL    H7815270   5.592   0.231   1.108  0.0000 -0.5050 -0.6044
   37MOL    H7915271   5.680   0.078   1.105 -0.1334  0.1150 -2.1138
   37MOL    H8015272   5.694   0.453   1.108 -0.0435  1.8625  0.1842
   37MOL    H8115273   5.857   0.481   1.045 -1.5266 -0.9691 -2.1732
   37MOL    H8215274   5.834   0.416   1.204 -0.4260 -1.4295 -0.1348
   37MOL    H8315275   5.821   0.337   0.853  0.0270  0.0104  0.2621
   37MOL    H8415276   5.657   0.316   0.888  0.4883  1.1557 -2.5180
   37MOL    H8515277   5.751   0.169   0.849 -2.1821  0.6656 -1.3516
   37MOL    C8615278   6.158   0.171   0.941  0.0401 -0.4379  0.3060
   37MOL    C8715279   6.119   0.108   0.809  0.0913  0.3185  0.2369
   37MOL    C8815280   6.200   7.747   0.784  0.5825 -0.3562 -0.1226
   37MOL    C8915281   6.126   7.602   0.792  0.8238 -0.4318  0.3259
   37MOL    C9015282   6.239   7.502   0.781 -0.2810 -0.0690 -0.4234
   37MOL    C9115283   6.035   7.588   0.671 -0.0231  0.5722  0.1669
   37MOL    C9215284   6.059   7.587   0.928  0.8339  0.2287  0.0139
   37MOL    H9315285   6.180   0.090   1.011  0.6754  0.3864  1.0826
   37MOL    H9415286   6.257   0.215   0.925  0.8087 -1.1683  2.7581
   37MOL    H9515287   6.015   0.081   0.823  0.3999 -0.7984  0.3946
   37MOL    H9615288   6.298   7.738   0.832 -0.2103  3.1720  2.3624
   37MOL    H9715289   6.225   7.757   0.678  1.4274  0.0165  0.1101
   37MOL    H9815290   6.296   7.510   0.688 -1.8663  1.9230 -1.2692
   37MOL    H9915291   6.200   7.400   0.783  0.8042 -0.4804  1.1694
   37MOL   H10015292   6.310   7.504   0.864  0.0807  0.9075 -0.7424
   37MOL   H10115293   6.087   7.594   0.576  1.1212  0.2991  0.7625
   37MOL   H10215294   5.986   7.490   0.669  1.2632 -0.0839  0.0428
   37MOL   H10315295   5.957   7.663   0.674 -1.1851 -0.6267  0.5365
   37MOL   H10415296   6.021   7.485   0.931 -1.0550  0.9125  0.6483
   37MOL   H10515297   6.118   7.593   1.019  2.6341 -1.2660 -1.0087
   37MOL   H10615298   5.984   7.663   0.951 -0.8426 -1.6812  1.0175
   37MOL   C10715299   6.142   0.209   0.697 -0.1591 -0.7505 -0.5759
   37MOL   C10815300   6.074   0.184   0.563  0.3766  0.3347  0.8372
   37MOL   C10915301   5.923   0.218   0.585 -0.2728  0.0778  0.7457
   37MOL   C11015302   5.818   0.208   0.469 -0.1900  0.2887  0.4632
   37MOL   C11115303   5.853   0.080   0.388  0.2714  0.3156  0.6882
   37MOL   C11215304   5.816   0.341   0.382 -0.0471  0.1546 -0.2812
   37MOL   C11315305   5.678   0.202   0.532  0.0775  0.2575 -0.2375
   37MOL   H11415306   6.250   0.218   0.684  0.3582 -2.8675  1.8041
   37MOL   H11515307   6.102   0.306   0.724 -3.0040 -1.9358 -0.3921
   37MOL   H11615308   6.086   0.081   0.531  0.7690  1.1471 -1.7900
   37MOL   H11715309   5.887   0.144   0.656 -0.0765 -0.4666  0.2849
   37MOL   H11815310   5.907   0.319   0.623  0.3112 -0.2004  1.7789
   37MOL   H11915311   5.789   0.046   0.306 -0.6115  0.0996  1.4635
   37MOL   H12015312   5.955   0.067   0.354  0.1907 -0.4913  0.7300
   37MOL   H12115313   5.848   7.760   0.455 -0.5404  0.3359  0.6681
   37MOL   H12215314   5.919   0.366   0.359  0.5091 -2.3478 -0.6934
   37MOL   H12315315   5.755   0.416   0.432 -1.4028 -0.0627 -1.5350
   37MOL   H12415316   5.773   0.325   0.283 -1.1937 -0.8892  0.3660
   37MOL   H12515317   5.594   0.199   0.462 -0.1938  3.1686 -0.1145
   37MOL   H12615318   5.654   0.281   0.603  2.0942 -1.1368  2.0786
   37MOL   H12715319   5.670   0.108   0.585  1.3574  0.2186 -0.1027
   37MOL   C12815320   6.145   0.264   0.443 -0.7117 -0.1215 -0.2463
   37MOL   C12915321   6.297   0.247   0.417 -0.3162 -0.4453  0.0570
   37MOL   C13015322   6.336   0.100   0.389  0.2496 -0.4126 -0.1778
   37MOL   C13115323   6.476   0.044   0.430 -0.1557 -0.7714 -0.8476
   37MOL   C13215324   6.584   0.087   0.338 -0.0155  0.0791 -0.3316
   37MOL   C13315325   6.468   7.660   0.428  1.1630  0.5602 -0.4206
   37MOL   C13415326   6.506   0.091   0.569  0.1921  0.1150 -0.0842
   37MOL   H13515327   6.127   0.371   0.459 -1.9666 -0.4690  0.7855
   37MOL   H13615328   6.099   0.241   0.347 -0.0948 -0.6785 -0.4107
   37MOL   H13715329   6.348   0.266   0.512  2.4532 -0.4179 -1.3791
   37MOL   H13815330   6.263   0.039   0.441 -1.1921  1.1607 -0.2956
   37MOL   H13915331   6.315   0.071   0.286 -0.7448 -1.7831  0.3997
   37MOL   H14015332   6.586   0.196   0.341 -1.0483  0.0660  2.6368
   37MOL   H14115333   6.563   0.052   0.237  2.3371 -1.9568 -0.1605
   37MOL   H14215334   6.676   0.046   0.378  0.1024 -0.2203 -0.9042
   37MOL   H14315335   6.564   7.622   0.463  0.1328 -1.3978  0.3782
   37MOL   H14415336   6.446   7.621   0.328 -1.1988  1.9360 -0.4714
   37MOL   H14515337   6.388   7.617   0.490 -0.2097  0.4412 -2.2173
   37MOL   H14615338   6.536   0.195   0.581  0.7186 -0.2319  1.7663
   37MOL   H14715339   6.419   0.078   0.634  1.4934 -3.6075  1.0679
   37MOL   H14815340   6.592   0.032   0.600  0.4797  1.3913  1.5591
   37MOL   C14915341   6.352   0.338   0.304  0.0146 -0.3270  0.7433
   37MOL   C15015342   6.415   0.479   0.336 -0.1649 -0.2687 -0.5042
   37MOL   C15115343   6.559   0.459   0.387  0.1383 -0.1508 -0.7732
   37MOL   C15215344   6.638   0.568   0.473 -0.6215  0.6356 -0.1134
   37MOL   C15315345   6.757   0.497   0.542  0.2544  0.1421  0.6465
   37MOL   C15415346   6.543   0.630   0.572  0.0566 -0.4225 -0.6879
   37MOL   C15515347   6.691   0.674   0.383 -0.4236 -0.0522  0.6590
   37MOL   H15615348   6.264   0.359   0.244  0.9033 -0.3254 -0.5602
   37MOL   H15715349   6.412   0.286   0.230 -1.6966  0.3989 -1.1972
   37MOL   H15815350   6.354   0.529   0.411 -0.3119  0.8880 -1.3744
   37MOL   H15915351   6.628   0.411   0.319  2.6651 -0.6590  2.0711
   37MOL   H16015352   6.539   0.378   0.457  0.2318  0.2460 -0.2842
   37MOL   H16115353   6.822   0.446   0.471  0.0981 -0.1532  0.7144
   37MOL   H16215354   6.823   0.562   0.600  0.1859  1.4195 -0.6742
   37MOL   H16315355   6.721   0.422   0.612  0.3851  0.8936  1.5305
   37MOL   H16415356   6.471   0.700   0.530  0.0638  0.4654  0.7525
   37MOL   H16515357   6.613   0.690   0.631  0.4587 -0.0733 -1.5188
   37MOL   H16615358   6.495   0.563   0.643  3.3356 -2.7361 -0.5697
   37MOL   H16715359   6.741   0.638   0.292  0.7863  0.8053  0.9816
   37MOL   H16815360   6.621   0.747   0.342  0.5712  0.1303 -0.7722
   37MOL   H16915361   6.767   0.740   0.425  0.7556  0.2736 -1.8668
   37MOL   C17015362   6.417   0.566   0.205  0.8713  0.1659 -0.5506
   37MOL   C17115363   6.332   0.693   0.204 -0.1499  0.5050  0.4590
   37MOL   C17215364   6.182   0.664   0.198 -0.1731 -0.0456  0.7774
   37MOL   C17315365   6.075   0.737   0.289  0.0829  0.0077  0.3607
   37MOL   C17415366   5.933   0.679   0.257 -0.5476 -0.4451 -0.0572
   37MOL   C17515367   6.073   0.884   0.243  0.0220  0.0373 -0.0969
   37MOL   C17615368   6.112   0.716   0.438  0.0735 -0.0794 -0.0654
   37MOL   H17715369   6.396   0.507   0.116 -1.0899 -0.9087  0.5972
   37MOL   H17815370   6.521   0.591   0.183  0.6487  1.2162 -0.4356
   37MOL   H17915371   6.353   0.736   0.302  1.0123  0.0891  0.4060
   37MOL   H18015372   6.149   0.650   0.095 -0.6661  2.1349  0.6055
   37MOL   H18115373   6.171   0.562   0.233  0.0430 -0.7928 -1.2863
   37MOL   H18215374   5.935   0.572   0.236 -2.9836 -0.0100 -2.7714
   37MOL   H18315375   5.873   0.690   0.348  1.0018 -0.0470  0.9316
   37MOL   H18415376   5.874   0.728   0.180  1.0804  1.3413 -0.1974
   37MOL   H18515377   6.159   0.942   0.274  0.2711 -0.5778  0.3661
   37MOL   H18615378   6.060   0.895   0.135  1.0376 -0.3720 -0.2617
   37MOL   H18715379   5.984   0.926   0.291 -0.5302 -1.6231  0.3828
   37MOL   H18815380   6.031   0.757   0.497 -0.5483 -2.4668  0.8142
   37MOL   H18915381   6.114   0.612   0.472 -0.7173  0.2637  1.0445
   37MOL   H19015382   6.203   0.764   0.474 -0.4547  1.3175 -0.5658
   37MOL   C19115383   6.385   0.808   0.120 -0.3870 -0.1156 -0.0373
   37MOL   C19215384   6.396   0.799   7.730  0.7707  0.0102  0.1853
   37MOL   C19315385   6.498   0.890   7.662  0.0825 -0.1499 -0.6861
   37MOL   C19415386   6.640   0.824   7.637  0.3945  0.1286 -0.0512
   37MOL   C19515387   6.608   0.731   7.510  0.0564  0.5048  0.2932
   37MOL   C19615388   6.702   0.731   7.750  0.4753  0.1285 -0.2261
   37MOL   C19715389   6.738   0.945   7.603  0.2639  0.3118 -0.7317
   37MOL   H19815390   6.330   0.899   0.141  2.0769  2.0344 -2.5151
   37MOL   H19915391   6.485   0.827   0.158 -0.8036 -0.1186  1.0914
   37MOL   H20015392   6.435   0.697   7.722  1.5278  0.5153 -3.9175
   37MOL   H20115393   6.527   0.961   7.740  1.0010  0.2786 -1.4050
   37MOL   H20215394   6.465   0.930   7.566  0.0239  0.0912 -0.5649
   37MOL   H20315395   6.551   0.641   7.529 -0.3902  0.4935 -1.0503
   37MOL   H20415396   6.559   0.791   7.434  1.2700  1.2187  0.0487
   37MOL   H20515397   6.703   0.702   7.464 -0.3971  0.3481 -0.5488
   37MOL   H20615398   6.722   0.786   0.076 -0.2773 -0.1467  0.1003
   37MOL   H20715399   6.635   0.647   0.002 -0.5657  0.8383 -0.8080
   37MOL   H20815400   6.794   0.685   7.714  0.7098  0.9154 -0.6495
   37MOL   H20915401   6.761   0.997   7.696 -2.1345 -0.2578  0.2248
   37MOL   H21015402   6.835   0.903   7.579  0.6164 -0.0531  1.1936
   37MOL   H21115403   6.699   1.019   7.534 -0.6498  2.0492  1.5771
   37MOL   C21215404   6.255   0.819   7.656  0.0702 -0.8227  0.6762
   37MOL   C21315405   6.232   0.729   7.523 -0.1388  0.1904 -0.1457
   37MOL   C21415406   6.097   0.773   7.458 -0.2709  0.1427 -0.3107
   37MOL   C21515407   6.105   0.866   7.328  0.3953  0.4238 -0.4766
   37MOL   C21615408   6.198   0.987   7.353 -0.5376 -0.2022  0.7244
   37MOL   C21715409   6.170   0.778   7.221 -0.4440  0.2408  0.5756
   37MOL   C21815410   5.960   0.920   7.283 -0.5480 -0.3165 -0.3834
   37MOL   H21915411   6.174   0.791   7.723  0.7450 -1.1751  1.3480
   37MOL   H22015412   6.231   0.923   7.633  1.4189 -0.5214  0.5836
   37MOL   H22115413   6.319   0.755   7.462  0.6164  0.6945  1.1165
   37MOL   H22215414   6.034   0.818   7.535  0.2945  3.3341 -1.6343
   37MOL   H22315415   6.045   0.685   7.420 -0.8201  0.9302 -1.4155
   37MOL   H22415416   6.162   1.046   7.438  0.2395  2.3651 -0.6551
   37MOL   H22515417   6.216   1.051   7.266 -1.0701 -0.5236  0.3758
   37MOL   H22615418   6.298   0.955   7.382 -0.5758 -0.8121  0.1770
   37MOL   H22715419   6.275   0.754   7.234 -0.1631  0.2661 -1.4425
   37MOL   H22815420   6.112   0.686   7.214 -0.2007  0.1142  0.2530
   37MOL   H22915421   6.164   0.823   7.122 -1.5092  0.8249  0.8891
   37MOL   H23015422   5.894   0.833   7.273 -0.1830 -0.6864  0.4081
   37MOL   H23115423   5.969   0.948   7.178  0.3404 -0.3877 -0.3331
   37MOL   H23215424   5.915   1.002   7.339 -0.0386  0.0244 -0.4691
   37MOL   C23315425   6.231   0.579   7.558  0.0619  0.0124  0.1720
   37MOL   C23415426   6.241   0.477   7.437  0.0371 -0.7441  0.4274
   37MOL   C23515427   6.393   0.479   7.389  0.1370 -0.6066 -0.0748
   37MOL   C23615428   6.433   0.425   7.250  0.3794 -0.0070 -0.4450
   37MOL   C23715429   6.332   0.444   7.140 -0.0703  0.1034 -0.3794
   37MOL   C23815430   6.555   0.502   7.209  0.0725  0.0811  0.6420
   37MOL   C23915431   6.474   0.275   7.246  0.2951 -0.1781  0.2789
   37MOL   H24015432   6.144   0.566   7.622 -2.7234  2.8235 -2.8255
   37MOL   H24115433   6.312   0.548   7.625 -0.0306 -0.9604 -0.1511
   37MOL   H24215434   6.182   0.511   7.351  0.6961 -1.0036 -0.1303
   37MOL   H24315435   6.415   0.586   7.391  1.2905 -0.8515  2.3932
   37MOL   H24415436   6.463   0.441   7.464  0.9979  0.8483 -0.1094
   37MOL   H24515437   6.242   0.384   7.148 -1.0847  1.6069 -0.4904
   37MOL   H24615438   6.376   0.424   7.042  4.7479  0.7178  1.4862
   37MOL   H24715439   6.299   0.547   7.140  1.6304  0.6734 -0.2234
   37MOL   H24815440   6.532   0.606   7.187  3.7639  0.2747 -2.8399
   37MOL   H24915441   6.630   0.500   7.288 -1.1951  0.8448  1.8861
   37MOL   H25015442   6.604   0.471   7.117  1.0608  1.7204  0.5998
   37MOL   H25115443   6.396   0.207   7.278  0.3101 -0.7608 -0.8939
   37MOL   H25215444   6.500   0.248   7.144  0.1780  1.2600 -0.1511
   37MOL   H25315445   6.558   0.251   7.311 -0.1693 -0.6359  0.7028
   37MOL   C25415446   6.206   0.335   7.486  0.5463  0.4140  0.3727
   37MOL   C25515447   6.054   0.314   7.526  0.4274  0.0673 -0.5005
   37MOL   C25615448   6.038   0.161   7.577 -0.0317  0.1548 -0.2346
   37MOL   C25715449   6.099   0.124   7.715 -0.0458 -0.3638  0.2598
   37MOL   C25815450   6.071   7.743   7.735  0.0386 -0.3407 -0.5720
   37MOL   C25915451   6.026   0.210   0.056 -0.1324 -0.0306  0.1351
   37MOL   C26015452   6.252   0.132   7.745  0.1411 -0.1371 -0.2945
   37MOL   H26115453   6.269   0.318   7.573 -0.9170 -0.8612  1.2205
   37MOL   H26215454   6.222   0.260   7.409 -3.1843 -0.6276  0.4957
   37MOL   H26315455   6.036   0.382   7.609  1.9756 -1.1925  0.9232
   37MOL   H26415456   5.931   0.148   7.587 -0.2302  0.8680 -1.3616
   37MOL   H26515457   6.064   0.095   7.495 -1.6674 -0.8854  0.0739
   37MOL   H26615458   5.963   7.729   7.738 -0.1395  1.1136  0.0557
   37MOL   H26715459   6.110   7.696   0.059 -1.6322 -2.8326 -1.0946
   37MOL   H26815460   6.108   7.699   7.643 -2.3691  1.1933 -2.3229
   37MOL   H26915461   5.919   0.188   0.058 -0.2303  0.4892  0.7384
   37MOL   H27015462   6.041   0.317   0.048  0.8211 -0.2956 -1.9541
   37MOL   H27115463   6.065   0.173   0.151 -1.0563 -0.7589  0.2463
   37MOL   H27215464   6.290   0.063   0.055 -0.1622  1.0499  0.9418
   37MOL   H27315465   6.315   0.118   7.657 -1.4139  0.1756 -1.4757
   37MOL   H27415466   6.286   0.227   0.019  2.4656 -0.9629 -0.2010
   37MOL   C27515467   5.952   0.342   7.413 -0.2323 -0.0411 -0.1416
   37MOL   C27615468   5.807   0.378   7.451 -0.0358  0.4107 -0.3301
   37MOL   C27715469   5.808   0.526   7.497  0.5569 -0.3655 -0.5990
   37MOL   C27815470   5.707   0.553   7.613  0.6115 -0.4194  0.0433
   37MOL   C27915471   5.714   0.712   7.621  0.0171  0.0426  0.2799
   37MOL   C28015472   5.563   0.509   7.586 -0.5847  0.1760  1.0535
   37MOL   C28115473   5.764   0.498   7.751 -0.1243  0.3609  0.0921
   37MOL   H28215474   5.986   0.429   7.356  1.2573 -1.7032 -1.8419
   37MOL   H28315475   5.946   0.263   7.338  0.8128  2.4304 -2.9366
   37MOL   H28415476   5.768   0.318   7.533 -1.5165 -0.5393 -1.7256
   37MOL   H28515477   5.791   0.587   7.408 -2.1206  1.2012  0.9324
   37MOL   H28615478   5.906   0.558   7.531  0.1972  0.1026  0.0053
   37MOL   H28715479   5.633   0.752   7.682 -0.8063  2.1470 -2.0796
   37MOL   H28815480   5.812   0.738   7.659  0.4895 -1.8117  0.3882
   37MOL   H28915481   5.699   0.773   7.531  0.0670 -0.2129  0.0957
   37MOL   H29015482   5.542   0.407   7.616 -0.2766  0.6296  2.8638
   37MOL   H29115483   5.540   0.515   7.479 -0.0681  0.2956  0.9485
   37MOL   H29215484   5.488   0.562   7.644 -0.0355  0.8744  1.1426
   37MOL   H29315485   5.697   0.530   0.064 -0.2293  0.9925 -0.2490
   37MOL   H29415486   5.859   0.536   0.023 -0.9668  1.4041  1.2083
   37MOL   H29515487   5.764   0.389   7.748  1.3797  0.3594 -0.9454
   37MOL   C29615488   5.719   0.361   7.323  1.0009  0.4225 -0.2383
   37MOL   C29715489   5.636   0.232   7.324  0.2463  0.1088  0.4364
   37MOL   C29815490   5.714   0.095   7.327 -0.0448  0.2112  0.4270
   37MOL   C29915491   5.657   7.731   7.388  0.3350 -0.2820 -0.0310
   37MOL   C30015492   5.530   7.681   7.319  0.7756 -0.5344  0.0533
   37MOL   C30115493   5.765   7.616   7.386 -0.1785 -0.5658  0.4870
   37MOL   C30215494   5.619   7.756   7.532 -0.3613  0.4034  0.4482
   37MOL   H30315495   5.782   0.380   7.236  2.3795  2.4650  1.1412
   37MOL   H30415496   5.637   0.431   7.308  1.1991  0.7893  0.3726
   37MOL   H30515497   5.570   0.242   7.411 -0.6133 -1.4354 -0.0247
   37MOL   H30615498   5.811   0.113   7.374  0.3721 -1.5303  0.2793
   37MOL   H30715499   5.735   0.074   7.222 -3.2721  0.7861 -0.3915
   37MOL   H30815500   5.450   7.749   7.289  1.9800  1.3293  0.9769
   37MOL   H30915501   5.544   7.653   7.214  0.8492  2.7713 -0.8753
   37MOL   H31015502   5.483   7.605   7.381  2.3029 -0.3251  1.5032
   37MOL   H31115503   5.777   7.609   7.278 -0.8656 -2.3851  0.5088
   37MOL   H31215504   5.870   7.634   7.410 -0.2186 -0.7916  0.8362
   37MOL   H31315505   5.737   7.522   7.434 -1.3742  0.4949  1.9095
   37MOL   H31415506   5.706   0.018   7.591 -0.5438  0.6167  0.6207
   37MOL   H31515507   5.540   0.063   7.553 -1.1382 -0.1350 -0.5761
   37MOL   H31615508   5.592   7.662   7.580  2.4908 -0.6060  0.1574
   37MOL   C31715509   5.538   0.232   7.202  0.7191 -0.7389  0.7125
   37MOL   C31815510   5.399   0.314   7.220  0.2911  0.2837 -0.4518
   37MOL   C31915511   5.323   0.306   7.083 -0.0322 -0.4534  0.8239
   37MOL   C32015512   5.344   0.428   6.981 -0.1875 -0.4539 -0.3544
   37MOL   C32115513   5.244   0.409   6.862  0.5919 -0.5477 -1.0317
   37MOL   C32215514   5.484   0.440   6.904 -0.5170 -0.9321  0.0012
   37MOL   C32315515   5.312   0.564   7.051  0.1035  0.1682  0.2187
   37MOL   H32415516   5.598   0.265   7.117 -0.9330  1.6710  0.4240
   37MOL   H32515517   5.514   0.132   7.167  0.6405 -0.5641  0.2706
   37MOL   H32615518   5.418   0.414   7.260 -0.0424  0.7995 -1.5465
   37MOL   H32715519   5.216   0.310   7.104 -0.2786  1.2053 -0.5988
   37MOL   H32815520   5.340   0.212   7.031 -0.3508  0.0146 -0.1516
   37MOL   H32915521   5.143   0.395   6.901  1.9292 -1.4838  2.2883
   37MOL   H33015522   5.272   0.317   6.810  1.0736 -0.2558 -1.2915
   37MOL   H33115523   5.257   0.487   6.787 -0.2017  0.8800  0.3007
   37MOL   H33215524   5.502   0.349   6.848 -0.8052 -1.4179  0.6932
   37MOL   H33315525   5.489   0.527   6.839 -0.0673  0.1639  1.4733
   37MOL   H33415526   5.566   0.450   6.975 -0.4522  3.9044 -0.6089
   37MOL   H33515527   5.215   0.563   7.101 -0.2844  1.1231 -0.4968
   37MOL   H33615528   5.306   0.646   6.979  0.7446 -0.4763 -0.5737
   37MOL   H33715529   5.386   0.598   7.123  2.1082 -0.0851 -1.6694
   37MOL   C33815530   5.306   0.245   7.328  1.2402 -0.4110 -0.1721
   37MOL   C33915531   5.221   0.338   7.423  0.0578  0.2631  0.5913
   37MOL   C34015532   5.109   0.257   7.492 -0.0679 -0.1304  0.4264
   37MOL   C34115533   5.136   0.147   7.603 -0.0396 -0.0062 -0.5333
   37MOL   C34215534   5.148   0.006   7.540  0.6100 -0.2561 -0.0709
   37MOL   C34315535   5.269   0.190   7.678 -0.1365 -0.4190  0.1517
   37MOL   C34415536   5.024   0.155   7.706 -0.2759  0.5307  0.4014
   37MOL   H34515537   5.367   0.185   7.395  1.2667  1.0542  1.1359
   37MOL   H34615538   5.239   0.174   7.278  0.5081 -0.6409  1.1124
   37MOL   H34715539   5.290   0.371   7.500  0.0222  1.8627 -0.0457
   37MOL   H34815540   5.053   0.216   7.408 -0.9118  1.2514  0.2909
   37MOL   H34915541   5.041   0.328   7.541  1.4158  2.4921 -1.2029
   37MOL   H35015542   5.053   7.754   7.489 -0.5296  1.1769  1.4815
   37MOL   H35115543   5.237   7.765   7.478 -0.1311  1.8123 -1.4302
   37MOL   H35215544   5.160   7.690   7.611 -0.0736 -0.0461  0.2970
   37MOL   H35315545   5.250   0.295   7.698  0.7682 -0.0850 -0.6703
   37MOL   H35415546   5.283   0.139   0.008  1.5154 -1.6114 -0.6773
   37MOL   H35515547   5.364   0.173   7.627  0.1264  0.0182  0.4929
   37MOL   H35615548   5.012   0.247   7.762  2.4919  1.5455 -0.5865
   37MOL   H35715549   4.927   0.131   7.663  0.6779  0.1510 -1.6289
   37MOL   H35815550   5.037   0.083   0.021 -0.1845  0.5267  0.3835
   37MOL   C35915551   5.152   0.463   7.354  0.7138  0.0119 -0.4633
   37MOL   C36015552   5.095   0.583   7.436  0.7172 -0.1880  0.5233
   37MOL   C36115553   5.000   0.668   7.344 -0.2149 -0.0770  0.8451
   37MOL   C36215554   4.848   0.640   7.361  0.2312 -0.0411  0.1291
   37MOL   C36315555   4.764   0.709   7.252  0.6885  0.2941 -0.3440
   37MOL   C36415556   4.790   0.695   7.491 -0.5667  0.0269 -0.0201
   37MOL   C36515557   4.815   0.494   7.347 -0.4595  0.1876 -0.6619
   37MOL   H36615558   5.087   0.430   7.272 -0.1686  1.5766 -0.4155
   37MOL   H36715559   5.239   0.505   7.304  0.3126  0.4723 -0.7748
   37MOL   H36815560   5.035   0.540   7.515 -2.8940 -0.4702 -2.2382
   37MOL   H36915561   5.019   0.773   7.367  0.9825 -0.2033  0.4784
   37MOL   H37015562   5.046   0.657   7.246 -1.2122  1.5304  0.1786
   37MOL   H37115563   4.655   0.702   7.247  0.7895 -1.2101 -0.6770
   37MOL   H37215564   4.780   0.815   7.269 -4.2644  0.4347  4.9137
   37MOL   H37315565   4.809   0.688   7.155  0.4168 -0.2767 -0.3522
   37MOL   H37415566   4.804   0.803   7.486  1.6390 -0.1932  0.9904
   37MOL   H37515567   4.850   0.667   7.578  0.3192  3.1209  0.4254
   37MOL   H37615568   4.683   0.681   7.508 -0.3931  1.2873  2.3072
   37MOL   H37715569   4.709   0.468   7.353 -0.7580  1.3875 -0.6158
   37MOL   H37815570   4.850   0.439   7.435  1.3556 -0.0787 -1.5307
   37MOL   H37915571   4.857   0.449   7.258 -1.5699 -0.6826 -0.7679
   37MOL   C38015572   5.208   0.666   7.497 -0.2700 -0.1415  0.3661
   37MOL   C38115573   5.157   0.763   7.604 -0.0509  0.8179 -0.3698
   37MOL   C38215574   5.249   0.889   7.622 -0.6336  0.1401 -0.0786
   37MOL   C38315575   5.189   1.030   7.600  0.1791  0.9401 -0.0504
   37MOL   C38415576   5.300   1.132   7.632  0.4063  0.5866 -0.3070
   37MOL   C38515577   5.074   1.056   7.707 -0.3686 -0.1237  0.1717
   37MOL   C38615578   5.151   1.053   7.454  0.1086 -0.1249 -0.3216
   37MOL   H38715579   5.257   0.734   7.427  1.2226  1.0520  2.5400
   37MOL   H38815580   5.290   0.608   7.539  0.4515  0.3271 -0.3782
   37MOL   H38915581   5.063   0.807   7.570 -0.8040  0.4052  1.1272
   37MOL   H39015582   5.298   0.873   7.718 -2.9085 -1.0716  0.9133
   37MOL   H39115583   5.332   0.888   7.552 -0.4711 -1.0599  0.1311
   37MOL   H39215584   5.333   1.118   7.735 -0.0160 -0.6299 -0.3323
   37MOL   H39315585   5.381   1.110   7.562  0.2274  0.4578 -0.4731
   37MOL   H39415586   5.256   1.229   7.610  0.6306  1.4819  3.0165
   37MOL   H39515587   4.996   0.979   7.709  0.5743 -1.1320 -0.7797
   37MOL   H39615588   5.025   1.153   7.708  3.3447  1.8372 -0.8153
   37MOL   H39715589   5.106   1.039   0.044 -1.7433  2.2771  1.0304
   37MOL   H39815590   5.232   1.025   7.387 -2.3790 -2.1786 -2.5978
   37MOL   H39915591   5.150   1.158   7.425  1.5152  0.8075  2.8055
   37MOL   H40015592   5.066   0.989   7.428 -1.1623  0.4900  2.1286
   37MOL   C40115593   5.114   0.701   7.736 -0.3325 -0.4280  0.6690
   37MOL   C40215594   5.226   0.618   0.039  0.6889  0.1250 -0.6168
   37MOL   C40315595   5.191   0.602   0.189 -0.0495 -0.0312  0.7684
   37MOL   C40415596   5.291   0.516   0.269 -0.0038  0.7278 -0.1754
   37MOL   C40515597   5.244   0.493   0.414 -0.9134 -0.2127 -0.2193
   37MOL   C40615598   5.419   0.602   0.274  0.6851  0.7406 -0.2168
   37MOL   C40715599   5.314   0.376   0.211  0.0543  0.6304  0.2906
   37MOL   H40815600   5.089   0.790   0.029  1.9369  0.1308  0.8434
   37MOL   H40915601   5.024   0.642   7.719 -0.2795  0.0799 -1.5741
   37MOL   H41015602   5.237   0.521   7.758 -1.2974  0.0830 -1.0564
   37MOL   H41115603   5.093   0.555   0.189 -0.8752  1.5966 -1.3678
   37MOL   H41215604   5.165   0.700   0.231 -1.8141  0.2036 -0.8071
   37MOL   H41315605   5.322   0.443   0.472 -0.5496  2.7077  1.9163
   37MOL   H41415606   5.157   0.427   0.406 -1.6518  0.7169  0.0942
   37MOL   H41515607   5.216   0.586   0.462  1.0924  0.7188 -0.7955
   37MOL   H41615608   5.475   0.593   0.181  1.5274 -2.4564  0.5462
   37MOL   H41715609   5.498   0.569   0.341 -0.4119 -1.3073  0.1014
   37MOL   H41815610   5.397   0.709   0.283 -1.1348  0.3235  0.4715
   37MOL   H41915611   5.363   0.387   0.114  0.5564  1.5861  0.6431
   37MOL   H42015612   5.388   0.317   0.265 -0.6959 -1.8117 -1.2607
   37MOL   H42115613   5.228   0.316   0.182  0.0686  0.5487  0.4200
   37MOL   H42215614   5.322   0.669   0.034  0.6369  0.2332 -0.5066
   38MOL     C115615   2.265   5.328   1.622  0.3346 -0.3455  0.5778
   38MOL     C215616   2.353   5.319   1.502 -0.0460  0.6090 -0.1521
   38MOL     C315617   2.460   5.422   1.514 -0.5626 -0.5362 -0.5060
   38MOL     C415618   2.602   5.388   1.450  0.1757  0.0312 -0.2728
   38MOL     C515619   2.698   5.509   1.457  0.6906  0.9738 -0.9057
   38MOL     C615620   2.677   5.285   1.537 -0.0012  0.7260 -0.2257
   38MOL     C715621   2.603   5.332   1.306 -0.3346 -0.1085 -0.1348
   38MOL     H815622   2.192   5.247   1.621  2.1330 -2.0360  1.7987
   38MOL     H915623   2.307   5.338   1.722 -2.6455 -0.7308  1.8986
   38MOL    H1015624   2.401   5.222   1.512 -0.1546  0.6734  1.1935
   38MOL    H1115625   2.477   5.438   1.620 -0.5460 -1.8494 -0.2947
   38MOL    H1215626   2.444   5.518   1.465  0.3987  0.6103  1.3555
   38MOL    H1315627   2.800   5.484   1.429  0.5565 -0.0557 -0.5073
   38MOL    H1415628   2.712   5.547   1.559 -0.7622 -0.9032  0.0291
   38MOL    H1515629   2.665   5.601   1.409  0.7521  1.6506  0.3294
   38MOL    H1615630   2.771   5.249   1.494  0.1478 -2.1908  2.3734
   38MOL    H1715631   2.715   5.332   1.628  1.6001 -2.1477  0.6602
   38MOL    H1815632   2.621   5.197   1.569  0.8759 -0.1409 -1.0429
   38MOL    H1915633   2.563   5.407   1.238  0.2682  2.3556  2.1119
   38MOL    H2015634   2.559   5.233   1.294 -0.1003 -0.0488 -1.5871
   38MOL    H2115635   2.706   5.317   1.274  0.3651 -2.5211  2.9631
   38MOL    H2215636   2.205   5.418   1.608  0.2853 -0.5006 -0.2455
   38MOL    C2315637   2.275   5.338   1.366  0.3281 -0.3419 -0.5137
   38MOL    C2415638   2.163   5.244   1.322  0.3995  0.2961 -0.7245
   38MOL    C2515639   2.204   5.094   1.307 -0.0631  0.2725 -0.0149
   38MOL    C2615640   2.100   4.986   1.319 -0.2110  0.5579 -0.4473
   38MOL    C2715641   2.164   4.852   1.281 -0.0956  0.6615 -0.2805
   38MOL    C2815642   2.060   4.970   1.469 -0.2871  0.3284 -0.3227
   38MOL    C2915643   1.979   5.005   1.229 -0.2329 -0.3847  0.8159
   38MOL    H3015644   2.236   5.439   1.370  0.2592 -0.3062 -2.0110
   38MOL    H3115645   2.340   5.341   1.279  0.1096  2.2431 -0.6271
   38MOL    H3215646   2.081   5.254   1.393  1.1739 -1.1255  0.4173
   38MOL    H3315647   2.290   5.069   1.369  2.0446  1.1867 -2.4827
   38MOL    H3415648   2.252   5.076   1.211 -0.4582  3.7886 -0.9504
   38MOL    H3515649   2.257   4.834   1.335 -0.2221 -0.2272 -0.3459
   38MOL    H3615650   2.097   4.768   1.302  1.1670 -0.2148  0.2777
   38MOL    H3715651   2.190   4.854   1.175  0.4817 -0.5755 -0.1723
   38MOL    H3815652   1.997   5.052   1.503 -1.7106 -0.6603 -0.4997
   38MOL    H3915653   1.999   4.883   1.495  0.7921  0.0707  1.4756
   38MOL    H4015654   2.143   4.968   1.539  1.9937  2.3160 -2.8891
   38MOL    H4115655   2.016   5.021   1.128  0.6348 -0.8614  1.0553
   38MOL    H4215656   1.929   5.094   1.267 -0.8769 -0.3115 -0.1987
   38MOL    H4315657   1.908   4.923   1.218 -0.2158 -0.4038  0.8412
   38MOL    C4415658   2.104   5.298   1.186  0.7387 -0.4406  0.9371
   38MOL    C4515659   2.041   5.444   1.175 -0.0585 -0.4700 -0.4437
   38MOL    C4615660   1.896   5.439   1.246  0.1149 -0.0461  0.4880
   38MOL    C4715661   1.849   5.570   1.315 -0.0365  0.0277 -0.5362
   38MOL    C4815662   1.953   5.594   1.425 -0.4695 -1.1778 -1.0460
   38MOL    C4915663   1.710   5.563   1.375 -0.4071  0.2271 -0.2663
   38MOL    C5015664   1.854   5.698   1.229 -0.2311  0.1219 -0.1858
   38MOL    H5115665   2.182   5.297   1.110  0.3308  0.2717  0.5069
   38MOL    H5215666   2.030   5.229   1.144  2.3465 -2.0679  0.6958
   38MOL    H5315667   2.098   5.520   1.229 -0.8912 -1.6510  2.1934
   38MOL    H5415668   1.881   5.369   1.328  1.0496  0.5024  1.1423
   38MOL    H5515669   1.824   5.410   1.169 -0.7698 -1.3089  1.7551
   38MOL    H5615670   1.923   5.662   1.504 -0.4234 -0.8187 -1.3334
   38MOL    H5715671   2.047   5.637   1.389  0.6914 -0.1456  2.9500
   38MOL    H5815672   1.980   5.499   1.471 -0.4099 -1.3213 -1.3740
   38MOL    H5915673   1.671   5.657   1.413  1.4087  0.7116  0.4456
   38MOL    H6015674   1.642   5.512   1.307  1.0540 -1.4846 -0.5016
   38MOL    H6115675   1.714   5.495   1.461 -1.7534  0.4989  0.0149
   38MOL    H6215676   1.950   5.746   1.209 -0.0434 -0.5540 -0.9351
   38MOL    H6315677   1.806   5.683   1.132  0.5362  2.0130 -0.8736
   38MOL    H6415678   1.805   5.779   1.283  0.4598  0.1930  0.3412
   38MOL    C6515679   2.041   5.494   1.025 -0.3538  0.7999  0.0130
   38MOL    C6615680   2.183   5.518   0.976 -0.0779 -0.1166 -0.2697
   38MOL    C6715681   2.210   5.675   0.989 -0.4018  0.3570  0.4995
   38MOL    C6815682   2.352   5.735   0.982  0.7055  0.0348  0.1235
   38MOL    C6915683   2.330   5.887   1.000  0.3174 -0.0190  0.6812
   38MOL    C7015684   2.427   5.683   1.105 -0.5640 -0.1444  0.4266
   38MOL    C7115685   2.429   5.710   0.853 -0.0502  0.7952  0.3455
   38MOL    H7215686   1.990   5.415   0.971 -1.0329  0.6980  0.7951
   38MOL    H7315687   1.985   5.587   1.014  1.9408  2.5651  2.3628
   38MOL    H7415688   2.261   5.465   1.031  0.2160 -1.4469 -1.9472
   38MOL    H7515689   2.155   5.703   1.079 -0.3929 -1.1214  0.9801
   38MOL    H7615690   2.149   5.723   0.912  0.6968  0.6503 -0.2030
   38MOL    H7715691   2.422   5.943   0.983  0.4278  0.0624  1.5590
   38MOL    H7815692   2.274   5.934   0.919 -0.6696 -2.5563 -0.1768
   38MOL    H7915693   2.291   5.933   1.090  0.2820  2.9299 -0.7673
   38MOL    H8015694   2.529   5.721   1.101 -0.1122 -1.3810  0.1766
   38MOL    H8115695   2.438   5.576   1.117 -0.3214 -0.1139  0.4678
   38MOL    H8215696   2.380   5.726   1.194 -0.8919  0.7443 -0.1647
   38MOL    H8315697   2.524   5.762   0.846  1.0255 -1.1236  0.3669
   38MOL    H8415698   2.376   5.730   0.760  1.7454  0.2617 -0.8117
   38MOL    H8515699   2.458   5.605   0.850 -1.2081  0.4661  0.2439
   38MOL    C8615700   2.176   5.482   0.825 -0.1991  0.0310  0.8185
   38MOL    C8715701   2.178   5.333   0.782 -0.0469  0.0616 -0.3028
   38MOL    C8815702   2.312   5.271   0.730 -0.1629 -0.2995  0.3057
   38MOL    C8915703   2.400   5.180   0.820 -0.0007  0.0372 -0.2665
   38MOL    C9015704   2.460   5.254   0.943 -0.8697  0.0848  0.4143
   38MOL    C9115705   2.520   5.128   0.732  0.6220  0.8978 -0.0799
   38MOL    C9215706   2.320   5.054   0.863  0.3687  0.2115 -0.2017
   38MOL    H9315707   2.265   5.517   0.773 -0.4542 -0.6434 -0.0855
   38MOL    H9415708   2.096   5.532   0.770 -0.0984 -0.7699 -0.0767
   38MOL    H9515709   2.155   5.286   0.877  1.3998  2.6385  1.3733
   38MOL    H9615710   2.366   5.351   0.680  1.3256  0.1430  2.5128
   38MOL    H9715711   2.291   5.211   0.642  1.3247  1.6999 -1.4498
   38MOL    H9815712   2.555   5.208   0.973 -1.2650  0.1766  1.8193
   38MOL    H9915713   2.402   5.247   1.034 -0.4933  1.2469  0.7536
   38MOL   H10015714   2.484   5.358   0.922  0.0196 -0.8425 -3.6723
   38MOL   H10115715   2.600   5.085   0.792 -1.0028  0.2619  1.7034
   38MOL   H10215716   2.489   5.063   0.650  2.8066 -0.3303  0.0342
   38MOL   H10315717   2.557   5.214   0.678  1.1750  0.6481 -0.1027
   38MOL   H10415718   2.226   5.078   0.914  0.9357  1.2501  0.3497
   38MOL   H10515719   2.281   4.991   0.783  3.4004 -1.4393 -0.4327
   38MOL   H10615720   2.381   4.991   0.928  0.4640 -0.0448 -0.5411
   38MOL   C10715721   2.052   5.307   0.692 -0.3936  0.4620  0.1920
   38MOL   C10815722   2.030   5.163   0.642  0.2136 -1.1173 -0.4984
   38MOL   C10915723   1.878   5.131   0.635  0.2095  0.3295 -0.1589
   38MOL   C11015724   1.814   5.066   0.761 -0.1652  0.0041 -0.3328
   38MOL   C11115725   1.855   5.143   0.890  0.5935 -0.0559  0.3542
   38MOL   C11215726   1.850   4.913   0.785 -0.0475  0.8735 -0.3465
   38MOL   C11315727   1.657   5.071   0.754  0.1339  0.1665 -0.0596
   38MOL   H11415728   2.069   5.369   0.604 -0.8949 -1.0686 -1.0209
   38MOL   H11515729   1.967   5.345   0.749  0.2383 -2.4524  3.2144
   38MOL   H11615730   2.062   5.082   0.708  1.0252 -0.0934  0.3958
   38MOL   H11715731   1.835   5.223   0.597  0.8370  0.3643 -0.8091
   38MOL   H11815732   1.868   5.057   0.556 -2.5533  1.9736 -1.4218
   38MOL   H11915733   1.958   5.177   0.895  0.1839  1.0551  1.3727
   38MOL   H12015734   1.789   5.229   0.896  3.3893  2.1061  1.5779
   38MOL   H12115735   1.825   5.086   0.978 -2.5181  1.1279  0.1263
   38MOL   H12215736   1.790   4.865   0.863 -1.5184  2.0990 -0.6935
   38MOL   H12315737   1.956   4.889   0.798 -0.0955  0.3610 -0.8918
   38MOL   H12415738   1.831   4.858   0.694  2.2323 -1.5356  0.5791
   38MOL   H12515739   1.627   5.017   0.665  1.6239  0.6622 -0.8737
   38MOL   H12615740   1.605   5.166   0.752 -1.7314 -0.7960  0.7168
   38MOL   H12715741   1.618   5.016   0.840 -0.3028 -0.3346 -0.5714
   38MOL   C12815742   2.092   5.147   0.497 -0.3510 -0.9664  0.7769
   38MOL   C12915743   2.170   5.019   0.465  0.1635  0.5690  0.2268
   38MOL   C13015744   2.078   4.896   0.492  0.5708  0.8135 -0.1845
   38MOL   C13115745   2.136   4.753   0.465 -0.6321 -0.0330  0.3585
   38MOL   C13215746   2.075   4.648   0.564  0.4111 -0.1352 -0.6485
   38MOL   C13315747   2.281   4.735   0.492 -0.0156 -0.2172  0.5253
   38MOL   C13415748   2.102   4.711   0.320  0.0267 -0.2634 -0.2736
   38MOL   H13515749   2.158   5.231   0.475 -0.4514 -0.4609  2.3237
   38MOL   H13615750   2.019   5.166   0.417  1.6609 -1.6798 -1.2776
   38MOL   H13715751   2.256   5.010   0.532 -0.0218 -1.4643  0.2065
   38MOL   H13815752   2.043   4.895   0.595  1.8397 -0.0510  0.2600
   38MOL   H13915753   1.988   4.903   0.432  0.6065  0.0696 -0.3296
   38MOL   H14015754   2.115   4.547   0.561  1.2950  0.2481 -1.9587
   38MOL   H14115755   1.968   4.654   0.544  0.0586  1.7460  1.5404
   38MOL   H14215756   2.087   4.673   0.670  1.8938  1.0054 -1.0675
   38MOL   H14315757   2.305   4.630   0.476  1.2509  0.0982  0.3362
   38MOL   H14415758   2.319   4.759   0.591 -2.3532 -0.4940  1.5146
   38MOL   H14515759   2.337   4.784   0.413 -3.2145 -0.4861 -2.0258
   38MOL   H14615760   2.136   4.607   0.312 -1.4354 -0.9592  2.1958
   38MOL   H14715761   1.998   4.722   0.290 -0.8124 -0.1906  2.5434
   38MOL   H14815762   2.159   4.759   0.240  0.3076  0.7733  0.5471
   38MOL   C14915763   2.212   5.022   0.312 -0.4671  0.6016 -0.0737
   38MOL   C15015764   2.299   5.143   0.271  0.4488 -0.7741  0.3007
   38MOL   C15115765   2.416   5.087   0.173  0.5763 -0.6016  0.1896
   38MOL   C15215766   2.556   5.065   0.238 -0.1865 -0.4815 -0.7386
   38MOL   C15315767   2.648   5.003   0.135  0.1159  0.5129 -0.1132
   38MOL   C15415768   2.549   4.974   0.364 -0.2198 -0.3251 -0.1958
   38MOL   C15515769   2.612   5.207   0.271 -0.0391 -0.3347  0.2030
   38MOL   H15615770   2.117   4.999   0.263 -0.0421 -1.1857 -0.0750
   38MOL   H15715771   2.269   4.930   0.297 -0.1555  0.6313  0.8969
   38MOL   H15815772   2.351   5.171   0.362  0.4094 -0.7899  0.3275
   38MOL   H15915773   2.421   5.153   0.086 -1.7130  1.3625  1.4824
   38MOL   H16015774   2.379   4.992   0.135  0.4504 -0.8748  0.9965
   38MOL   H16115775   2.613   4.912   0.088 -1.3466 -1.2702  4.2010
   38MOL   H16215776   2.668   5.074   0.054 -0.8811  0.9601  0.0197
   38MOL   H16315777   2.743   4.969   0.176 -0.6643 -3.0472 -1.1223
   38MOL   H16415778   2.651   4.966   0.400 -0.3152 -1.3426 -0.1542
   38MOL   H16515779   2.516   4.875   0.333 -1.2805  0.3490 -1.2680
   38MOL   H16615780   2.486   5.012   0.445  0.4101  0.8435 -0.2386
   38MOL   H16715781   2.708   5.199   0.322  1.1466  1.9683 -1.5593
   38MOL   H16815782   2.608   5.272   0.183 -0.3039 -1.7165 -0.8147
   38MOL   H16915783   2.554   5.259   0.347 -0.7562 -1.3140  0.3234
   38MOL   C17015784   2.210   5.259   0.203 -0.0016 -0.8174 -0.4864
   38MOL   C17115785   2.277   5.399   0.188  0.3697  0.4737  0.6789
   38MOL   C17215786   2.281   5.479   0.322 -0.2770 -0.2700 -0.9753
   38MOL   C17315787   2.398   5.586   0.356  0.4315  0.5015  0.0723
   38MOL   C17415788   2.407   5.699   0.254  0.0155 -0.0690 -0.0082
   38MOL   C17515789   2.528   5.521   0.373 -0.5420  0.3804  0.1264
   38MOL   C17615790   2.374   5.656   0.488 -0.1014 -0.3692 -0.0903
   38MOL   H17715791   2.120   5.269   0.263  0.4402 -0.9338  0.2016
   38MOL   H17815792   2.168   5.212   0.115 -1.7411  1.2548 -0.8200
   38MOL   H17915793   2.379   5.368   0.163 -0.9152 -2.9153 -0.6736
   38MOL   H18015794   2.189   5.535   0.338 -0.9622 -1.7259  0.2813
   38MOL   H18115795   2.279   5.408   0.404 -1.7309 -0.9271 -1.5629
   38MOL   H18215796   2.462   5.786   0.290  1.2726 -0.7004 -0.3448
   38MOL   H18315797   2.458   5.668   0.162 -2.2207 -2.3883 -0.5272
   38MOL   H18415798   2.308   5.735   0.229 -0.3856 -1.4099 -0.3868
   38MOL   H18515799   2.518   5.450   0.455 -0.6842  0.0613 -0.1658
   38MOL   H18615800   2.565   5.470   0.284 -2.8421 -1.0956 -0.0355
   38MOL   H18715801   2.608   5.592   0.391 -0.0018  0.1242 -1.1915
   38MOL   H18815802   2.284   5.715   0.505  0.1981 -0.3416  1.4867
   38MOL   H18915803   2.391   5.589   0.572  0.8919  1.4528  1.2120
   38MOL   H19015804   2.444   5.737   0.512  0.9894 -0.3920 -3.0381
   38MOL   C19115805   2.208   5.468   0.070  0.4003 -0.4475 -0.5663
   38MOL   C19215806   2.248   5.436   7.698 -0.1097  0.3483  0.4263
   38MOL   C19315807   2.370   5.523   7.650  0.5413 -0.6164  0.1466
   38MOL   C19415808   2.466   5.471   7.530  0.7107  0.6886  0.1447
   38MOL   C19515809   2.521   5.330   7.553 -0.3092 -0.5456  0.1614
   38MOL   C19615810   2.583   5.579   7.528  0.8865 -0.1357 -0.6893
   38MOL   C19715811   2.401   5.476   7.397 -0.7693 -0.4570  0.4972
   38MOL   H19815812   2.100   5.458   0.083  0.3268 -0.7366 -1.3311
   38MOL   H19915813   2.238   5.572   0.078  0.2164 -0.5556  1.6450
   38MOL   H20015814   2.281   5.332   7.705  0.9055  0.5502 -1.0735
   38MOL   H20115815   2.429   5.525   7.741  0.7474  0.3864 -0.0103
   38MOL   H20215816   2.334   5.625   7.635 -1.2775 -1.1633  0.6360
   38MOL   H20315817   2.447   5.254   7.573  0.7755 -1.9122 -0.9354
   38MOL   H20415818   2.583   5.296   7.470 -3.7468 -3.4209 -1.3167
   38MOL   H20515819   2.580   5.334   7.645 -1.1514  1.2371  0.6655
   38MOL   H20615820   2.666   5.548   7.465  0.3561 -0.8967 -1.0165
   38MOL   H20715821   2.552   5.682   7.507 -2.3254 -0.8206  0.4656
   38MOL   H20815822   2.631   5.587   7.625  1.6151  1.4381 -1.1664
   38MOL   H20915823   2.336   5.389   7.388 -2.3719  0.8075 -0.5663
   38MOL   H21015824   2.335   5.563   7.393  0.3623  0.4794  1.6832
   38MOL   H21115825   2.466   5.476   7.310  1.0120 -1.1005  1.8087
   38MOL   C21215826   2.126   5.451   7.602  0.7251 -0.6322  0.1337
   38MOL   C21315827   2.035   5.327   7.604  0.0203  0.5025  0.2175
   38MOL   C21415828   2.091   5.229   7.491  0.5308 -0.1104  0.0977
   38MOL   C21515829   2.090   5.078   7.516  0.3372  0.2207 -0.3784
   38MOL   C21615830   2.193   5.036   7.626  0.3968  0.1019 -0.3864
   38MOL   C21715831   1.956   5.027   7.552 -0.3173 -0.1074  0.5116
   38MOL   C21815832   2.137   5.012   7.390 -0.2016 -0.2303 -0.2449
   38MOL   H21915833   2.064   5.535   7.635  1.1689 -1.4834  3.2873
   38MOL   H22015834   2.152   5.473   7.498  1.4621 -0.3482  0.3791
   38MOL   H22115835   2.041   5.279   7.701  1.0668  0.2754  0.0444
   38MOL   H22215836   2.192   5.263   7.469 -0.3181  2.1544 -0.4393
   38MOL   H22315837   2.039   5.234   7.395 -0.1636 -3.6499  0.2018
   38MOL   H22415838   2.206   4.929   7.641  1.9120  0.7337  3.4029
   38MOL   H22515839   2.159   5.062   7.726 -2.7440 -1.6370 -0.9341
   38MOL   H22615840   2.284   5.095   7.624  0.1140  0.6712  1.7356
   38MOL   H22715841   1.921   5.038   7.655  1.8762 -0.7851  1.3433
   38MOL   H22815842   1.893   5.086   7.485  1.1619  1.8883  0.8347
   38MOL   H22915843   1.941   4.920   7.534 -1.3327  0.1833 -0.4532
   38MOL   H23015844   2.098   4.910   7.390 -4.0217  1.1595 -2.4602
   38MOL   H23115845   2.246   5.019   7.398 -0.4713  1.8435  2.3005
   38MOL   H23215846   2.111   5.055   7.293 -0.6604 -1.2594 -0.5887
   38MOL   C23315847   1.883   5.361   7.584 -0.5354  0.5293 -0.0578
   38MOL   C23415848   1.813   5.447   7.700 -0.5743 -0.6895  0.0189
   38MOL   C23515849   1.677   5.500   7.642  0.0659 -0.7297 -0.3239
   38MOL   C23615850   1.675   5.648   7.619 -0.4147 -0.3330 -0.0183
   38MOL   C23715851   1.778   5.697   7.518  0.8048 -0.0635 -0.3637
   38MOL   C23815852   1.538   5.683   7.555  0.1251 -0.9022 -0.7016
   38MOL   C23915853   1.690   5.723   7.751 -0.1149  0.5596  0.3030
   38MOL   H24015854   1.821   5.275   7.558  1.0246  0.1439 -2.7094
   38MOL   H24115855   1.888   5.413   7.488 -0.1759  0.2389 -0.1997
   38MOL   H24215856   1.884   5.528   7.714  0.0653 -1.1684 -0.3993
   38MOL   H24315857   1.660   5.463   7.541  0.6355  1.8763 -1.4036
   38MOL   H24415858   1.585   5.466   7.689 -1.0614  1.4458 -0.8821
   38MOL   H24515859   1.765   5.805   7.512  0.0975 -0.1061  0.3063
   38MOL   H24615860   1.770   5.653   7.419 -0.2351 -0.0424 -0.3030
   38MOL   H24715861   1.880   5.689   7.555 -0.0082  0.9229  2.2305
   38MOL   H24815862   1.451   5.636   7.601  1.1493 -0.3830  1.8757
   38MOL   H24915863   1.526   5.791   7.551  2.1881 -0.7218 -2.8602
   38MOL   H25015864   1.530   5.649   7.452 -0.2624 -0.2280 -0.8962
   38MOL   H25115865   1.729   5.823   7.733 -1.5843  1.6392  2.8220
   38MOL   H25215866   1.598   5.734   0.042  0.1563 -0.9899  1.0754
   38MOL   H25315867   1.761   5.669   0.048  2.4418  2.6555 -0.6780
   38MOL   C25415868   1.785   5.364   0.069 -0.5267 -0.2444 -0.4992
   38MOL   C25515869   1.760   5.425   0.203  0.1194 -0.1312 -0.0097
   38MOL   C25615870   1.878   5.520   0.253  0.6706 -0.1813 -0.5601
   38MOL   C25715871   1.848   5.648   0.346  0.2408 -0.0903  0.1490
   38MOL   C25815872   1.928   5.770   0.292 -0.1974 -0.0421  0.4704
   38MOL   C25915873   1.897   5.624   0.484 -0.1621  0.4960 -0.2337
   38MOL   C26015874   1.699   5.677   0.353  0.0185  0.3390 -0.4060
   38MOL   H26115875   1.865   5.291   0.081  0.9561  1.6455  1.3094
   38MOL   H26215876   1.702   5.300   0.038 -0.7999  0.1437 -0.5738
   38MOL   H26315877   1.667   5.481   0.192  0.6329  0.6790 -0.3072
   38MOL   H26415878   1.961   5.462   0.295 -0.6745 -2.3187 -0.7882
   38MOL   H26515879   1.931   5.564   0.168  0.9552  1.5375  0.4788
   38MOL   H26615880   1.886   5.797   0.195 -1.7034 -3.4735  0.0977
   38MOL   H26715881   2.027   5.730   0.271  0.9028  1.9857  1.5876
   38MOL   H26815882   1.935   5.867   0.342  0.4682  2.1664 -3.6969
   38MOL   H26915883   1.855   5.702   0.548 -1.6200  1.0414 -1.8255
   38MOL   H27015884   2.004   5.625   0.503 -0.2955  0.0054  0.5788
   38MOL   H27115885   1.855   5.533   0.527  1.1943 -1.0568 -2.1292
   38MOL   H27215886   1.654   5.681   0.254 -1.2335  1.4350  0.1940
   38MOL   H27315887   1.657   5.593   0.407  1.5081  1.4756  2.6442
   38MOL   H27415888   1.672   5.770   0.404 -1.7573 -0.6631  0.5104
   38MOL   C27515889   1.739   5.315   0.312 -0.2226 -0.2793 -0.4172
   38MOL   C27615890   1.604   5.240   0.306 -0.1768 -0.1545 -0.4390
   38MOL   C27715891   1.616   5.092   0.350  0.3496  0.3920  0.1821
   38MOL   C27815892   1.650   4.983   0.236  0.1184  0.2108  0.2114
   38MOL   C27915893   1.641   4.849   0.305  0.1459  0.1848 -0.1705
   38MOL   C28015894   1.546   4.983   0.114  0.4645  0.4040 -0.0680
   38MOL   C28115895   1.789   4.993   0.183 -0.1376  0.8329  0.0933
   38MOL   H28215896   1.821   5.242   0.308  0.5866  0.5271  0.9316
   38MOL   H28315897   1.756   5.369   0.405  1.2979  0.4679 -1.1103
   38MOL   H28415898   1.562   5.248   0.206 -0.9561  1.2628 -0.0172
   38MOL   H28515899   1.518   5.068   0.392 -0.3892 -0.4361 -1.9359
   38MOL   H28615900   1.693   5.078   0.426  0.6733 -1.5288 -0.4800
   38MOL   H28715901   1.660   4.763   0.241 -0.2743 -0.1419  0.1418
   38MOL   H28815902   1.716   4.844   0.384  1.6280  0.7290 -1.5232
   38MOL   H28915903   1.550   4.842   0.364  0.6795 -0.8076  0.5608
   38MOL   H29015904   1.444   4.989   0.150  0.1913  2.2935 -1.1157
   38MOL   H29115905   1.557   4.896   0.048  3.2319  0.4463  0.2632
   38MOL   H29215906   1.559   5.068   0.047  0.2997 -1.1612 -2.1584
   38MOL   H29315907   1.806   5.085   0.126  1.9817 -0.6129 -1.6946
   38MOL   H29415908   1.819   4.913   0.115  0.1348  0.2344  0.9164
   38MOL   H29515909   1.859   4.995   0.266  0.7652 -1.4917 -0.5717
   38MOL   C29615910   1.497   5.310   0.400 -0.4435  0.1531  0.4542
   38MOL   C29715911   1.347   5.275   0.363  0.4715 -0.2012  0.3054
   38MOL   C29815912   1.269   5.401   0.317 -0.7936 -0.3163 -0.1509
   38MOL   C29915913   1.266   5.440   0.169 -0.8250 -0.1722  0.0141
   38MOL   C30015914   1.402   5.500   0.130  0.1312  0.6481 -0.4782
   38MOL   C30115915   1.242   5.326   0.070 -0.5973  0.4463  0.1571
   38MOL   C30215916   1.156   5.544   0.139 -0.0056 -0.0004 -0.1382
   38MOL   H30315917   1.516   5.418   0.399  0.5885 -0.0245  0.4207
   38MOL   H30415918   1.511   5.293   0.506  0.3677  1.9308  0.6579
   38MOL   H30515919   1.343   5.207   0.277 -1.0625  1.9043 -1.3411
   38MOL   H30615920   1.290   5.497   0.363  0.0833 -0.1217 -0.9457
   38MOL   H30715921   1.162   5.384   0.335 -0.7147  1.4058  2.2584
   38MOL   H30815922   1.469   5.416   0.114  0.3885  1.2563 -2.7690
   38MOL   H30915923   1.400   5.548   0.032  0.5319 -1.8046 -1.7193
   38MOL   H31015924   1.442   5.571   0.203  0.8244  0.3123 -0.5321
   38MOL   H31115925   1.320   5.250   0.072 -1.7414 -0.8748 -3.0273
   38MOL   H31215926   1.143   5.279   0.076  0.1800 -1.1472  0.7851
   38MOL   H31315927   1.250   5.368   7.736  1.4326  0.4212  0.3037
   38MOL   H31415928   1.064   5.499   0.177 -0.8079  1.0541 -0.8339
   38MOL   H31515929   1.184   5.636   0.191 -0.4521 -0.5950  1.1823
   38MOL   H31615930   1.148   5.556   0.031 -0.6174 -1.0759 -0.2169
   38MOL   C31715931   1.279   5.205   0.481 -0.1881  1.1172 -0.3396
   38MOL   C31815932   1.158   5.112   0.454 -0.2745  1.1175  0.1329
   38MOL   C31915933   1.204   4.969   0.398 -0.6680  0.3168  1.0116
   38MOL   C32015934   1.113   4.885   0.299 -0.4022  0.3707  1.7376
   38MOL   C32115935   0.982   4.845   0.363  0.6355  0.2718 -0.3733
   38MOL   C32215936   1.195   4.755   0.269 -0.2338 -0.2095  0.3253
   38MOL   C32315937   1.079   4.960   0.165  0.0476 -0.1067  0.0203
   38MOL   H32415938   1.348   5.138   0.533 -1.1348 -1.8616 -2.7883
   38MOL   H32515939   1.248   5.283   0.550  2.0988 -0.1791  2.2732
   38MOL   H32615940   1.092   5.162   0.382 -0.6823  0.3154 -0.0618
   38MOL   H32715941   1.221   4.907   0.486  2.3581  0.6168  0.6631
   38MOL   H32815942   1.304   4.976   0.356 -0.4574 -0.0274  1.4433
   38MOL   H32915943   0.925   4.936   0.381 -0.8127 -0.9334  1.2878
   38MOL   H33015944   0.992   4.799   0.461 -1.1849  0.1501 -0.2381
   38MOL   H33115945   0.925   4.785   0.293 -1.3036 -0.1692  1.5463
   38MOL   H33215946   1.267   4.771   0.189  0.4726  2.3273  1.4304
   38MOL   H33315947   1.247   4.713   0.354 -1.3451 -1.1643  0.5535
   38MOL   H33415948   1.127   4.679   0.231 -0.5782  0.0023  0.5096
   38MOL   H33515949   1.167   5.008   0.122 -0.1130 -0.4901 -0.7481
   38MOL   H33615950   1.010   5.039   0.194 -0.1112 -0.3747  0.3729
   38MOL   H33715951   1.022   4.890   0.104  0.7668 -0.9983  0.3682
   38MOL   C33815952   1.067   5.109   0.579 -0.4369  0.0547  0.7783
   38MOL   C33915953   0.956   5.221   0.585 -0.3525 -0.2908 -0.2606
   38MOL   C34015954   0.900   5.224   0.735  0.2500  0.0582 -0.1426
   38MOL   C34115955   0.955   5.328   0.830 -0.3674 -0.1514 -0.2601
   38MOL   C34215956   0.907   5.307   0.969 -0.6062  0.1119  0.2558
   38MOL   C34315957   1.107   5.316   0.842 -0.2869  0.9296 -0.4518
   38MOL   C34415958   0.914   5.464   0.779  0.0860  0.4855 -0.1661
   38MOL   H34515959   1.128   5.107   0.669  1.0387  2.5753 -0.1149
   38MOL   H34615960   1.011   5.016   0.585 -1.7424  0.5114 -3.1149
   38MOL   H34715961   0.997   5.320   0.571 -1.0318 -0.1812 -1.4901
   38MOL   H34815962   0.916   5.122   0.768  0.0761  0.4449  1.1837
   38MOL   H34915963   0.791   5.234   0.735  0.4154  2.0231  0.6131
   38MOL   H35015964   0.800   5.289   0.978 -0.3526 -1.5119  0.1023
   38MOL   H35115965   0.945   5.212   1.006 -2.0504 -0.6277 -0.1007
   38MOL   H35215966   0.940   5.384   1.039  1.2692 -0.5750  0.1526
   38MOL   H35315967   1.142   5.214   0.852  0.2842  0.8036 -3.3068
   38MOL   H35415968   1.161   5.347   0.752  3.1544  0.9985  1.5692
   38MOL   H35515969   1.139   5.377   0.926 -1.3610 -0.5570  1.0548
   38MOL   H35615970   0.963   5.493   0.686  0.9936  1.4269  0.5866
   38MOL   H35715971   0.806   5.475   0.767  0.0969 -0.0410 -0.7926
   38MOL   H35815972   0.947   5.534   0.856  1.9618  0.5056 -0.9583
   38MOL   C35915973   0.840   5.209   0.476  0.1859  0.4085 -0.1004
   38MOL   C36015974   0.735   5.316   0.452 -0.2736 -0.2255 -0.1792
   38MOL   C36115975   0.613   5.260   0.362 -0.1121 -0.5386  0.2190
   38MOL   C36215976   0.477   5.243   0.443  0.2067  0.3461  0.4799
   38MOL   C36315977   0.504   5.162   0.569  0.5043  0.9959 -0.0568
   38MOL   C36415978   0.382   5.159   0.357  0.1020 -0.0165 -0.3374
   38MOL   C36515979   0.417   5.376   0.480  0.0561 -0.1175 -0.1086
   38MOL   H36615980   0.780   5.124   0.508 -2.1316  1.9808 -0.0868
   38MOL   H36715981   0.891   5.184   0.384  0.7779 -1.1744  0.6465
   38MOL   H36815982   0.704   5.339   0.554  0.8862  2.8113 -0.4656
   38MOL   H36915983   0.588   5.321   0.275 -0.4307 -0.5143  0.3267
   38MOL   H37015984   0.632   5.160   0.323 -2.4558 -0.5180 -1.0779
   38MOL   H37115985   0.414   5.164   0.630  0.3748  0.0233 -0.2093
   38MOL   H37215986   0.517   5.056   0.547 -2.0680  0.9480 -1.6013
   38MOL   H37315987   0.578   5.194   0.642  0.4919 -0.6831  0.7255
   38MOL   H37415988   0.344   5.208   0.267  0.5276  0.6477 -0.1648
   38MOL   H37515989   0.289   5.122   0.399  0.8379  0.0803  1.3975
   38MOL   H37615990   0.436   5.076   0.311 -0.6877 -0.6653 -0.0882
   38MOL   H37715991   0.429   5.439   0.392 -0.1511  0.2291  0.1096
   38MOL   H37815992   0.469   5.427   0.562 -0.8007  0.4597  0.0883
   38MOL   H37915993   0.310   5.377   0.505 -0.3847  0.4418 -1.9488
   38MOL   C38015994   0.801   5.445   0.384  0.5644  0.4622  0.1931
   38MOL   C38115995   0.716   5.575   0.371 -0.1373 -0.5814 -0.0137
   38MOL   C38215996   0.773   5.666   0.259  0.0173  0.3431 -1.0038
   38MOL   C38315997   0.709   5.659   0.118 -0.1928 -0.4397  0.5210
   38MOL   C38415998   0.773   5.774   0.029  0.3001  0.4404  0.2829
   38MOL   C38515999   0.563   5.677   0.124 -0.7444  0.7063 -0.4043
   38MOL   C38616000   0.728   5.518   0.053 -0.9056  0.0625 -0.1899
   38MOL   H38716001   0.828   5.407   0.285 -0.4424  0.8315 -0.2388
   38MOL   H38816002   0.900   5.468   0.423  0.6340  0.4882  0.0014
   38MOL   H38916003   0.614   5.540   0.354 -0.8030  1.5998 -0.6637
   38MOL   H39016004   0.763   5.768   0.296 -2.1123  0.9023 -2.9737
   38MOL   H39116005   0.881   5.653   0.258 -0.3131 -2.8087 -0.8735
   38MOL   H39216006   0.730   5.778   7.695 -0.0305  1.0047  0.4496
   38MOL   H39316007   0.758   5.869   0.079 -1.7840 -0.4074  1.3315
   38MOL   H39416008   0.878   5.745   0.019  0.1812  1.0322 -3.1439
   38MOL   H39516009   0.514   5.596   0.179  2.0083 -1.1701 -0.5922
   38MOL   H39616010   0.523   5.672   0.023  1.9482 -0.7880 -1.4660
   38MOL   H39716011   0.526   5.767   0.173 -1.0702 -0.0463  0.7463
   38MOL   H39816012   0.836   5.503   0.049 -0.7791  0.9852 -0.4056
   38MOL   H39916013   0.694   5.512   7.715  1.0655 -0.8349 -0.8166
   38MOL   H40016014   0.685   5.438   0.113 -1.1365  2.3561  2.8233
   38MOL   C40116015   0.710   5.643   0.506 -0.0624 -0.8732  0.1286
   38MOL   C40216016   0.595   5.746   0.508  0.0908 -0.7738  0.1168
   38MOL   C40316017   0.599   5.820   0.640  0.2559  0.1233  0.2218
   38MOL   C40416018   0.504   5.939   0.658  0.5383 -0.0000  0.7688
   38MOL   C40516019   0.352   5.890   0.681 -0.6087  0.0397 -0.8110
   38MOL   C40616020   0.507   6.035   0.537  0.2000  0.0555  0.3315
   38MOL   C40716021   0.553   6.028   0.774  0.1782  0.6452  0.0770
   38MOL   H40816022   0.692   5.578   0.592 -2.7041 -0.8774 -0.4083
   38MOL   H40916023   0.806   5.690   0.529 -0.9020  0.5714  0.7298
   38MOL   H41016024   0.610   5.817   0.426 -0.7978  0.4686  1.0081
   38MOL   H41116025   0.698   5.846   0.676  0.4131 -1.0609  0.6965
   38MOL   H41216026   0.553   5.753   0.713 -0.6162 -1.5153 -1.7543
   38MOL   H41316027   0.295   5.822   0.617 -1.6151  0.3762 -0.2865
   38MOL   H41416028   0.293   5.980   0.697 -1.7488 -1.2018  2.2514
   38MOL   H41516029   0.354   5.834   0.774 -2.0867  0.4396 -0.5197
   38MOL   H41616030   0.609   6.035   0.499 -0.2238  0.9808 -0.8576
   38MOL   H41716031   0.462   6.131   0.560 -0.5138 -0.0546 -0.5586
   38MOL   H41816032   0.453   5.991   0.452 -1.6756 -1.9523  2.4824
   38MOL   H41916033   0.650   6.077   0.773  1.6446 -2.1303 -1.3293
   38MOL   H42016034   0.477   6.098   0.810 -1.3830 -0.9110 -0.1057
   38MOL   H42116035   0.568   5.956   0.854 -1.6324  1.0907  0.8329
   38MOL   H42216036   0.501   5.696   0.485  0.1235 -0.6460 -0.3121
   39MOL     C116037   2.284   6.394   2.718  0.3246  0.6589 -0.0822
   39MOL     C216038   2.391   6.337   2.815 -0.2385 -0.1527  0.6331
   39MOL     C316039   2.340   6.205   2.878  0.2526  0.7065 -0.3707
   39MOL     C416040   2.430   6.084   2.867  0.0876  0.3764 -0.1459
   39MOL     C516041   2.575   6.106   2.924 -0.0782  0.0586  0.4994
   39MOL     C616042   2.368   5.965   2.939 -0.5771  0.0887 -0.2264
   39MOL     C716043   2.432   6.040   2.716  0.1667 -0.2936  0.0547
   39MOL     H816044   2.199   6.415   2.782 -0.0598  2.1704 -1.0707
   39MOL     H916045   2.333   6.484   2.681  0.4256 -0.1322 -1.9185
   39MOL    H1016046   2.477   6.318   2.751 -1.2986  2.3958 -1.5917
   39MOL    H1116047   2.240   6.177   2.846 -0.9338  3.3423  0.8389
   39MOL    H1216048   2.323   6.221   2.984 -4.5845 -1.1524 -0.7392
   39MOL    H1316049   2.628   6.011   2.915  0.1204  0.4811 -3.5026
   39MOL    H1416050   2.562   6.126   3.030 -2.6590  0.4259  0.1444
   39MOL    H1516051   2.640   6.180   2.878  0.3246 -0.6680 -0.1023
   39MOL    H1616052   2.386   5.863   2.906  0.5526  1.0058 -2.5204
   39MOL    H1716053   2.380   5.968   3.048  1.5953  1.5826 -0.4855
   39MOL    H1816054   2.260   5.983   2.940 -0.4377  0.9669 -0.5290
   39MOL    H1916055   2.335   5.996   2.696 -0.1765  0.7076 -0.5570
   39MOL    H2016056   2.500   5.957   2.697  0.2268 -0.6485  1.7264
   39MOL    H2116057   2.455   6.120   2.645  1.6251 -1.1306 -0.4437
   39MOL    H2216058   2.261   6.320   2.641 -1.9950  0.7860  0.4636
   39MOL    C2316059   2.448   6.434   2.919  0.6176  0.5132  0.4687
   39MOL    C2416060   2.533   6.545   2.859  0.1233  0.4211 -0.0138
   39MOL    C2516061   2.683   6.499   2.838  0.9106 -0.0044  0.6151
   39MOL    C2616062   2.747   6.532   2.700 -0.3055  0.1927 -0.3476
   39MOL    C2716063   2.897   6.484   2.699  0.4495 -0.2054  0.4254
   39MOL    C2816064   2.671   6.458   2.593  0.6511  0.3900  0.0488
   39MOL    C2916065   2.748   6.683   2.667 -0.5934  0.5800  0.5526
   39MOL    H3016066   2.357   6.475   2.963  0.5523  0.0960  0.7228
   39MOL    H3116067   2.505   6.377   2.992  1.5519  1.9855  0.9186
   39MOL    H3216068   2.499   6.581   2.762  2.4905  2.4898 -0.1465
   39MOL    H3316069   2.692   6.391   2.851 -0.3898 -0.3024 -0.7703
   39MOL    H3416070   2.743   6.534   2.922  0.4101  1.5233  0.3545
   39MOL    H3516071   2.906   6.376   2.712  1.8310 -0.0978  0.4546
   39MOL    H3616072   2.953   6.512   2.610 -2.0076 -0.9757 -1.4183
   39MOL    H3716073   2.954   6.527   2.781  2.2337 -0.2104 -0.7643
   39MOL    H3816074   2.566   6.485   2.585  0.6521  0.8221  1.4082
   39MOL    H3916075   2.708   6.495   2.497  1.9619  0.5277  0.5980
   39MOL    H4016076   2.693   6.351   2.594  1.1717  0.4891  3.0191
   39MOL    H4116077   2.808   6.707   2.579 -1.8107 -0.4135 -0.5560
   39MOL    H4216078   2.799   6.742   2.743 -1.1617  1.2361  0.4359
   39MOL    H4316079   2.650   6.726   2.643 -0.7782 -1.5434 -2.7346
   39MOL    C4416080   2.550   6.677   2.946  0.1553 -0.9940 -0.3384
   39MOL    C4516081   2.424   6.773   2.960  0.4072 -0.2686 -0.0226
   39MOL    C4616082   2.476   6.908   2.999 -0.2632 -0.0643  0.1185
   39MOL    C4716083   2.487   7.017   2.888  0.0291 -0.8957 -0.5351
   39MOL    C4816084   2.578   6.977   2.777  0.6953  0.3611 -0.4373
   39MOL    C4916085   2.530   7.149   2.957 -0.2842 -0.4721 -0.3889
   39MOL    C5016086   2.347   7.043   2.828  0.5719  0.0907 -0.2945
   39MOL    H5116087   2.592   6.643   3.040  0.7860  1.0261  0.1450
   39MOL    H5216088   2.632   6.737   2.907  0.1234 -1.9085 -1.8559
   39MOL    H5316089   2.370   6.778   2.865  1.0731  0.9974 -0.3466
   39MOL    H5416090   2.565   6.894   3.059 -0.1738 -0.2191 -0.0496
   39MOL    H5516091   2.412   6.950   3.077 -0.1136  1.9335 -0.7952
   39MOL    H5616092   2.681   6.961   2.810 -0.2033 -0.4083  2.0738
   39MOL    H5716093   2.584   7.053   2.699 -0.0784 -0.0669 -0.9279
   39MOL    H5816094   2.544   6.884   2.731  2.4430 -1.1081  1.1596
   39MOL    H5916095   2.621   7.127   3.014  0.4207 -1.3820 -1.8326
   39MOL    H6016096   2.572   7.227   2.893  1.1398 -1.7079 -0.9786
   39MOL    H6116097   2.455   7.192   3.023 -0.1634  1.1167 -1.2558
   39MOL    H6216098   2.306   6.956   2.777  1.7233 -0.5744 -0.0902
   39MOL    H6316099   2.267   7.077   2.894  1.8491 -1.4343  2.0714
   39MOL    H6416100   2.364   7.115   2.748 -1.5833  0.1529 -0.7443
   39MOL    C6516101   2.320   6.730   3.074  0.0380  0.0990  0.3965
   39MOL    C6616102   2.172   6.780   3.053  0.2322  0.2001  0.3362
   39MOL    C6716103   2.090   6.782   3.185  0.1029  0.0197  0.0412
   39MOL    C6816104   2.085   6.900   3.280  0.4595  0.1726  0.2069
   39MOL    C6916105   1.984   6.860   3.387  0.4247 -0.6789  0.1863
   39MOL    C7016106   2.224   6.939   3.334  0.4804  0.8583  0.3705
   39MOL    C7116107   2.027   7.023   3.207 -0.0661  0.7197 -0.1759
   39MOL    H7216108   2.325   6.623   3.093 -0.9076  0.0277  0.2580
   39MOL    H7316109   2.361   6.749   3.173  1.7565 -1.0035 -0.0707
   39MOL    H7416110   2.184   6.881   3.013  0.6799  0.0713  0.1378
   39MOL    H7516111   2.125   6.694   3.239  2.2801  0.2829 -0.8858
   39MOL    H7616112   1.986   6.759   3.163  0.2147 -0.0486 -0.4294
   39MOL    H7716113   1.884   6.849   3.343  0.9809 -2.8960 -0.5894
   39MOL    H7816114   2.007   6.769   3.443 -3.5633 -1.3275  0.9701
   39MOL    H7916115   1.972   6.943   3.455 -2.4532 -1.7576  1.0939
   39MOL    H8016116   2.279   6.995   3.259  1.3154  2.5402  2.1737
   39MOL    H8116117   2.268   6.842   3.359 -0.8505  0.6014  1.8238
   39MOL    H8216118   2.215   6.990   3.430 -1.1471 -1.1196  1.3110
   39MOL    H8316119   2.088   7.064   3.127  1.8296  0.2693  0.9942
   39MOL    H8416120   2.005   7.116   3.259  2.2500  1.0592  0.2526
   39MOL    H8516121   1.940   6.991   3.150  1.0685 -0.3680 -1.3503
   39MOL    C8616122   2.112   6.683   2.951  0.5397 -0.2483 -0.0946
   39MOL    C8716123   1.987   6.737   2.874 -0.5136 -0.1385 -0.4344
   39MOL    C8816124   1.944   6.619   2.787  0.0735  0.5215 -0.5110
   39MOL    C8916125   1.850   6.517   2.842  0.9058 -0.0973 -0.0451
   39MOL    C9016126   1.822   6.401   2.740 -0.2747 -0.1733 -0.0075
   39MOL    C9116127   1.707   6.579   2.876 -0.3114  0.6462 -0.0827
   39MOL    C9216128   1.892   6.448   2.973 -0.3086 -0.0120  0.3937
   39MOL    H9316129   2.103   6.580   2.986 -0.6307 -0.8690 -2.1411
   39MOL    H9416130   2.185   6.669   2.871  1.1291 -0.6244  0.5012
   39MOL    H9516131   1.914   6.767   2.949  0.3518  0.3040  0.2272
   39MOL    H9616132   2.036   6.565   2.764 -0.5575 -0.1878 -1.3981
   39MOL    H9716133   1.912   6.661   2.692  0.4192  1.6665 -0.1355
   39MOL    H9816134   1.759   6.319   2.772 -3.1640  1.5990 -0.9868
   39MOL    H9916135   1.910   6.360   2.691 -0.6187  1.2448 -1.8933
   39MOL   H10016136   1.762   6.446   2.660 -1.3056 -1.6500 -0.0711
   39MOL   H10116137   1.663   6.636   2.794  2.2085  2.1587 -0.4163
   39MOL   H10216138   1.630   6.504   2.892  0.4663 -0.2919 -0.6972
   39MOL   H10316139   1.718   6.645   2.962 -0.4967  0.1738  0.3058
   39MOL   H10416140   1.987   6.396   2.960 -0.6052 -0.9973  2.0918
   39MOL   H10516141   1.903   6.521   3.054  0.5517 -0.2683  0.5205
   39MOL   H10616142   1.815   6.383   3.014  0.1176  0.0556  1.3282
   39MOL   C10716143   2.002   6.869   2.793  0.0393 -0.3443  0.0628
   39MOL   C10816144   1.868   6.918   2.739  0.6687 -0.6154 -0.5930
   39MOL   C10916145   1.818   7.028   2.840 -0.4703 -0.2362  0.2358
   39MOL   C11016146   1.669   7.068   2.848 -0.4510 -0.2490 -0.6498
   39MOL   C11116147   1.611   7.135   2.727 -0.3893 -0.5078 -0.1028
   39MOL   C11216148   1.666   7.176   2.958  0.2891 -0.6412  0.3570
   39MOL   C11316149   1.584   6.946   2.887 -0.1450  0.1676  0.0736
   39MOL   H11416150   2.079   6.861   2.717 -0.1340  1.4729 -0.3200
   39MOL   H11516151   2.044   6.937   2.866  1.3185 -0.9301 -0.1171
   39MOL   H11616152   1.796   6.837   2.743  2.1494 -1.8607  2.0724
   39MOL   H11716153   1.837   6.982   2.938  1.9193  1.1200  0.4359
   39MOL   H11816154   1.880   7.117   2.838  1.2068 -1.4027 -2.2507
   39MOL   H11916155   1.615   7.062   2.646  1.4972 -0.3311 -0.1883
   39MOL   H12016156   1.505   7.157   2.737 -0.2844  1.3126 -2.4334
   39MOL   H12116157   1.663   7.226   2.694 -1.9180  1.8170  3.6441
   39MOL   H12216158   1.682   7.143   3.060 -2.4739  2.0930  1.7584
   39MOL   H12316159   1.563   7.212   2.951  0.2215 -0.9510 -0.3139
   39MOL   H12416160   1.736   7.257   2.937  0.5826 -0.9665  0.0900
   39MOL   H12516161   1.622   6.907   2.981 -0.5762 -0.6820 -0.0977
   39MOL   H12616162   1.589   6.869   2.810  1.0809 -0.3937  0.7050
   39MOL   H12716163   1.480   6.966   2.911 -0.0955 -2.1987  2.4105
   39MOL   C12816164   1.895   6.981   2.600 -0.1238 -0.2211 -0.5690
   39MOL   C12916165   1.886   6.872   2.489 -1.0283  0.8885  0.3175
   39MOL   C13016166   1.741   6.841   2.468 -0.4591 -0.2780 -0.6988
   39MOL   C13116167   1.688   6.716   2.386  0.6371 -0.5310  0.4468
   39MOL   C13216168   1.648   6.753   2.251  0.4103 -0.5393  0.6656
   39MOL   C13316169   1.566   6.663   2.458  0.1954  0.1084  0.4947
   39MOL   C13416170   1.781   6.596   2.376  0.5728  0.0472  0.5405
   39MOL   H13516171   1.995   7.024   2.603 -0.2260  0.0048 -0.4515
   39MOL   H13616172   1.824   7.061   2.579 -0.3218 -0.0306  0.7578
   39MOL   H13716173   1.945   6.782   2.510  0.3324  1.3652 -1.3699
   39MOL   H13816174   1.694   6.840   2.566  0.2224  0.7657 -0.3531
   39MOL   H13916175   1.683   6.924   2.429 -0.5397  0.4857  0.9937
   39MOL   H14016176   1.598   6.675   2.194  1.3382  0.0221 -0.9671
   39MOL   H14116177   1.729   6.783   2.185  0.0433  0.4788  0.6640
   39MOL   H14216178   1.575   6.834   2.240  0.4793 -0.6367 -0.5547
   39MOL   H14316179   1.494   6.744   2.450  1.2508  0.9080 -1.5583
   39MOL   H14416180   1.592   6.649   2.563  2.2921  0.9554  0.1152
   39MOL   H14516181   1.527   6.572   2.413 -0.4131 -0.2826  1.7955
   39MOL   H14616182   1.858   6.632   2.307  0.6832 -1.4882 -0.1524
   39MOL   H14716183   1.833   6.576   2.469 -0.2045 -0.3951  0.8842
   39MOL   H14816184   1.742   6.503   2.335  1.9428  0.0364 -0.7822
   39MOL   C14916185   1.944   6.940   2.359  0.2796  0.6186  0.0666
   39MOL   C15016186   2.098   6.950   2.359 -0.3537  0.2316  0.5001
   39MOL   C15116187   2.161   6.813   2.317 -0.0571 -0.2762 -0.6612
   39MOL   C15216188   2.287   6.774   2.387  0.0657  0.0255  1.1519
   39MOL   C15316189   2.274   6.741   2.535 -0.3808 -0.3476  0.2167
   39MOL   C15416190   2.395   6.889   2.369  0.1723  0.7536  0.1033
   39MOL   C15516191   2.346   6.650   2.318  0.1553  0.7284 -0.5386
   39MOL   H15616192   1.904   7.040   2.343 -1.9268 -0.1538  0.6330
   39MOL   H15716193   1.904   6.883   2.276 -1.6790  2.1971 -0.1067
   39MOL   H15816194   2.143   6.970   2.456 -1.6716 -0.9837  1.3823
   39MOL   H15916195   2.154   6.827   2.209 -3.7914 -0.3709 -0.5074
   39MOL   H16016196   2.087   6.735   2.337 -0.9735  1.3385  2.6688
   39MOL   H16116197   2.368   6.729   2.589 -2.1264 -1.8931  3.0120
   39MOL   H16216198   2.217   6.816   2.590 -0.5327  0.9990 -1.7283
   39MOL   H16316199   2.224   6.645   2.543  1.3203 -1.2232  0.4979
   39MOL   H16416200   2.490   6.874   2.421  0.2832 -1.0579 -0.5710
   39MOL   H16516201   2.366   6.990   2.395 -0.2011  0.9479 -1.0588
   39MOL   H16616202   2.426   6.905   2.265  0.4900 -1.8230 -0.2335
   39MOL   H16716203   2.313   6.552   2.353 -1.0200  2.0492  2.2728
   39MOL   H16816204   2.334   6.649   2.210  1.2676  1.1977 -0.6675
   39MOL   H16916205   2.453   6.653   2.335 -0.0832 -0.3415  1.2611
   39MOL   C17016206   2.144   7.063   2.263  0.1595  0.1771  0.1731
   39MOL   C17116207   2.165   7.213   2.312 -0.4002  0.3544 -0.1550
   39MOL   C17216208   2.047   7.282   2.383  0.2094  0.2085 -0.4301
   39MOL   C17316209   2.076   7.387   2.493  0.3862  0.2863 -0.7218
   39MOL   C17416210   2.157   7.513   2.447  0.0992 -0.5386  0.2123
   39MOL   C17516211   2.148   7.330   2.617  0.6379 -0.0844  0.0658
   39MOL   C17616212   1.937   7.437   2.539 -0.0295 -0.5894  0.4112
   39MOL   H17716213   2.078   7.076   2.177  0.9070 -0.0879 -0.4425
   39MOL   H17816214   2.240   7.042   2.217 -0.7899  2.7687 -3.2379
   39MOL   H17916215   2.245   7.197   2.386 -0.9619 -1.2190  0.1404
   39MOL   H18016216   1.980   7.320   2.306 -1.4517  0.1645  0.9664
   39MOL   H18116217   1.988   7.210   2.440  0.1819 -1.7847 -2.8792
   39MOL   H18216218   2.110   7.575   2.370  3.3989  0.5302 -1.0702
   39MOL   H18316219   2.164   7.581   2.532 -1.6893  1.7588 -1.4130
   39MOL   H18416220   2.264   7.496   2.432  0.0795  0.4687 -1.2099
   39MOL   H18516221   2.244   7.288   2.587  0.2276 -0.8588 -0.1606
   39MOL   H18616222   2.164   7.397   2.702  0.9050  0.2413 -0.2364
   39MOL   H18716223   2.088   7.249   2.657  1.1583 -0.7493 -0.4814
   39MOL   H18816224   1.897   7.496   2.457  0.3685  0.4964  0.9869
   39MOL   H18916225   1.864   7.370   2.583 -2.1906  0.7273 -1.0739
   39MOL   H19016226   1.939   7.522   2.607 -3.6285  1.3495 -1.7481
   39MOL   C19116227   2.209   7.304   2.196 -0.4621  0.5649 -0.6969
   39MOL   C19216228   2.354   7.284   2.142  0.1194  0.3672  0.4094
   39MOL   C19316229   2.464   7.335   2.236  0.3158  0.1702 -0.5989
   39MOL   C19416230   2.610   7.283   2.242 -0.2035 -0.5813  0.3362
   39MOL   C19516231   2.683   7.369   2.356  0.1787  0.0049 -0.0984
   39MOL   C19616232   2.674   7.297   2.101 -0.0388  0.0646  0.0482
   39MOL   C19716233   2.625   7.137   2.282 -0.1611  0.3270 -0.7690
   39MOL   H19816234   2.127   7.306   2.124 -0.7914  1.0242 -0.3104
   39MOL   H19916235   2.218   7.404   2.236 -1.0299  1.5826 -3.0189
   39MOL   H20016236   2.378   7.179   2.124  1.5214  0.0949  3.5526
   39MOL   H20116237   2.426   7.305   2.334 -0.0446  0.3262 -0.6912
   39MOL   H20216238   2.466   7.444   2.247  2.5570  0.1548 -0.6089
   39MOL   H20316239   2.621   7.369   2.445  0.4729  0.4164  0.1115
   39MOL   H20416240   2.781   7.329   2.383 -0.8101 -0.8793  2.3306
   39MOL   H20516241   2.705   7.473   2.331  1.7601  0.5175  3.1142
   39MOL   H20616242   2.776   7.259   2.106 -0.0879 -0.0258  0.3500
   39MOL   H20716243   2.619   7.235   2.030 -0.9943  1.4177 -0.4357
   39MOL   H20816244   2.671   7.402   2.070  1.4182 -0.3303 -1.4615
   39MOL   H20916245   2.721   7.090   2.266 -0.7934 -0.7930 -1.3425
   39MOL   H21016246   2.606   7.136   2.390 -0.3312  1.6825 -0.7811
   39MOL   H21116247   2.550   7.074   2.234 -0.3706  0.8703 -1.1541
   39MOL   C21216248   2.369   7.342   2.002 -0.2746  0.3701 -0.1924
   39MOL   C21316249   2.348   7.237   1.884  0.3438 -0.7442 -0.5406
   39MOL   C21416250   2.353   7.315   1.754 -0.3317  0.2197 -0.4792
   39MOL   C21516251   2.478   7.401   1.713 -0.1541  0.2850  0.5283
   39MOL   C21616252   2.463   7.415   1.557 -0.1156 -0.8557  0.1220
   39MOL   C21716253   2.493   7.540   1.776 -0.1169  0.5439  0.7408
   39MOL   C21816254   2.610   7.324   1.737 -0.6623  0.4825 -0.2316
   39MOL   H21916255   2.304   7.430   1.999  0.6840  1.0759 -0.6187
   39MOL   H22016256   2.465   7.389   1.984  0.7198 -0.5930  2.3761
   39MOL   H22116257   2.433   7.169   1.890  1.2865  0.3518 -1.2955
   39MOL   H22216258   2.265   7.377   1.736  0.5307  1.3217 -0.9717
   39MOL   H22316259   2.333   7.241   1.677 -0.8674 -1.7815  1.5539
   39MOL   H22416260   2.366   7.458   1.531  1.6122  2.5989 -0.9022
   39MOL   H22516261   2.474   7.317   1.511  1.4564 -0.5339 -0.2037
   39MOL   H22616262   2.535   7.477   1.503 -0.1169 -0.5540  0.4648
   39MOL   H22716263   2.533   7.553   1.877 -0.2046 -0.3101  0.8875
   39MOL   H22816264   2.560   7.602   1.717 -0.3179  0.4093  0.3683
   39MOL   H22916265   2.401   7.600   1.775  0.2166  1.0533 -0.2587
   39MOL   H23016266   2.685   7.402   1.749  2.0332 -2.0830  0.1274
   39MOL   H23116267   2.635   7.251   1.660  0.5942  0.6964 -0.0346
   39MOL   H23216268   2.607   7.283   1.838 -0.9511 -2.2579 -1.3010
   39MOL   C23316269   2.210   7.158   1.892 -0.2347  0.1004  0.0843
   39MOL   C23416270   2.193   7.031   1.801  0.2211 -0.7317  0.4338
   39MOL   C23516271   2.283   6.917   1.851  0.3950  0.3830 -0.4119
   39MOL   C23616272   2.352   6.832   1.741  0.2152 -0.1166  0.3036
   39MOL   C23716273   2.462   6.898   1.660  0.0996  0.3578 -0.2482
   39MOL   C23816274   2.412   6.707   1.817  0.1527 -0.4625  0.9920
   39MOL   C23916275   2.248   6.777   1.642  0.1174 -0.3370  0.0912
   39MOL   H24016276   2.135   7.231   1.861 -0.9293 -0.9956 -0.8474
   39MOL   H24116277   2.174   7.145   1.994  1.3007  0.9419  0.7549
   39MOL   H24216278   2.214   7.051   1.696  1.5596 -0.3987  0.7621
   39MOL   H24316279   2.364   6.955   1.912  0.8298 -0.3506 -0.5249
   39MOL   H24416280   2.225   6.856   1.921  1.1475  0.6742  0.4703
   39MOL   H24516281   2.429   6.993   1.617 -0.4703  0.1674 -0.2392
   39MOL   H24616282   2.513   6.837   1.586  2.3776 -0.4194  1.9109
   39MOL   H24716283   2.543   6.921   1.730 -0.1948  2.1073 -0.4589
   39MOL   H24816284   2.439   6.631   1.744 -2.1387  0.0459 -0.4286
   39MOL   H24916285   2.497   6.741   1.876 -0.7305  1.8866  0.9484
   39MOL   H25016286   2.345   6.653   1.885  1.5339 -1.4278  1.6102
   39MOL   H25116287   2.186   6.853   1.594  1.0497  0.7884  0.6284
   39MOL   H25216288   2.292   6.708   1.571 -0.2048 -0.5669  0.1141
   39MOL   H25316289   2.176   6.714   1.694  1.0086 -1.1418  0.3662
   39MOL   C25416290   2.047   6.984   1.813  0.0106  0.1790 -0.2558
   39MOL   C25516291   1.935   7.070   1.749 -1.0771  0.0836  0.4924
   39MOL   C25616292   1.801   7.002   1.787  0.0947  0.1574 -0.1208
   39MOL   C25716293   1.723   7.048   1.917 -0.0251  0.0570  0.0853
   39MOL   C25816294   1.609   6.944   1.948 -0.3001  0.5794 -0.3510
   39MOL   C25916295   1.674   7.189   1.883  0.1244 -0.3219  0.7798
   39MOL   C26016296   1.809   7.062   2.049  0.3230  0.0781  0.0535
   39MOL   H26116297   2.035   6.966   1.920 -3.1654  0.4221 -0.5403
   39MOL   H26216298   2.045   6.882   1.774 -0.6916 -0.4590  1.4257
   39MOL   H26316299   1.939   7.174   1.781  2.9128  0.4834 -0.9656
   39MOL   H26416300   1.726   6.991   1.709  0.1719 -0.2114 -0.1454
   39MOL   H26516301   1.829   6.897   1.799  0.3231  0.4106  1.8403
   39MOL   H26616302   1.541   6.979   2.026  0.0053  0.4494 -0.0237
   39MOL   H26716303   1.660   6.850   1.967 -1.4991 -0.0369 -0.1895
   39MOL   H26816304   1.544   6.917   1.865 -1.6796  0.1325  0.8621
   39MOL   H26916305   1.606   7.180   1.798  1.3565 -2.3437 -0.0387
   39MOL   H27016306   1.748   7.258   1.842  1.1545 -1.5604  0.5174
   39MOL   H27116307   1.616   7.233   1.964 -0.6047 -0.5723  0.3892
   39MOL   H27216308   1.750   7.103   2.131 -0.1623  2.1597 -1.3061
   39MOL   H27316309   1.847   6.964   2.077  1.9065  0.8344  0.6084
   39MOL   H27416310   1.896   7.127   2.036  0.4976 -0.5085 -1.8220
   39MOL   C27516311   1.946   7.072   1.591 -0.0030  0.0600 -0.4780
   39MOL   C27616312   1.934   7.197   1.510 -0.0003 -0.5685 -0.1480
   39MOL   C27716313   1.975   7.183   1.362 -0.4476  0.4060 -0.1721
   39MOL   C27816314   2.126   7.211   1.319 -0.3997 -0.0183  0.5209
   39MOL   C27916315   2.144   7.212   1.170 -0.1930  0.5243  0.1444
   39MOL   C28016316   2.183   7.339   1.370 -0.1172  0.2663 -0.0260
   39MOL   C28116317   2.210   7.098   1.374  0.4418  0.0530 -0.2432
   39MOL   H28216318   2.049   7.039   1.578  0.9706  3.1093 -0.8641
   39MOL   H28316319   1.887   6.991   1.549 -0.5473  0.1192  0.1578
   39MOL   H28416320   1.998   7.269   1.560 -1.1268 -0.3448  0.9779
   39MOL   H28516321   1.921   7.254   1.299 -0.9449  1.6991  1.6644
   39MOL   H28616322   1.953   7.081   1.331 -1.1695  0.6868 -0.6020
   39MOL   H28716323   2.120   7.308   1.125 -0.0239 -0.2194 -1.5600
   39MOL   H28816324   2.243   7.180   1.137 -0.9782 -1.5623 -0.2091
   39MOL   H28916325   2.071   7.143   1.130  1.6334 -1.7034  0.5809
   39MOL   H29016326   2.171   7.353   1.477 -0.0501 -1.2851  0.1915
   39MOL   H29116327   2.120   7.417   1.327  0.9159  0.5450 -1.0507
   39MOL   H29216328   2.285   7.356   1.337  0.7293 -2.5647  1.0217
   39MOL   H29316329   2.225   7.106   1.482  0.4853  0.4591 -0.2795
   39MOL   H29416330   2.308   7.097   1.325  0.0740  4.1499 -1.2184
   39MOL   H29516331   2.173   6.996   1.360  0.5588  0.1839 -1.6064
   39MOL   C29616332   1.784   7.241   1.527  0.0082  0.6002  0.1386
   39MOL   C29716333   1.742   7.380   1.484 -0.2263 -0.4939 -0.2721
   39MOL   C29816334   1.822   7.500   1.538 -0.3726  0.4705 -0.3225
   39MOL   C29916335   1.789   7.645   1.499 -0.7245 -0.2962  0.2741
   39MOL   C30016336   1.664   7.715   1.554  0.0839 -0.4965  0.6368
   39MOL   C30116337   1.915   7.726   1.544  0.3897  0.3238 -0.2344
   39MOL   C30216338   1.778   7.655   1.350  0.2337  0.3513  0.2478
   39MOL   H30316339   1.763   7.219   1.632  1.2271  0.1616  0.2966
   39MOL   H30416340   1.730   7.167   1.469 -1.8429  0.4873  1.9439
   39MOL   H30516341   1.746   7.405   1.378  0.6030 -1.5384 -0.4919
   39MOL   H30616342   1.924   7.475   1.509 -0.2217 -0.2584  0.8041
   39MOL   H30716343   1.810   7.492   1.646  0.0101 -1.2526 -0.3964
   39MOL   H30816344   1.572   7.705   1.496  1.3568  0.3906 -1.5952
   39MOL   H30916345   1.638   7.695   1.658 -0.6574  1.1447  0.7778
   39MOL   H31016346   1.681   0.053   1.527 -2.1864 -0.2698 -0.0356
   39MOL   H31116347   1.930   7.709   1.651 -1.2950  1.7307  0.2301
   39MOL   H31216348   2.010   7.696   1.499  0.9818 -1.0568  1.8434
   39MOL   H31316349   1.911   0.066   1.520  0.2730 -0.3269 -3.2523
   39MOL   H31416350   1.864   7.613   1.297  0.3683  1.4220 -0.3853
   39MOL   H31516351   1.689   7.600   1.319  1.3823 -1.6061  0.3505
   39MOL   H31616352   1.764   7.754   1.307 -3.8129 -0.1326  0.2326
   39MOL   C31716353   1.590   7.387   1.524 -0.1458 -0.2305 -0.1322
   39MOL   C31816354   1.493   7.274   1.491 -0.0442  0.7438 -0.5400
   39MOL   C31916355   1.348   7.311   1.525  0.4955 -0.2031  0.2441
   39MOL   C32016356   1.292   7.300   1.667 -0.0408  0.6349 -0.6626
   39MOL   C32116357   1.296   7.155   1.712 -0.6574 -0.3902 -0.0617
   39MOL   C32216358   1.145   7.337   1.668 -0.1185  0.0518  0.0682
   39MOL   C32316359   1.365   7.391   1.766 -0.1083  0.0132  0.1565
   39MOL   H32416360   1.580   7.391   1.633  0.3200 -0.7530 -0.0673
   39MOL   H32516361   1.549   7.485   1.497  1.0243  0.1106 -0.7043
   39MOL   H32616362   1.523   7.180   1.536 -2.8261  0.5142  0.9177
   39MOL   H32716363   1.285   7.247   1.463  1.2843 -2.7093  1.9414
   39MOL   H32816364   1.335   7.412   1.485  0.8128 -1.3419 -2.8942
   39MOL   H32916365   1.396   7.114   1.716 -0.1928  0.8496  1.4517
   39MOL   H33016366   1.230   7.092   1.652  0.3076  0.8153 -2.4564
   39MOL   H33116367   1.278   7.148   1.819 -1.3327 -2.6121 -0.3087
   39MOL   H33216368   1.082   7.273   1.605  1.0098 -0.9908 -0.0167
   39MOL   H33316369   1.104   7.326   1.768  0.2521 -1.1431  0.0986
   39MOL   H33416370   1.130   7.442   1.644  2.1418  0.5019  0.5869
   39MOL   H33516371   1.461   7.349   1.795 -0.4299 -0.6299  0.2977
   39MOL   H33616372   1.312   7.388   1.861  1.7876  1.1492  1.2844
   39MOL   H33716373   1.382   7.488   1.719  0.4684  0.2457  0.8271
   39MOL   C33816374   1.487   7.245   1.332 -0.3204 -0.4117 -0.4567
   39MOL   C33916375   1.445   7.101   1.290  0.6142 -0.2823  0.2837
   39MOL   C34016376   1.542   6.985   1.338 -0.2262 -0.0251 -0.1640
   39MOL   C34116377   1.484   6.840   1.367  0.4149 -0.3510 -0.4614
   39MOL   C34216378   1.346   6.864   1.440 -0.0179  0.2364  0.4386
   39MOL   C34316379   1.473   6.762   1.241 -0.3933 -0.1565  0.1215
   39MOL   C34416380   1.566   6.748   1.455  0.0686  0.1239 -0.0878
   39MOL   H34516381   1.585   7.273   1.293 -0.7032  1.6130 -0.0618
   39MOL   H34616382   1.416   7.313   1.284  0.4626 -0.0188 -1.0766
   39MOL   H34716383   1.345   7.092   1.334 -0.4717 -2.2391 -2.4800
   39MOL   H34816384   1.578   7.010   1.438  1.6911 -0.9559 -0.6012
   39MOL   H34916385   1.636   6.981   1.282 -0.0655  0.6371  0.0555
   39MOL   H35016386   1.349   6.931   1.526 -0.9815 -1.5381  1.8988
   39MOL   H35116387   1.263   6.888   1.374  0.3750  2.0314  0.5632
   39MOL   H35216388   1.316   6.769   1.485  0.0408 -0.9414 -1.9286
   39MOL   H35316389   1.445   6.658   1.259  1.3191 -0.6750 -0.0942
   39MOL   H35416390   1.390   6.796   1.179  0.1039 -1.1046 -1.0877
   39MOL   H35516391   1.562   6.758   1.179  0.0214  1.8502  0.5377
   39MOL   H35616392   1.527   6.648   1.475  1.0271  0.2038  2.2836
   39MOL   H35716393   1.663   6.719   1.416  0.8330  1.3943  0.8206
   39MOL   H35816394   1.570   6.789   1.556 -0.2293 -1.2712  0.5083
   39MOL   C35916395   1.447   7.107   1.133  0.0724 -0.2792  0.2343
   39MOL   C36016396   1.321   7.180   1.075 -0.1879  0.4781 -0.5918
   39MOL   C36116397   1.209   7.072   1.049  0.4663  0.9238  0.1396
   39MOL   C36216398   1.067   7.098   1.096  0.3922  0.3206  0.7130
   39MOL   C36316399   1.051   7.127   1.249 -0.8525 -0.0950 -0.6106
   39MOL   C36416400   0.996   6.964   1.054 -0.2631  0.3059  0.0477
   39MOL   C36516401   1.004   7.214   1.021  0.0144  0.2523 -0.1094
   39MOL   H36616402   1.459   7.003   1.105  1.1168 -0.3404  0.8621
   39MOL   H36716403   1.535   7.168   1.116  0.8664 -1.7196 -0.8729
   39MOL   H36816404   1.277   7.253   1.142 -2.3011  0.0573 -1.5027
   39MOL   H36916405   1.207   7.054   0.941  0.1397 -0.5551  0.3740
   39MOL   H37016406   1.240   6.976   1.090 -1.0435  1.0765  1.7189
   39MOL   H37116407   1.084   7.229   1.271 -0.6556 -0.0367 -1.1576
   39MOL   H37216408   0.949   7.113   1.284 -0.1919 -1.5692  0.7628
   39MOL   H37316409   1.099   7.051   1.310 -0.6763  1.0791  0.7232
   39MOL   H37416410   1.038   6.882   1.111  0.1098  2.3407  2.8148
   39MOL   H37516411   0.987   6.950   0.947 -1.8929  0.1252  0.2019
   39MOL   H37616412   0.892   6.974   1.086  0.0591  1.7521  0.6983
   39MOL   H37716413   0.896   7.196   1.017  0.1209 -0.1895 -1.4427
   39MOL   H37816414   1.033   7.215   0.916  1.0288  1.0674  0.1813
   39MOL   H37916415   1.020   7.315   1.057  0.9200  0.7813 -1.9131
   39MOL   C38016416   1.355   7.258   0.951 -0.4553  0.0098  0.1632
   39MOL   C38116417   1.427   7.399   0.969 -0.1494  0.9835  0.9072
   39MOL   C38216418   1.325   7.522   0.955 -0.2459 -0.2764  0.2609
   39MOL   C38316419   1.335   7.641   1.062 -0.1961  0.0076  0.8231
   39MOL   C38416420   1.280   7.608   1.196  0.0427 -0.5829 -0.5959
   39MOL   C38516421   1.245   7.755   1.004 -0.2527  0.3999 -0.3266
   39MOL   C38616422   1.474   7.692   1.069 -0.0601  0.2697 -0.4574
   39MOL   H38716423   1.261   7.277   0.899 -1.0599 -1.3432  0.7410
   39MOL   H38816424   1.408   7.196   0.880 -1.8198  0.0890 -0.9364
   39MOL   H38916425   1.466   7.417   1.069  1.9572 -1.4341  0.5851
   39MOL   H39016426   1.336   7.567   0.856 -0.6859 -1.0046 -0.1173
   39MOL   H39116427   1.221   7.491   0.951 -0.8046  1.6014 -0.2568
   39MOL   H39216428   1.253   7.691   1.261  1.1979  1.3272 -2.4690
   39MOL   H39316429   1.182   7.561   1.183 -0.0933 -0.9755  1.5924
   39MOL   H39416430   1.350   7.540   1.244  1.3307  0.7680 -0.5241
   39MOL   H39516431   1.279   0.026   0.908  2.1958 -0.5548  0.1266
   39MOL   H39616432   1.237   0.076   1.071  2.9740  0.1138  0.5265
   39MOL   H39716433   1.144   7.714   0.998 -1.2262  2.7063 -0.4052
   39MOL   H39816434   1.475   0.013   1.135 -0.1683  0.2777 -0.4655
   39MOL   H39916435   1.508   7.709   0.966  2.7718 -1.6240  0.1206
   39MOL   H40016436   1.539   7.616   1.111 -0.7659  0.7019  1.4580
   39MOL   C40116437   1.550   7.423   0.877 -0.3533  0.3033  0.4639
   39MOL   C40216438   1.662   7.329   0.900 -0.2221  0.5418 -0.4142
   39MOL   C40316439   1.773   7.363   0.797 -0.4175  0.5439  0.2624
   39MOL   C40416440   1.889   7.257   0.772 -0.0880  0.1625 -0.2827
   39MOL   C40516441   1.977   7.237   0.899 -0.2862 -0.6917 -0.0625
   39MOL   C40616442   1.968   7.306   0.653  0.2622  0.0072 -0.0877
   39MOL   C40716443   1.839   7.120   0.735 -0.1875  0.8428  0.0623
   39MOL   H40816444   1.516   7.417   0.774  0.2288 -0.7840  0.3241
   39MOL   H40916445   1.579   7.527   0.895 -0.4037  0.1078  1.7222
   39MOL   H41016446   1.705   7.329   1.000 -0.5975 -0.7764 -0.2457
   39MOL   H41116447   1.812   7.463   0.812  1.8205 -0.0680 -1.1949
   39MOL   H41216448   1.715   7.370   0.704 -2.1882 -0.2625  1.2757
   39MOL   H41316449   2.008   7.334   0.937 -1.1419 -0.6054  0.4295
   39MOL   H41416450   2.069   7.181   0.883  1.2428  1.8110 -0.3474
   39MOL   H41516451   1.917   7.191   0.977 -1.1573 -1.1312 -0.9772
   39MOL   H41616452   2.042   7.236   0.612  2.3539  0.4935  2.7083
   39MOL   H41716453   2.014   7.401   0.677 -1.7085  0.1043  3.5754
   39MOL   H41816454   1.898   7.318   0.570  0.6251  0.3529 -0.3452
   39MOL   H41916455   1.801   7.066   0.821  2.5754  0.4501  1.0676
   39MOL   H42016456   1.769   7.123   0.651  0.3257  1.7736 -0.3352
   39MOL   H42116457   1.920   7.057   0.699  1.1081  2.1074  0.7252
   39MOL   H42216458   1.628   7.226   0.886 -1.5139  0.4639  2.8926
   40MOL     C116459   2.081   7.641   0.781  0.1540  0.0986 -0.6166
   40MOL     C216460   2.133   0.009   0.840 -0.0410  0.8367 -0.0565
   40MOL     C316461   2.110   0.009   0.995 -0.1122 -0.1930 -0.6223
   40MOL     C416462   2.229   7.734   1.084  0.3683  0.0173  0.3454
   40MOL     C516463   2.350   0.060   1.056  0.5937  0.1433  0.1462
   40MOL     C616464   2.194   7.743   1.234 -0.5244  0.4795 -0.0646
   40MOL     C716465   2.281   7.594   1.059  0.2705 -0.3767 -0.1777
   40MOL     H816466   2.132   7.554   0.822 -1.0680 -0.3629 -0.0540
   40MOL     H916467   1.976   7.632   0.809  0.5784 -0.6158  0.7824
   40MOL    H1016468   2.235   0.030   0.805 -0.4918  0.9704 -1.2936
   40MOL    H1116469   2.017   7.726   1.024 -0.8879  0.2158 -2.3451
   40MOL    H1216470   2.094   0.116   1.014  2.8132 -0.0190  0.9878
   40MOL    H1316471   2.381   0.046   0.952 -0.5933 -1.1726 -0.0423
   40MOL    H1416472   2.434   0.035   1.120  0.7333  0.1805 -0.0215
   40MOL    H1516473   2.329   0.167   1.061 -1.0571 -0.0538 -1.7566
   40MOL    H1616474   2.093   7.706   1.253  0.4182 -1.2727  1.6558
   40MOL    H1716475   2.256   7.679   1.297 -0.3255  0.1135 -0.6199
   40MOL    H1816476   2.217   0.071   1.283 -3.1036  0.4144  1.3648
   40MOL    H1916477   2.360   7.559   1.126 -0.0688  0.1244  0.4885
   40MOL    H2016478   2.323   7.583   0.959  2.6756 -0.4312  0.8037
   40MOL    H2116479   2.193   7.533   1.080 -0.4552  1.3038  1.7995
   40MOL    H2216480   2.080   7.619   0.674 -0.8558 -0.6687 -0.4541
   40MOL    C2316481   2.054   0.120   0.767  0.5933 -1.0325  0.0424
   40MOL    C2416482   2.044   0.123   0.611 -0.0851  0.6065 -0.2472
   40MOL    C2516483   2.179   0.138   0.536 -0.1841 -0.1324 -0.1030
   40MOL    C2616484   2.188   0.076   0.392  0.3335  0.6602 -0.3829
   40MOL    C2716485   2.186   7.692   0.406 -1.0117 -0.6178 -0.3220
   40MOL    C2816486   2.080   0.140   0.297 -0.2512  0.5433 -0.5082
   40MOL    C2916487   2.331   0.111   0.341  0.2187  0.5191  0.8623
   40MOL    H3016488   1.954   0.102   0.808 -0.2752 -1.3614 -2.1719
   40MOL    H3116489   2.077   0.221   0.802 -0.0627 -0.7926 -0.2099
   40MOL    H3216490   1.990   0.034   0.579 -2.2112  1.2967  1.2743
   40MOL    H3316491   2.263   0.096   0.592  1.8708 -0.3454 -3.1975
   40MOL    H3416492   2.204   0.244   0.537  2.8878 -0.7983  0.0833
   40MOL    H3516493   2.083   7.657   0.400 -1.4948  0.7353 -0.1567
   40MOL    H3616494   2.239   7.640   0.325  4.0774  0.9230  1.7833
   40MOL    H3716495   2.219   7.645   0.499 -1.5562 -1.6493 -0.6447
   40MOL    H3816496   2.096   0.248   0.296  2.1561  0.2455  0.9470
   40MOL    H3916497   2.100   0.095   0.200  0.9526 -0.5191  0.2073
   40MOL    H4016498   1.977   0.113   0.320 -0.0963 -0.2682 -0.7545
   40MOL    H4116499   2.353   0.217   0.335  1.8749  0.1584  0.1196
   40MOL    H4216500   2.337   0.068   0.241  2.6421 -0.8188  1.5335
   40MOL    H4316501   2.419   0.076   0.396 -0.2081 -1.2111  0.4888
   40MOL    C4416502   1.952   0.239   0.582 -0.1945 -0.5267  0.4154
   40MOL    C4516503   1.799   0.232   0.612 -0.0096  0.2640  0.2786
   40MOL    C4616504   1.730   0.135   0.510  1.3852 -0.2149 -0.3330
   40MOL    C4716505   1.614   0.045   0.554 -0.2706 -0.9598  0.2310
   40MOL    C4816506   1.675   7.690   0.635 -0.8473 -0.2171  0.5990
   40MOL    C4916507   1.541   7.764   0.427  0.2882 -0.1952  0.1790
   40MOL    C5016508   1.505   0.115   0.635 -0.0242 -0.1004  0.1408
   40MOL    H5116509   1.987   0.324   0.640  0.0254 -0.9485  0.9045
   40MOL    H5216510   1.976   0.261   0.477 -2.8702 -2.6935 -0.7004
   40MOL    H5316511   1.776   0.195   0.713  0.3588  0.0544  0.2882
   40MOL    H5416512   1.806   0.073   0.463  1.7568 -1.0811  1.3881
   40MOL    H5516513   1.696   0.205   0.434  2.6736  2.2130  1.2586
   40MOL    H5616514   1.738   7.735   0.712 -0.7577  1.9393 -0.6930
   40MOL    H5716515   1.746   7.627   0.582 -2.4592  1.3665 -3.6624
   40MOL    H5816516   1.589   7.637   0.676 -0.7890 -1.3479 -0.6937
   40MOL    H5916517   1.474   0.060   0.367 -1.6990 -1.3646  1.1711
   40MOL    H6016518   1.620   7.729   0.360 -0.1512 -1.1340  0.1403
   40MOL    H6116519   1.486   7.672   0.445 -0.4371  0.1914 -0.0785
   40MOL    H6216520   1.471   0.206   0.588  1.5374  0.4893  0.1035
   40MOL    H6316521   1.416   0.055   0.653 -0.3819  1.2343  3.0976
   40MOL    H6416522   1.551   0.144   0.730 -0.6498  2.3609 -0.2940
   40MOL    C6516523   1.729   0.375   0.620 -0.4211 -0.1160  0.4352
   40MOL    C6616524   1.754   0.469   0.740  0.3391  1.0304 -0.2724
   40MOL    C6716525   1.661   0.418   0.864 -0.1980 -0.3640  0.3442
   40MOL    C6816526   1.727   0.405   1.000  0.1185  0.6969  0.4155
   40MOL    C6916527   1.819   0.518   1.039  0.0534 -0.0644 -0.1890
   40MOL    C7016528   1.611   0.413   1.105 -0.0442  0.5787  0.5862
   40MOL    C7116529   1.804   0.268   1.005 -0.0169 -0.1818 -0.5348
   40MOL    H7216530   1.763   0.438   0.538 -0.1713 -0.0720  0.5729
   40MOL    H7316531   1.620   0.370   0.607 -0.2417 -1.3778 -0.6910
   40MOL    H7416532   1.856   0.450   0.773  0.1979 -0.5238 -0.6807
   40MOL    H7516533   1.598   0.334   0.837 -0.6073 -0.1470  0.6275
   40MOL    H7616534   1.579   0.490   0.864  2.3192  2.6995 -2.7370
   40MOL    H7716535   1.863   0.527   1.138 -0.4817  0.3838  0.0109
   40MOL    H7816536   1.908   0.543   0.982 -1.0527  2.9932 -0.7105
   40MOL    H7916537   1.752   0.603   1.025  1.4517  1.3517  1.5503
   40MOL    H8016538   1.624   0.368   1.204 -0.3345 -1.0355 -0.0894
   40MOL    H8116539   1.521   0.369   1.063 -0.9541  2.2156  0.7941
   40MOL    H8216540   1.576   0.515   1.119  1.0623  1.3955 -2.2581
   40MOL    H8316541   1.736   0.191   0.970  1.0853 -1.4769  0.1369
   40MOL    H8416542   1.833   0.246   1.108  0.4150 -0.9149 -0.8132
   40MOL    H8516543   1.894   0.260   0.944 -1.2243 -2.2589 -2.1151
   40MOL    C8616544   1.720   0.613   0.702 -0.3544 -0.2097  0.5343
   40MOL    C8716545   1.819   0.693   0.622 -0.1757  0.3462 -0.8322
   40MOL    C8816546   1.935   0.753   0.715  0.1491 -0.7774 -0.5063
   40MOL    C8916547   2.078   0.754   0.659 -0.6107  0.4880  0.0416
   40MOL    C9016548   2.093   0.844   0.533  0.4164  0.3294 -0.6170
   40MOL    C9116549   2.125   0.604   0.641 -0.3145  0.2029 -0.6889
   40MOL    C9216550   2.163   0.831   0.759  0.5277 -0.4749  0.2312
   40MOL    H9316551   1.708   0.671   0.793 -0.3286 -0.6251  0.8052
   40MOL    H9416552   1.623   0.621   0.654 -0.3414 -0.3437  0.4831
   40MOL    H9516553   1.871   0.635   0.545 -2.8322  0.5844 -2.8820
   40MOL    H9616554   1.938   0.712   0.816  1.1735 -2.3471 -1.1574
   40MOL    H9716555   1.907   0.854   0.745  2.4694 -0.4153  0.5250
   40MOL    H9816556   2.199   0.852   0.508  0.4629  1.0317 -0.1915
   40MOL    H9916557   2.056   0.946   0.548 -0.0565  0.4743 -2.6743
   40MOL   H10016558   2.040   0.808   0.445 -1.6841  1.2527  0.2468
   40MOL   H10116559   2.062   0.545   0.575  1.4154 -1.1292 -1.1948
   40MOL   H10216560   2.232   0.604   0.622 -0.1385 -1.8508  0.2606
   40MOL   H10316561   2.119   0.551   0.736  0.2025 -0.1180 -0.8380
   40MOL   H10416562   2.268   0.854   0.741 -0.3734  2.2349 -1.9208
   40MOL   H10516563   2.113   0.924   0.784 -0.4235 -1.3409  1.6029
   40MOL   H10616564   2.179   0.774   0.851  0.4075 -1.7148 -0.5011
   40MOL   C10716565   1.753   0.815   0.548  0.3933 -0.0131  0.3308
   40MOL   C10816566   1.661   0.792   0.435 -1.0668  0.5256 -0.9958
   40MOL   C10916567   1.583   0.924   0.401 -0.4181 -0.0217  0.7204
   40MOL   C11016568   1.441   0.948   0.482  0.9583 -0.2321  1.1084
   40MOL   C11116569   1.340   0.855   0.420  0.0287  0.5930 -1.0900
   40MOL   C11216570   1.399   1.098   0.455  0.3138  0.3535  0.7649
   40MOL   C11316571   1.449   0.916   0.629  0.3531  0.1365 -0.2855
   40MOL   H11416572   1.828   0.882   0.508  2.4091 -3.3249 -1.7209
   40MOL   H11516573   1.696   0.865   0.626  0.3777  0.7665 -0.1788
   40MOL   H11616574   1.589   0.712   0.453  1.2539 -0.7548  3.5732
   40MOL   H11716575   1.653   1.007   0.409 -0.0220  0.1932 -3.6054
   40MOL   H11816576   1.558   0.917   0.295  0.3277 -0.5765  0.5826
   40MOL   H11916577   1.359   0.751   0.449  1.2246  1.2422  0.5159
   40MOL   H12016578   1.238   0.878   0.451  0.4061  2.1305 -0.9702
   40MOL   H12116579   1.340   0.852   0.311  2.5764  2.2319 -1.1721
   40MOL   H12216580   1.343   1.139   0.539 -1.5636 -1.1965  0.3104
   40MOL   H12316581   1.329   1.097   0.371  0.4294  0.4123  0.6668
   40MOL   H12416582   1.479   1.170   0.443 -0.7619  1.3899 -0.3017
   40MOL   H12516583   1.352   0.942   0.671  0.4064 -0.3832  0.1610
   40MOL   H12616584   1.515   0.980   0.688  1.0415 -1.2600  0.4727
   40MOL   H12716585   1.470   0.811   0.649 -1.7620 -0.0889  0.9109
   40MOL   C12816586   1.747   0.755   0.305  0.0782 -0.5106  0.5829
   40MOL   C12916587   1.668   0.691   0.190 -0.4170  0.3028  0.1868
   40MOL   C13016588   1.750   0.705   0.059 -0.1500 -1.1624 -0.0275
   40MOL   C13116589   1.730   0.838   7.737  0.0313  0.0212  0.1187
   40MOL   C13216590   1.784   0.959   0.055  0.2544  0.1086 -0.0433
   40MOL   C13316591   1.586   0.854   7.695  0.1513 -0.0964 -0.1677
   40MOL   C13416592   1.827   0.835   7.614 -0.3227  0.2961  0.8134
   40MOL   H13516593   1.829   0.688   0.331  1.6487  0.6067 -1.3286
   40MOL   H13616594   1.802   0.846   0.281  0.4032 -0.3858  1.7517
   40MOL   H13716595   1.570   0.739   0.181 -0.9556 -0.9122 -0.5823
   40MOL   H13816596   1.853   0.674   0.077  0.4498  0.9278  0.2158
   40MOL   H13916597   1.724   0.624   7.757  0.3856  0.5534 -2.3281
   40MOL   H14016598   1.882   0.952   0.101  0.1243 -0.7552  0.1021
   40MOL   H14116599   1.711   0.983   0.133 -1.1513 -2.3635 -0.5567
   40MOL   H14216600   1.784   1.045   7.754  0.0212 -0.2576 -0.5117
   40MOL   H14316601   1.578   0.948   7.640  0.5440 -0.1991 -0.4072
   40MOL   H14416602   1.517   0.851   0.013 -0.5490  0.2669 -0.7187
   40MOL   H14516603   1.562   0.770   7.630 -0.6520 -0.3988  0.5137
   40MOL   H14616604   1.856   0.930   7.568 -0.9911  1.2292  2.2811
   40MOL   H14716605   1.918   0.785   7.647  0.2073 -0.3909 -1.5797
   40MOL   H14816606   1.783   0.767   7.541 -1.0000 -0.3924  1.8446
   40MOL   C14916607   1.646   0.540   0.236 -0.9544 -0.2846 -0.2974
   40MOL   C15016608   1.527   0.472   0.166 -0.4691  0.1975 -0.2234
   40MOL   C15116609   1.546   0.315   0.171  0.7668  0.1038  0.3773
   40MOL   C15216610   1.635   0.240   0.064 -0.1860 -0.1357 -0.4511
   40MOL   C15316611   1.645   0.095   0.114  0.0357  0.2562  0.4379
   40MOL   C15416612   1.776   0.302   0.049 -0.1089 -0.6816 -0.1746
   40MOL   C15516613   1.567   0.234   7.694  0.4938  0.2000  0.2272
   40MOL   H15616614   1.634   0.513   0.341 -1.0450 -2.0277 -0.7345
   40MOL   H15716615   1.736   0.480   0.220 -1.6606 -1.4102 -0.1601
   40MOL   H15816616   1.539   0.509   0.064  2.0602  0.6236  0.1981
   40MOL   H15916617   1.449   0.269   0.191  1.0222  0.1131  1.6659
   40MOL   H16016618   1.590   0.281   0.265 -0.0452 -1.6194  0.1541
   40MOL   H16116619   1.696   0.028   0.043  0.3345  0.5746  0.3480
   40MOL   H16216620   1.704   0.086   0.205 -0.1359 -2.2291  0.3403
   40MOL   H16316621   1.547   0.048   0.113  0.7498 -1.2844 -1.2197
   40MOL   H16416622   1.841   0.249   7.744  0.6897 -0.1722  0.1723
   40MOL   H16516623   1.836   0.309   0.139  1.2794 -2.2995 -0.9277
   40MOL   H16616624   1.764   0.400   0.002 -1.2532 -0.2287  1.0370
   40MOL   H16716625   1.484   0.167   7.672 -0.0848  0.6280  1.0865
   40MOL   H16816626   1.535   0.334   7.668 -0.0383 -0.2345 -0.8162
   40MOL   H16916627   1.646   0.207   7.625  1.1818 -0.3477  1.2026
   40MOL   C17016628   1.400   0.521   0.240  0.2586  0.3620  0.1419
   40MOL   C17116629   1.265   0.538   0.156  0.0667  0.2479 -0.0802
   40MOL   C17216630   1.283   0.638   0.041  1.0400 -0.2111  1.2457
   40MOL   C17316631   1.210   0.604   7.671 -0.2795  0.2548 -0.7434
   40MOL   C17416632   1.238   0.719   7.574  0.3322 -0.1765  1.0165
   40MOL   C17516633   1.061   0.589   7.693 -0.6403  0.3032  0.0332
   40MOL   C17616634   1.263   0.481   7.606 -0.6636  0.4899  0.4661
   40MOL   H17716635   1.420   0.619   0.283  2.2571 -0.2412  0.6281
   40MOL   H17816636   1.380   0.463   0.330  0.0036  3.1771  1.9628
   40MOL   H17916637   1.266   0.437   0.116  2.7328  0.8473 -1.6183
   40MOL   H18016638   1.247   0.734   0.077  0.2832 -0.5087  1.2812
   40MOL   H18116639   1.390   0.646   0.022  1.1211 -0.5338  1.5706
   40MOL   H18216640   1.177   0.706   7.484  1.2953  1.2205  0.1504
   40MOL   H18316641   1.213   0.810   7.629  0.3121  0.1197  0.5276
   40MOL   H18416642   1.345   0.718   7.557  0.3184 -0.4462  0.9340
   40MOL   H18516643   1.040   0.506   7.761 -4.1437  1.4641  0.4491
   40MOL   H18616644   1.024   0.670   7.756  1.5821  0.0421  1.7248
   40MOL   H18716645   0.994   0.574   7.609  0.8862 -0.7059 -1.0272
   40MOL   H18816646   1.372   0.485   7.603 -0.5792 -1.1436  0.9040
   40MOL   H18916647   1.241   0.395   7.669 -1.7544 -0.1082 -0.6968
   40MOL   H19016648   1.225   0.460   7.506  0.6391 -1.6311  0.3721
   40MOL   C19116649   1.142   0.568   0.247 -0.2923 -0.4389 -0.2381
   40MOL   C19216650   1.091   0.450   0.332  0.3759 -0.2007 -0.2386
   40MOL   C19316651   1.047   0.332   0.252 -0.4962  0.6164 -0.5319
   40MOL   C19416652   1.054   0.184   0.312  0.9845  0.3837 -0.2664
   40MOL   C19516653   1.197   0.140   0.358  0.3102 -0.2621  0.0966
   40MOL   C19616654   1.011   0.078   0.207 -0.3275  0.2723  0.5648
   40MOL   C19716655   0.960   0.172   0.434 -0.0521 -0.1906  0.0058
   40MOL   H19816656   1.181   0.641   0.319  0.3086  0.3948 -1.3859
   40MOL   H19916657   1.053   0.611   0.201 -1.4867 -1.6877  0.8771
   40MOL   H20016658   1.173   0.414   0.394  2.5373  2.2930 -1.6029
   40MOL   H20116659   1.095   0.327   0.154 -0.7455 -1.8511 -0.5585
   40MOL   H20216660   0.945   0.361   0.226 -1.1992 -0.8402  0.5343
   40MOL   H20316661   1.265   0.197   0.295 -0.8986  1.3051  0.1723
   40MOL   H20416662   1.212   0.156   0.465 -0.0204  0.4446  0.0408
   40MOL   H20516663   1.229   0.038   0.338  1.1843 -0.1033  0.6580
   40MOL   H20616664   0.907   0.102   0.184 -0.1752 -1.3163 -1.9062
   40MOL   H20716665   1.066   0.073   0.113 -1.1211  1.5627  0.0180
   40MOL   H20816666   1.003   7.743   0.248 -0.4134  0.5692  1.2951
   40MOL   H20916667   0.950   0.068   0.465 -0.6863  0.1755  1.0451
   40MOL   H21016668   0.994   0.231   0.519  0.6305 -0.9458  0.2669
   40MOL   H21116669   0.861   0.205   0.404 -0.2564  0.7649  1.6866
   40MOL   C21216670   0.975   0.497   0.436 -1.0660 -0.0403 -0.4113
   40MOL   C21316671   1.024   0.552   0.574  0.2911  0.0269 -0.1789
   40MOL   C21416672   1.096   0.435   0.656  0.0037  0.4429  0.0790
   40MOL   C21516673   1.219   0.460   0.738 -0.5081 -0.6022  0.4450
   40MOL   C21616674   1.328   0.527   0.658  0.3382 -0.6468 -0.2840
   40MOL   C21716675   1.183   0.551   0.857  0.3232 -0.0023 -0.0769
   40MOL   C21816676   1.270   0.330   0.792  0.1161 -0.0006 -0.1697
   40MOL   H21916677   0.931   0.584   0.386  0.9880  0.3808 -1.5790
   40MOL   H22016678   0.889   0.430   0.437 -1.0685 -0.0862 -2.1696
   40MOL   H22116679   1.089   0.639   0.560 -0.1696  0.3841 -0.1020
   40MOL   H22216680   1.136   0.363   0.585  0.8217  0.6877  0.2822
   40MOL   H22316681   1.025   0.390   0.726 -0.1707 -0.0297 -0.3985
   40MOL   H22416682   1.350   0.471   0.568  1.0355 -0.4244 -0.2530
   40MOL   H22516683   1.420   0.525   0.716  0.6840 -1.5818 -0.8536
   40MOL   H22616684   1.301   0.628   0.630  1.3215  0.8549  3.7722
   40MOL   H22716685   1.151   0.652   0.836 -0.1417 -0.2440 -0.5257
   40MOL   H22816686   1.103   0.502   0.913  0.6027  3.2034  3.3106
   40MOL   H22916687   1.266   0.561   0.928 -0.3621 -0.2726  0.7764
   40MOL   H23016688   1.359   0.340   0.853 -1.1140  2.1371  1.3346
   40MOL   H23116689   1.305   0.274   0.706  3.0363  2.6170 -0.7685
   40MOL   H23216690   1.195   0.273   0.847  1.0220 -1.0571 -0.0195
   40MOL   C23316691   0.912   0.607   0.662  0.5390 -0.0530 -0.1720
   40MOL   C23416692   0.807   0.711   0.610  0.4872 -0.2734 -0.3487
   40MOL   C23516693   0.687   0.729   0.710 -0.4139  0.1436  0.7020
   40MOL   C23616694   0.572   0.621   0.690 -0.0676 -0.4293  0.1754
   40MOL   C23716695   0.472   0.675   0.582  0.1231  0.0605  0.5311
   40MOL   C23816696   0.615   0.483   0.647  1.1255  0.5471 -0.5044
   40MOL   C23916697   0.486   0.606   0.814  0.2182 -0.1331  0.2483
   40MOL   H24016698   0.954   0.640   0.757 -1.2608 -1.9447  1.3228
   40MOL   H24116699   0.864   0.518   0.702  1.0166 -0.7909 -1.2236
   40MOL   H24216700   0.778   0.675   0.512 -0.9532 -0.8382  0.2728
   40MOL   H24316701   0.720   0.737   0.813  1.1192  0.5662  0.1809
   40MOL   H24416702   0.647   0.828   0.686  0.3602  0.7767  2.0062
   40MOL   H24516703   0.450   0.780   0.597  0.2638  0.2210 -0.3484
   40MOL   H24616704   0.383   0.612   0.585  0.3150 -0.1585  2.3259
   40MOL   H24716705   0.511   0.653   0.482  1.2215 -1.1052  1.1858
   40MOL   H24816706   0.682   0.480   0.562  1.8342 -1.2084  0.0829
   40MOL   H24916707   0.671   0.441   0.731  0.7259 -1.2635 -1.1192
   40MOL   H25016708   0.536   0.410   0.627 -0.5499  1.8144  1.3008
   40MOL   H25116709   0.420   0.691   0.830 -1.1767 -0.8770 -1.3434
   40MOL   H25216710   0.439   0.508   0.822  3.5844 -1.7918  0.5452
   40MOL   H25316711   0.550   0.609   0.902  0.4790 -0.7636  0.0867
   40MOL   C25416712   0.869   0.845   0.581 -0.1917  0.1174 -0.3705
   40MOL   C25516713   0.789   0.946   0.485 -0.3316  0.2443  0.3497
   40MOL   C25616714   0.799   0.908   0.334  0.0059 -0.0710  0.2125
   40MOL   C25716715   0.676   0.932   0.238 -0.1672  0.4078 -0.0063
   40MOL   C25816716   0.714   0.894   0.098 -0.1031 -0.5633 -0.3615
   40MOL   C25916717   0.630   1.081   0.239  0.2201  0.1240  0.4213
   40MOL   C26016718   0.558   0.840   0.277 -0.1304  0.6989  0.0100
   40MOL   H26116719   0.960   0.828   0.524 -0.3173  0.2852 -0.6268
   40MOL   H26216720   0.903   0.900   0.669 -0.3416  0.7974 -0.7262
   40MOL   H26316721   0.683   0.933   0.505  0.4059 -1.8369  3.1484
   40MOL   H26416722   0.892   0.948   0.295  0.6312  0.4441  2.1540
   40MOL   H26516723   0.824   0.802   0.324  2.0783  0.4197 -0.1513
   40MOL   H26616724   0.791   0.958   0.056  1.0866 -0.8102  1.4235
   40MOL   H26716725   0.627   0.908   0.033 -0.7055  0.8419  0.7226
   40MOL   H26816726   0.746   0.790   0.097 -0.2754 -0.6137 -1.0727
   40MOL   H26916727   0.540   1.106   0.183  2.6487  3.0377 -2.3626
   40MOL   H27016728   0.700   1.143   0.182 -1.3483  1.5255 -0.0468
   40MOL   H27116729   0.610   1.118   0.340  0.2171  0.0780  0.4373
   40MOL   H27216730   0.468   0.865   0.221  1.5684  1.3709 -2.5492
   40MOL   H27316731   0.581   0.735   0.260  0.5545  1.1100 -1.6851
   40MOL   H27416732   0.531   0.859   0.381  0.0466  2.4959 -0.2600
   40MOL   C27516733   0.822   1.095   0.515  0.2021 -0.0706 -0.4509
   40MOL   C27616734   0.748   1.144   0.642 -0.2066  0.3173  0.1030
   40MOL   C27716735   0.827   1.261   0.711 -0.0366  0.5903  0.2333
   40MOL   C27816736   0.952   1.243   0.806 -0.4288  0.2969 -0.1533
   40MOL   C27916737   0.997   1.379   0.863 -0.0682  0.8861 -0.3204
   40MOL   C28016738   0.914   1.153   0.926 -0.0366  0.0340 -0.3467
   40MOL   C28116739   1.068   1.182   0.726  0.9931 -0.3013 -0.3152
   40MOL   H28216740   0.930   1.102   0.528  0.4507 -1.0168 -1.8232
   40MOL   H28316741   0.805   1.171   0.438  2.1552 -0.9684 -1.8092
   40MOL   H28416742   0.743   1.057   0.708 -2.3478  0.0277 -0.3900
   40MOL   H28516743   0.752   1.302   0.780 -1.1391  1.6625 -1.5772
   40MOL   H28616744   0.847   1.336   0.635  0.2179  2.0691  1.7135
   40MOL   H28716745   1.045   1.447   0.792 -1.2435  0.0127 -1.9763
   40MOL   H28816746   0.921   1.440   0.911  1.6816  2.9631 -0.0960
   40MOL   H28916747   1.077   1.356   0.934 -0.8199 -0.1708  0.2021
   40MOL   H29016748   1.007   1.113   0.967  0.6275 -2.3987 -3.9757
   40MOL   H29116749   0.857   1.066   0.894  0.1126 -0.1801 -0.0346
   40MOL   H29216750   0.858   1.216   0.996  0.2579  1.2685 -1.1978
   40MOL   H29316751   1.163   1.191   0.779  0.4689 -0.8871  0.7590
   40MOL   H29416752   1.093   1.238   0.636  2.0324 -0.7097 -0.2913
   40MOL   H29516753   1.057   1.078   0.693 -2.1663 -0.1153 -0.0592
   40MOL   C29616754   0.598   1.165   0.622 -0.1363 -0.1297  0.2373
   40MOL   C29716755   0.502   1.185   0.739 -0.0110  0.3821  0.5782
   40MOL   C29816756   0.521   1.060   0.836  0.0282  0.4552 -0.2540
   40MOL   C29916757   0.427   1.049   0.956  0.1250 -0.3763  0.0083
   40MOL   C30016758   0.401   1.179   1.031 -0.6709 -0.4200  0.8910
   40MOL   C30116759   0.294   0.983   0.921 -0.2761  0.3328 -0.0716
   40MOL   C30216760   0.487   0.956   1.063  0.4697 -0.4731  0.2964
   40MOL   H30316761   0.558   1.074   0.577  1.4230 -0.9736  0.5180
   40MOL   H30416762   0.589   1.244   0.548  0.2157 -1.4864 -1.2856
   40MOL   H30516763   0.537   1.278   0.784 -2.1578  0.9169  1.2002
   40MOL   H30616764   0.620   1.077   0.877 -0.0915  3.0277 -0.9311
   40MOL   H30716765   0.507   0.969   0.777 -3.3832  1.1485 -0.6197
   40MOL   H30816766   0.482   1.234   1.081  1.3870 -1.1465 -1.5212
   40MOL   H30916767   0.364   1.253   0.960  1.6606 -0.3784 -0.3251
   40MOL   H31016768   0.319   1.167   1.101 -0.1388 -2.1246  1.2371
   40MOL   H31116769   0.316   0.894   0.862 -0.9631  0.0166  0.1491
   40MOL   H31216770   0.236   0.954   1.008 -1.4669  0.3869 -0.8402
   40MOL   H31316771   0.216   1.039   0.870  0.2187  1.6409  0.5864
   40MOL   H31416772   0.414   0.932   1.140  0.0237 -1.3597 -0.3952
   40MOL   H31516773   0.523   0.863   1.018 -1.8777 -0.8354 -0.8866
   40MOL   H31616774   0.577   1.001   1.104 -0.6388  0.0144  2.2329
   40MOL   C31716775   0.353   1.200   0.693 -0.8500  0.1456  0.1832
   40MOL   C31816776   0.317   1.336   0.620 -0.2434 -0.3896  0.3917
   40MOL   C31916777   0.188   1.328   0.528 -0.2565  0.1642  0.2040
   40MOL   C32016778   0.189   1.260   0.381 -0.8365  0.3647  0.4228
   40MOL   C32116779   0.221   1.357   0.270  0.1420 -0.0390  0.1850
   40MOL   C32216780   0.049   1.204   0.346 -0.2032 -0.0354  0.1237
   40MOL   C32316781   0.296   1.158   0.373  0.1260 -0.1082 -0.0298
   40MOL   H32416782   0.348   1.110   0.632 -0.7193  1.1778 -1.3628
   40MOL   H32516783   0.277   1.190   0.771 -0.2307  3.3578  1.2587
   40MOL   H32616784   0.402   1.372   0.561 -3.2888  0.4774 -3.6576
   40MOL   H32716785   0.156   1.429   0.504  3.2232  1.0249 -1.1371
   40MOL   H32816786   0.115   1.278   0.592  0.7692  1.2548  2.3101
   40MOL   H32916787   0.162   1.448   0.281 -1.3026 -0.9899  0.3651
   40MOL   H33016788   0.192   1.319   0.172  0.5896 -1.0102  0.4182
   40MOL   H33116789   0.327   1.381   0.282 -0.4817  3.4754 -0.8600
   40MOL   H33216790   0.043   1.106   0.394 -3.2843 -0.3727 -0.8660
   40MOL   H33316791   7.733   1.268   0.378 -0.9340 -0.6899 -0.4215
   40MOL   H33416792   0.027   1.204   0.239  0.2948  1.0300  0.0074
   40MOL   H33516793   0.316   1.128   0.270 -3.1597  0.7374 -0.9851
   40MOL   H33616794   0.269   1.074   0.437 -0.6037  0.0474 -0.1199
   40MOL   H33716795   0.392   1.194   0.410 -0.3447  1.6014 -0.4091
   40MOL   C33816796   0.304   1.443   0.732  0.5514 -0.3132 -0.5960
   40MOL   C33916797   0.332   1.594   0.704  0.8757  0.0059 -0.1193
   40MOL   C34016798   0.485   1.631   0.693  0.5519 -0.0057 -0.5253
   40MOL   C34116799   0.538   1.695   0.564 -0.1566  0.1372  0.0692
   40MOL   C34216800   0.529   1.599   0.441  0.2736  0.4118 -0.1689
   40MOL   C34316801   0.463   1.826   0.517  0.1391 -0.9934  0.0278
   40MOL   C34416802   0.687   1.726   0.583  0.2575 -0.6075  0.4105
   40MOL   H34516803   0.358   1.414   0.823  1.2218 -2.3460 -1.5973
   40MOL   H34616804   0.198   1.433   0.753 -0.0124  1.5586 -2.4091
   40MOL   H34716805   0.273   1.611   0.614  0.8500  1.1825  0.1093
   40MOL   H34816806   0.533   1.533   0.705 -1.1919 -0.7882  0.2419
   40MOL   H34916807   0.513   1.689   0.781 -0.7736  0.5317 -0.4477
   40MOL   H35016808   0.582   1.642   0.356  0.1717  0.7931 -0.0411
   40MOL   H35116809   0.583   1.508   0.468 -1.4127 -0.3051  0.8350
   40MOL   H35216810   0.433   1.566   0.402 -0.7666  0.4007  2.2980
   40MOL   H35316811   0.517   1.866   0.432  0.7566 -1.8617  0.0025
   40MOL   H35416812   0.358   1.811   0.493 -0.3828 -0.0340  1.6212
   40MOL   H35516813   0.478   1.905   0.591 -1.3996  1.1743 -1.9063
   40MOL   H35616814   0.703   1.781   0.676 -0.4207  2.8606 -1.4405
   40MOL   H35716815   0.755   1.641   0.577 -0.4379 -1.0199 -1.9463
   40MOL   H35816816   0.727   1.787   0.503 -0.7818  0.5753  0.7833
   40MOL   C35916817   0.259   1.690   0.800  0.1037  0.0149  0.4101
   40MOL   C36016818   0.106   1.684   0.826 -0.7712 -1.0598 -0.6683
   40MOL   C36116819   0.068   1.567   0.922  0.0499  0.8125  0.1879
   40MOL   C36216820   7.743   1.592   1.050 -0.0994  0.7386  0.3562
   40MOL   C36316821   7.597   1.629   1.012  0.3802 -0.1278 -0.1469
   40MOL   C36416822   0.034   1.712   1.126  0.5126 -0.0667 -0.2094
   40MOL   C36516823   7.746   1.460   1.129 -0.5430 -0.4345 -0.6853
   40MOL   H36616824   0.281   1.794   0.780 -1.2534  0.1241 -0.6659
   40MOL   H36716825   0.298   1.681   0.901 -1.2419 -1.1245  0.8468
   40MOL   H36816826   0.085   1.784   0.865  0.2022 -1.5590  1.1861
   40MOL   H36916827   0.006   1.498   0.866  0.7425  0.4483 -0.1463
   40MOL   H37016828   0.156   1.511   0.952 -0.7272 -0.7422 -0.3915
   40MOL   H37116829   7.579   1.724   0.961 -2.0801 -0.0577  0.7586
   40MOL   H37216830   7.562   1.554   0.941  1.5424  0.3567 -1.2622
   40MOL   H37316831   7.528   1.639   1.096  0.5578 -0.8344  0.0822
   40MOL   H37416832   0.018   1.806   1.072  2.2568 -0.1327 -0.8724
   40MOL   H37516833   0.143   1.713   1.128  0.5159 -1.1339  0.5596
   40MOL   H37616834   0.002   1.714   1.230  0.8183  2.6611 -0.1288
   40MOL   H37716835   0.085   1.434   1.145 -0.3477  0.5158 -0.4409
   40MOL   H37816836   7.692   1.389   1.066 -2.3860 -1.9255  2.4311
   40MOL   H37916837   7.707   1.466   1.231  1.8124  1.6161  0.1430
   40MOL   C38016838   0.010   1.688   0.707  0.2189  0.4267  0.0109
   40MOL   C38116839   0.013   1.818   0.624 -0.5351 -0.0693  0.5357
   40MOL   C38216840   7.714   1.939   0.687  0.3082 -0.1190  0.0019
   40MOL   C38316841   7.751   2.078   0.638  1.0208  0.3849 -0.2651
   40MOL   C38416842   0.133   2.101   0.675 -0.5940 -0.8105 -0.0246
   40MOL   C38516843   7.659   2.185   0.703 -0.1231 -0.1695  0.1939
   40MOL   C38616844   7.722   2.101   0.483 -0.3790  0.4597 -0.2983
   40MOL   H38716845   7.672   1.658   0.725  1.2838 -3.1067  0.7539
   40MOL   H38816846   0.052   1.604   0.652  1.1792 -1.5279  3.5345
   40MOL   H38916847   0.113   1.850   0.595 -0.8259  0.3425 -0.0196
   40MOL   H39016848   7.606   1.929   0.698  0.3217 -1.0624 -0.7598
   40MOL   H39116849   7.744   1.935   0.792  0.6878 -1.3096 -0.1493
   40MOL   H39216850   0.158   2.201   0.641 -0.4579 -1.0142 -0.5279
   40MOL   H39316851   0.144   2.095   0.783  0.8431 -2.2322 -0.2239
   40MOL   H39416852   0.208   2.034   0.632  0.6359 -0.0757  0.9668
   40MOL   H39516853   7.631   2.268   0.638 -0.1409  0.8365  1.4806
   40MOL   H39616854   7.702   2.231   0.792 -1.5191 -1.4312  1.5683
   40MOL   H39716855   7.559   2.144   0.719  0.3533 -1.3882  0.1655
   40MOL   H39816856   0.028   2.047   0.420 -0.2510  0.5545 -0.2331
   40MOL   H39916857   7.737   2.207   0.465 -0.8140  0.4634 -0.6554
   40MOL   H40016858   7.619   2.078   0.456 -0.4813  0.8768 -0.2620
   40MOL   C40116859   7.724   1.774   0.483 -1.2249  0.6049  0.1682
   40MOL   C40216860   7.576   1.752   0.479 -0.0364  0.2437  0.3621
   40MOL   C40316861   7.504   1.655   0.379 -0.7333  0.2087  0.0839
   40MOL   C40416862   7.355   1.663   0.375  0.2107 -0.1241  0.1403
   40MOL   C40516863   7.297   1.642   0.518  0.6040  0.1372 -0.0243
   40MOL   C40616864   7.289   1.557   0.288  0.5043 -0.1047  0.5851
   40MOL   C40716865   7.308   1.797   0.310 -0.6893  0.5272  0.3251
   40MOL   H40816866   7.747   1.857   0.416 -1.7567 -0.4163 -1.2808
   40MOL   H40916867   7.762   1.681   0.442  0.1984  2.6066 -3.3254
   40MOL   H41016868   7.545   1.711   0.575 -0.1673  0.5742  0.4623
   40MOL   H41116869   7.524   1.551   0.406  0.5459  0.6885  1.0254
   40MOL   H41216870   7.540   1.667   0.277 -0.4387 -2.1878 -0.1151
   40MOL   H41316871   7.335   1.553   0.568 -0.1601 -0.7851 -1.0652
   40MOL   H41416872   7.190   1.625   0.509  0.5131  0.3431  0.6547
   40MOL   H41516873   7.316   1.730   0.580  0.1798 -0.7650  1.4065
   40MOL   H41616874   7.305   1.459   0.334 -1.8751 -0.1104  1.4740
   40MOL   H41716875   7.328   1.557   0.186  0.8527  0.4788  0.7165
   40MOL   H41816876   7.181   1.562   0.276  0.6333 -0.1212 -0.7211
   40MOL   H41916877   7.361   1.818   0.217 -1.1869 -1.1879 -0.3551
   40MOL   H42016878   7.200   1.804   0.298 -0.6245 -0.4957 -0.9466
   40MOL   H42116879   7.330   1.884   0.372  1.2705  1.0794 -1.0544
   40MOL   H42216880   7.534   1.853   0.487 -0.6216  0.1202 -0.9588
   41MOL     C116881   5.537   3.380   0.239 -0.4237 -0.2171  0.0597
   41MOL     C216882   5.634   3.443   0.138 -0.1601  0.3055  0.2631
   41MOL     C316883   5.779   3.394   0.154  1.2867  0.5375  0.1376
   41MOL     C416884   5.838   3.303   0.045 -0.3929  0.0276  0.2026
   41MOL     C516885   5.829   3.361   7.669  0.0461  0.2913  0.0697
   41MOL     C616886   5.986   3.271   0.088 -0.8943 -0.0820  0.2945
   41MOL     C716887   5.764   3.167   0.057  0.4088  0.6723  0.1643
   41MOL     H816888   5.438   3.403   0.201 -0.6314 -0.7130  0.2964
   41MOL     H916889   5.548   3.272   0.238  2.2340  0.0231 -0.5670
   41MOL    H1016890   5.595   3.413   0.041  1.5681 -2.6633  0.4560
   41MOL    H1116891   5.794   3.346   0.251  1.9879  1.8330  0.6788
   41MOL    H1216892   5.842   3.480   0.176  1.1435  0.2215  1.9201
   41MOL    H1316893   5.902   3.306   7.610  1.8494 -0.0162  2.5002
   41MOL    H1416894   5.846   3.469   7.669  2.9593 -0.1086  1.2058
   41MOL    H1516895   5.736   3.342   7.616  1.2981 -2.7113 -1.1454
   41MOL    H1616896   6.033   3.369   0.093  1.3498 -1.1251  0.0298
   41MOL    H1716897   5.995   3.216   0.181  0.5985  0.9309  0.7593
   41MOL    H1816898   6.046   3.232   0.005 -0.3318  2.2262 -0.4155
   41MOL    H1916899   5.656   3.172   0.043  0.2307 -0.9913  0.9015
   41MOL    H2016900   5.785   3.102   0.142  2.5740  0.7915 -0.2519
   41MOL    H2116901   5.798   3.116   7.733  1.8246  2.7412 -0.5086
   41MOL    H2216902   5.553   3.414   0.342  1.9573  2.7995 -1.2339
   41MOL    C2316903   5.612   3.596   0.155 -0.8007  0.4900  0.1002
   41MOL    C2416904   5.661   3.697   0.044 -0.2100 -0.4835  0.0571
   41MOL    C2516905   5.632   3.841   0.089  0.2077  0.3600 -0.1545
   41MOL    C2616906   5.729   3.927   0.175 -0.5896 -0.0715 -0.5987
   41MOL    C2716907   5.746   3.884   0.326 -0.2671 -0.3626  0.0416
   41MOL    C2816908   5.867   3.925   0.109 -0.2708 -0.2249  0.0451
   41MOL    C2916909   5.679   4.071   0.175  0.4224 -0.4248  0.1922
   41MOL    H3016910   5.507   3.625   0.163 -0.6015  1.1680  0.3056
   41MOL    H3116911   5.670   3.630   0.242 -0.1240  0.8630 -0.4896
   41MOL    H3216912   5.765   3.676   0.018 -0.6070 -0.1491 -1.9101
   41MOL    H3316913   5.535   3.838   0.138  0.3121 -0.6650 -0.0048
   41MOL    H3416914   5.622   3.903   7.766  0.1643  1.8497  0.8535
   41MOL    H3516915   5.650   3.872   0.375 -0.6744  0.0717 -0.6389
   41MOL    H3616916   5.804   3.791   0.327 -1.1480 -0.9045  1.4693
   41MOL    H3716917   5.811   3.957   0.372 -0.5296 -0.4546  0.5562
   41MOL    H3816918   5.860   3.952   0.004 -0.1548 -0.8567 -0.1327
   41MOL    H3916919   5.938   3.994   0.152  2.5810 -1.4108 -2.5840
   41MOL    H4016920   5.914   3.827   0.122  1.2487  0.7592  2.1175
   41MOL    H4116921   5.658   4.103   0.073 -1.7931 -1.2205  0.3543
   41MOL    H4216922   5.749   4.141   0.219  0.4466  0.0034 -0.5160
   41MOL    H4316923   5.584   4.076   0.229  1.7659  2.4788  2.3478
   41MOL    C4416924   5.580   3.663   7.675  0.2477 -0.4702  0.1065
   41MOL    C4516925   5.615   3.743   7.547 -0.1283 -0.0185 -0.0183
   41MOL    C4616926   5.545   3.676   7.428 -0.2447  0.4181  0.4266
   41MOL    C4716927   5.390   3.673   7.409  0.1113 -0.7557  0.4209
   41MOL    C4816928   5.324   3.798   7.469  0.5191  0.7958  0.0700
   41MOL    C4916929   5.326   3.550   7.475 -0.1744 -0.2865 -0.4556
   41MOL    C5016930   5.360   3.655   7.256 -0.1379 -0.2001 -0.2675
   41MOL    H5116931   5.597   3.558   7.650  1.0603 -0.2272 -0.3584
   41MOL    H5216932   5.475   3.678   7.701  0.7120  0.7057  1.3236
   41MOL    H5316933   5.569   3.841   7.561 -0.8344 -0.6378  2.2520
   41MOL    H5416934   5.574   3.572   7.441 -0.4656  0.1623 -1.0825
   41MOL    H5516935   5.592   3.710   7.335 -0.3120 -1.6507 -0.3883
   41MOL    H5616936   5.216   3.789   7.453  0.4189 -2.7581  2.1811
   41MOL    H5716937   5.360   3.889   7.422 -0.4332  1.2953  0.2862
   41MOL    H5816938   5.334   3.802   7.577  0.5278  0.9561  0.0636
   41MOL    H5916939   5.386   3.460   7.456  1.1457 -0.0021  2.1606
   41MOL    H6016940   5.346   3.564   7.581  0.5166  1.2434 -0.7695
   41MOL    H6116941   5.227   3.529   7.436 -1.0537  2.0263  0.4507
   41MOL    H6216942   5.411   3.734   7.201  1.3825 -1.4923 -0.7401
   41MOL    H6316943   5.397   3.562   7.212  2.4516  0.7345 -0.0838
   41MOL    H6416944   5.253   3.663   7.233 -0.0886  0.7762 -0.1542
   41MOL    C6516945   5.767   3.763   7.520  0.1750  0.6737  0.1265
   41MOL    C6616946   5.799   3.878   7.411 -0.3844 -0.0529  0.3113
   41MOL    C6716947   5.944   3.879   7.342  0.4716 -0.5260 -0.8587
   41MOL    C6816948   5.964   3.785   7.220 -0.2197 -0.7814  1.1369
   41MOL    C6916949   5.882   3.835   7.092 -0.2554 -0.3769 -0.0209
   41MOL    C7016950   6.112   3.776   7.181 -0.4086  0.1710 -0.1927
   41MOL    C7116951   5.931   3.638   7.249 -0.0342  0.1051 -0.2990
   41MOL    H7216952   5.822   3.793   7.609  0.1300 -0.7900  0.6547
   41MOL    H7316953   5.808   3.674   7.472 -1.1908  0.5803 -0.9074
   41MOL    H7416954   5.732   3.865   7.327  1.5540 -0.7257 -1.1714
   41MOL    H7516955   6.001   3.855   7.431 -2.8829  2.0247  2.0940
   41MOL    H7616956   5.962   3.980   7.305  0.8381  0.1289  1.0773
   41MOL    H7716957   5.776   3.809   7.101 -0.2444  0.2992  2.4038
   41MOL    H7816958   5.884   3.942   7.076 -0.6628 -0.4382 -0.4855
   41MOL    H7916959   5.916   3.786   7.001  0.2626  1.4174 -0.8038
   41MOL    H8016960   6.168   3.742   7.268 -3.3382  0.0983  1.7361
   41MOL    H8116961   6.155   3.873   7.155  1.0688 -1.3347 -3.8373
   41MOL    H8216962   6.124   3.706   7.098 -0.8278 -0.0698 -0.0478
   41MOL    H8316963   5.943   3.563   7.170 -0.0963  0.6638 -0.8440
   41MOL    H8416964   5.830   3.623   7.288 -0.2860 -1.2635 -1.4157
   41MOL    H8516965   5.998   3.594   7.323  0.8088  1.3550 -0.3032
   41MOL    C8616966   5.783   4.024   7.474 -0.3512  0.0380 -0.5667
   41MOL    C8716967   5.722   4.135   7.376  0.8147  0.0574  0.4357
   41MOL    C8816968   5.748   4.281   7.412 -1.1232  0.4568 -0.1342
   41MOL    C8916969   5.734   4.331   7.558 -0.3170 -0.1029 -0.1026
   41MOL    C9016970   5.596   4.306   7.624 -0.7075 -0.9418 -0.0832
   41MOL    C9116971   5.747   4.485   7.555  0.0633  0.0798  0.0446
   41MOL    C9216972   5.850   4.283   7.652 -0.6525  0.3299 -0.0386
   41MOL    H9316973   5.879   4.058   7.514 -1.0464 -0.3945  1.5132
   41MOL    H9416974   5.722   4.020   7.564  2.2312  1.1187  1.2956
   41MOL    H9516975   5.769   4.124   7.278  0.4251 -1.3318  0.3948
   41MOL    H9616976   5.673   4.337   7.357 -1.0940  0.6005 -0.0277
   41MOL    H9716977   5.847   4.312   7.378 -0.5959  1.3856  2.1226
   41MOL    H9816978   5.518   4.366   7.577  0.4640  2.4780  2.1715
   41MOL    H9916979   5.599   4.339   7.728 -1.1679 -2.5157  0.4429
   41MOL   H10016980   5.560   4.203   7.626 -3.3666 -0.1041 -2.0468
   41MOL   H10116981   5.747   4.536   7.651 -1.5672  1.4453 -0.6440
   41MOL   H10216982   5.824   4.518   7.486 -1.5183 -0.4678 -2.0362
   41MOL   H10316983   5.663   4.535   7.507  1.0426  1.0382 -0.6927
   41MOL   H10416984   5.863   4.348   7.738 -0.1576  1.6733 -1.1111
   41MOL   H10516985   5.830   4.191   7.707 -1.2192  0.0720 -0.6663
   41MOL   H10616986   5.949   4.278   7.607  0.1994  2.3200  1.5507
   41MOL   C10716987   5.578   4.101   7.344 -0.3746 -0.4180 -0.1686
   41MOL   C10816988   5.524   4.160   7.206 -0.3251 -0.4995 -0.3794
   41MOL   C10916989   5.581   4.074   7.086  0.3492 -0.2470  0.0554
   41MOL   C11016990   5.609   4.137   6.945 -0.0535  0.0887 -0.5768
   41MOL   C11116991   5.743   4.226   6.952 -0.3688  0.3888  0.1338
   41MOL   C11216992   5.491   4.218   6.885  0.5811  0.0717 -0.1217
   41MOL   C11316993   5.632   4.023   6.850  0.4876  0.3154 -0.1883
   41MOL   H11416994   5.519   4.142   7.426  0.3591  3.4506 -1.4980
   41MOL   H11516995   5.567   3.992   7.347  0.3054 -0.4563  2.1825
   41MOL   H11616996   5.555   4.263   7.191 -1.9974  0.0039 -0.4214
   41MOL   H11716997   5.671   4.029   7.128 -0.3047 -0.2177  1.5108
   41MOL   H11816998   5.517   3.986   7.086  0.7895 -0.5655  0.3353
   41MOL   H11916999   5.825   4.155   6.956  1.7340  2.6890 -0.3370
   41MOL   H12017000   5.755   4.294   6.867 -1.8168  0.3860 -0.0761
   41MOL   H12117001   5.746   4.281   7.046 -0.0224  0.0684  0.3115
   41MOL   H12217002   5.502   4.240   6.778 -0.0589  0.5438 -0.0932
   41MOL   H12317003   5.496   4.313   6.937  0.0975  0.0351 -0.0015
   41MOL   H12417004   5.390   4.179   6.901  0.0708 -0.2047 -3.5632
   41MOL   H12517005   5.544   3.962   6.828 -0.8904  1.4412  1.9744
   41MOL   H12617006   5.709   3.958   6.891 -0.8871 -0.4367  1.2849
   41MOL   H12717007   5.654   4.063   6.752  0.4346  1.8560  0.4142
   41MOL   C12817008   5.369   4.147   7.209  0.2598 -0.0522  0.2332
   41MOL   C12917009   5.297   4.283   7.204  0.3587  0.0191  0.3441
   41MOL   C13017010   5.137   4.256   7.208 -0.1132 -0.1260 -0.5691
   41MOL   C13117011   5.059   4.242   7.078  0.5047 -0.6491  0.1549
   41MOL   C13217012   4.914   4.208   7.114 -0.3117 -0.0022 -0.0342
   41MOL   C13317013   5.103   4.137   6.984  0.4370  0.0965  0.0079
   41MOL   C13417014   5.069   4.383   7.005  0.5576  0.3851  0.6494
   41MOL   H13517015   5.335   4.095   7.299  0.0708  1.4225  1.0196
   41MOL   H13617016   5.341   4.076   7.131  0.0406 -0.4454  0.6651
   41MOL   H13717017   5.327   4.331   7.111 -0.3816 -2.9083 -1.4802
   41MOL   H13817018   5.123   4.171   7.273 -0.5687  1.9339  2.1179
   41MOL   H13917019   5.089   4.336   7.265 -0.5623 -1.0776  0.3969
   41MOL   H14017020   4.879   4.264   7.200  2.4685  0.2566  0.9786
   41MOL   H14117021   4.917   4.106   7.153 -0.6331  0.7484  2.0279
   41MOL   H14217022   4.847   4.223   7.029 -0.5394  2.6318  0.5709
   41MOL   H14317023   5.111   4.039   7.032  0.3662 -0.0344 -0.2443
   41MOL   H14417024   5.198   4.163   6.938  1.5574 -1.5531  1.3215
   41MOL   H14517025   5.018   4.132   6.915  0.0999  0.6167  0.3819
   41MOL   H14617026   5.156   4.386   6.940 -0.4033  0.0146 -0.6759
   41MOL   H14717027   4.980   4.410   6.948 -0.2699  1.4504  2.4145
   41MOL   H14817028   5.073   4.456   7.086  0.4731 -0.1851  1.1743
   41MOL   C14917029   5.334   4.380   7.320 -0.0227  0.3534  0.0087
   41MOL   C15017030   5.323   4.527   7.277  0.2643  0.0155 -0.1766
   41MOL   C15117031   5.326   4.618   7.399  0.1696  0.2855 -0.6572
   41MOL   C15217032   5.196   4.654   7.466  0.9592 -0.4644 -0.1470
   41MOL   C15317033   5.126   4.537   7.540  0.5246  0.2665 -0.0673
   41MOL   C15417034   5.090   4.706   7.372  0.8664 -0.7459  0.2869
   41MOL   C15517035   5.214   4.758   7.573  0.2363  0.1179 -0.3725
   41MOL   H15617036   5.439   4.359   7.338 -0.2216 -0.1775  0.5721
   41MOL   H15717037   5.286   4.357   7.415 -1.4597  1.2049 -0.4806
   41MOL   H15817038   5.233   4.534   7.215 -0.6382 -0.0404  1.1026
   41MOL   H15917039   5.366   4.715   7.372  0.2106  0.9351  1.6010
   41MOL   H16017040   5.404   4.592   7.472  0.6116  1.1726 -0.8117
   41MOL   H16117041   5.031   4.560   7.587 -0.7770  1.5747 -3.2145
   41MOL   H16217042   5.097   4.453   7.477  3.2469  0.0404 -1.1143
   41MOL   H16317043   5.200   4.500   7.611 -0.9813  1.3120  2.0918
   41MOL   H16417044   5.130   4.789   7.315 -1.6548 -0.3199 -0.9401
   41MOL   H16517045   4.999   4.732   7.426  0.3169  1.2046 -1.5506
   41MOL   H16617046   5.071   4.638   7.289  0.2525 -3.4027  2.4955
   41MOL   H16717047   5.296   4.737   7.641  0.3636 -1.9726 -1.1486
   41MOL   H16817048   5.225   4.857   7.528  0.0271 -1.4621 -4.1225
   41MOL   H16917049   5.132   4.783   7.640  1.7623  0.8221  1.2756
   41MOL   C17017050   5.436   4.563   7.184 -0.0492 -0.0827  0.2908
   41MOL   C17117051   5.414   4.694   7.103  0.7465 -0.0184  0.3738
   41MOL   C17217052   5.328   4.669   6.978 -0.0266 -0.5260  0.1284
   41MOL   C17317053   5.238   4.785   6.923  0.3379 -0.4390 -0.3628
   41MOL   C17417054   5.124   4.836   7.017 -0.5455 -0.3432  0.0609
   41MOL   C17517055   5.158   4.713   6.815 -0.0337  0.2104  0.1890
   41MOL   C17617056   5.305   4.911   6.874 -0.1015 -0.7998 -0.2700
   41MOL   H17717057   5.456   4.484   7.112 -0.5027 -0.7844  0.9257
   41MOL   H17817058   5.528   4.568   7.242  0.6896 -2.6095 -0.5873
   41MOL   H17917059   5.363   4.767   7.165  0.4970 -1.1808  1.5785
   41MOL   H18017060   5.392   4.632   6.898 -0.6715 -0.5105 -0.3894
   41MOL   H18117061   5.262   4.591   7.016 -0.8617  0.1126  0.0071
   41MOL   H18217062   5.057   4.763   7.061  0.1890 -0.3537  1.2076
   41MOL   H18317063   5.173   4.900   7.091 -1.1078 -0.3148  0.4091
   41MOL   H18417064   5.065   4.907   6.960 -0.0376  2.1608  2.4982
   41MOL   H18517065   5.087   4.785   6.774 -1.8201 -2.3723 -1.4074
   41MOL   H18617066   5.217   4.689   6.726  0.3480  1.1710  0.1814
   41MOL   H18717067   5.112   4.621   6.852  0.5406 -0.2385 -0.1927
   41MOL   H18817068   5.248   4.989   6.824  2.0690  0.1263 -1.3670
   41MOL   H18917069   5.365   4.960   6.951 -0.4451 -1.8912  0.6972
   41MOL   H19017070   5.382   4.885   6.801 -0.4360  1.4509 -1.4536
   41MOL   C19117071   5.553   4.750   7.067 -0.2860 -0.2691  0.0274
   41MOL   C19217072   5.647   4.809   7.173 -0.3027  0.0808 -0.2763
   41MOL   C19317073   5.588   4.922   7.267  0.1885 -0.4932 -0.5002
   41MOL   C19417074   5.652   4.951   7.403  0.0698 -0.2140 -0.0241
   41MOL   C19517075   5.673   4.815   7.476  0.6757  0.4363 -0.0483
   41MOL   C19617076   5.546   5.036   7.480  0.5435 -0.6612 -0.2550
   41MOL   C19717077   5.777   5.035   7.391 -0.1122  0.1337 -0.2226
   41MOL   H19817078   5.610   4.669   7.021 -0.9819 -0.6987 -0.0721
   41MOL   H19917079   5.537   4.824   6.989  1.6262 -1.3091 -1.3937
   41MOL   H20017080   5.682   4.724   7.231  1.9725  1.6256  0.7280
   41MOL   H20117081   5.481   4.905   7.277 -0.5681  2.1947 -3.1193
   41MOL   H20217082   5.585   5.017   7.213 -2.5048 -0.6850 -0.7276
   41MOL   H20317083   5.762   4.760   7.444 -0.5982 -1.3319 -0.6837
   41MOL   H20417084   5.674   4.839   7.582  3.6310  1.0508 -0.1860
   41MOL   H20517085   5.586   4.750   7.461  0.2597  0.7783  0.8753
   41MOL   H20617086   5.587   5.057   7.579 -1.7398 -2.3910  1.1052
   41MOL   H20717087   5.531   5.130   7.427  0.6393  0.4721  1.6840
   41MOL   H20817088   5.449   4.990   7.499  0.3039 -0.8227 -1.7864
   41MOL   H20917089   5.796   5.078   7.489  2.6667  1.2492 -1.1854
   41MOL   H21017090   5.870   4.984   7.363 -0.1820 -1.3196  2.0795
   41MOL   H21117091   5.756   5.120   7.326  1.1146  1.1030  0.6331
   41MOL   C21217092   5.766   4.871   7.091 -0.6855  0.4979 -0.0708
   41MOL   C21317093   5.885   4.780   7.047 -0.1565  0.0914  1.4827
   41MOL   C21417094   5.968   4.743   7.173 -0.5825  0.5347  0.7454
   41MOL   C21517095   6.035   4.600   7.192 -0.1040  0.1060  0.1926
   41MOL   C21617096   5.924   4.490   7.198  0.4199  1.2841 -0.7290
   41MOL   C21717097   6.118   4.547   7.070 -0.4088 -0.4226  0.6220
   41MOL   C21817098   6.133   4.597   7.316  0.3176  0.3021 -0.3055
   41MOL   H21917099   5.738   4.922   7.000  1.8048  2.0428 -0.0162
   41MOL   H22017100   5.803   4.961   7.140 -1.1649  1.5470 -1.6205
   41MOL   H22117101   5.839   4.687   7.012 -2.6420  1.2710  1.4704
   41MOL   H22217102   5.903   4.763   7.258 -2.0429 -3.7016  0.7168
   41MOL   H22317103   6.054   4.810   7.177 -0.0580  0.0631 -1.8445
   41MOL   H22417104   5.847   4.514   7.271 -0.9750 -0.5445 -1.5564
   41MOL   H22517105   5.978   4.403   7.236 -0.7116  0.6715 -0.4968
   41MOL   H22617106   5.875   4.463   7.105 -3.1784 -0.4271  1.5304
   41MOL   H22717107   6.064   4.551   6.975  1.9504 -1.3754 -0.8056
   41MOL   H22817108   6.212   4.599   7.052 -0.3635 -0.6250  0.2530
   41MOL   H22917109   6.144   4.444   7.094  2.3407  0.2020  0.4187
   41MOL   H23017110   6.142   4.496   7.356  0.0795  0.5314  0.3353
   41MOL   H23117111   6.110   4.665   7.399 -3.6227  2.1381 -2.7431
   41MOL   H23217112   6.234   4.624   7.284 -0.1689 -1.2105 -3.3043
   41MOL   C23317113   5.974   4.835   6.933 -0.6175  0.6343 -0.5358
   41MOL   C23417114   5.912   4.819   6.795 -0.3786 -1.0956  0.2821
   41MOL   C23517115   5.958   4.931   6.695 -0.4152  0.4688  0.3804
   41MOL   C23617116   5.881   5.067   6.685 -0.0501  0.5202 -0.9719
   41MOL   C23717117   5.728   5.052   6.658 -0.1589  0.7295 -0.8808
   41MOL   C23817118   5.902   5.158   6.818 -0.1405  0.1210  0.6429
   41MOL   C23917119   5.930   5.147   6.559  0.4068 -0.2995  0.8969
   41MOL   H24017120   6.072   4.788   6.944 -0.7895  0.7277  1.5921
   41MOL   H24117121   6.010   4.937   6.945  0.0813  0.2696  0.5424
   41MOL   H24217122   5.803   4.821   6.801 -0.3946 -3.1044  1.0194
   41MOL   H24317123   6.065   4.949   6.705  0.1398 -1.7334 -1.0691
   41MOL   H24417124   5.967   4.885   6.597  1.5989 -0.7077  1.0749
   41MOL   H24517125   5.713   4.985   6.573 -0.1320 -1.4049  0.7389
   41MOL   H24617126   5.675   5.144   6.633  1.2292  1.5026 -1.0080
   41MOL   H24717127   5.665   5.004   6.733 -2.7442  1.1974 -2.6987
   41MOL   H24817128   6.007   5.182   6.834  0.0647 -1.5982  1.9452
   41MOL   H24917129   5.839   5.247   6.806  0.9199  0.5670 -1.8632
   41MOL   H25017130   5.873   5.110   6.911 -0.2473 -0.0968  0.4980
   41MOL   H25117131   5.883   5.245   6.559 -0.7470 -0.8485 -0.0155
   41MOL   H25217132   6.037   5.157   6.541  0.1519 -1.8533 -1.7126
   41MOL   H25317133   5.898   5.102   6.465  2.2681 -2.1073  1.0900
   41MOL   C25417134   5.937   4.677   6.751  0.2026 -0.2332  0.4830
   41MOL   C25517135   5.850   4.636   6.624 -0.4662 -0.3274  0.7849
   41MOL   C25617136   5.701   4.609   6.672 -0.3578  0.5838 -0.2382
   41MOL   C25717137   5.588   4.579   6.569 -0.6847  0.0891  0.5208
   41MOL   C25817138   5.592   4.432   6.513  0.0617  0.4545 -0.0604
   41MOL   C25917139   5.611   4.669   6.452  0.2521 -0.2996  0.5687
   41MOL   C26017140   5.459   4.605   6.635  0.6901 -0.1588 -0.7384
   41MOL   H26117141   5.919   4.606   6.831  0.1451 -0.3381  0.3777
   41MOL   H26217142   6.041   4.668   6.719  0.4294  0.0525  1.1464
   41MOL   H26317143   5.828   4.719   6.556 -1.3654  1.5369  3.2948
   41MOL   H26417144   5.699   4.536   6.753  1.0881  1.2900  0.4665
   41MOL   H26517145   5.669   4.699   6.725  0.0102 -0.9066  2.6364
   41MOL   H26617146   5.673   4.412   6.443  1.3996 -1.6434  1.9829
   41MOL   H26717147   5.496   4.405   6.468  0.1609 -0.0800  0.0359
   41MOL   H26817148   5.607   4.360   6.594  2.9124  0.9165 -0.1386
   41MOL   H26917149   5.693   4.639   6.386 -1.0535 -1.1072 -0.7329
   41MOL   H27017150   5.631   4.767   6.494  0.5537  0.3030 -0.9623
   41MOL   H27117151   5.534   4.669   6.375 -0.1422 -2.3215  0.9214
   41MOL   H27217152   5.381   4.580   6.563  0.6424  0.6375 -0.9687
   41MOL   H27317153   5.455   4.541   6.723  1.3313  0.1883 -0.4514
   41MOL   H27417154   5.431   4.707   6.658 -2.7487 -0.4509 -3.2108
   41MOL   C27517155   5.910   4.514   6.547  1.3433  0.1859  0.1067
   41MOL   C27617156   6.063   4.492   6.527 -0.0298 -0.1547  0.3304
   41MOL   C27717157   6.093   4.352   6.482  0.7561 -0.3394  0.2541
   41MOL   C27817158   6.076   4.230   6.581  0.4951  0.3357  0.3307
   41MOL   C27917159   6.157   4.105   6.523 -0.1248 -0.4486 -0.0047
   41MOL   C28017160   6.137   4.261   6.722 -0.4799 -0.5693  0.5950
   41MOL   C28117161   5.933   4.180   6.607 -0.2736 -0.2382  0.0185
   41MOL   H28217162   5.877   4.436   6.615 -2.7288  1.0408 -0.8109
   41MOL   H28317163   5.862   4.494   6.452  0.1028  0.7830  0.5980
   41MOL   H28417164   6.112   4.506   6.623  2.5006  4.2433 -1.4507
   41MOL   H28517165   6.197   4.350   6.450 -0.2250  0.8332 -3.2022
   41MOL   H28617166   6.032   4.333   6.394 -0.3312 -0.5025  1.0257
   41MOL   H28717167   6.147   4.018   6.587 -1.7926 -0.3364 -0.0780
   41MOL   H28817168   6.118   4.077   6.425 -1.5357  1.5139 -0.0264
   41MOL   H28917169   6.263   4.129   6.523 -0.3227  0.4519  0.7483
   41MOL   H29017170   6.240   4.292   6.734 -1.2600  0.9191  4.0723
   41MOL   H29117171   6.134   4.169   6.780 -2.8100 -0.0250  1.3993
   41MOL   H29217172   6.074   4.333   6.774 -0.2310 -0.0537  0.1881
   41MOL   H29317173   5.935   4.085   6.661  0.4724  1.2521  2.6892
   41MOL   H29417174   5.885   4.155   6.512  0.3190  2.2558 -0.9715
   41MOL   H29517175   5.862   4.243   6.659  0.4527  0.3857  0.2677
   41MOL   C29617176   6.113   4.595   6.427 -0.4140  0.1908  0.2068
   41MOL   C29717177   6.266   4.629   6.428 -0.1584 -0.2236  0.6202
   41MOL   C29817178   6.285   4.756   6.522 -0.6160  0.0711 -0.1729
   41MOL   C29917179   6.415   4.757   6.609 -0.3624 -0.0591 -0.0248
   41MOL   C30017180   6.401   4.670   6.737  0.2583 -0.0210 -0.0238
   41MOL   C30117181   6.541   4.718   6.536 -0.0083 -0.3332  0.5300
   41MOL   C30217182   6.437   4.904   6.654 -0.1647  0.0613 -0.2487
   41MOL   H30317183   6.060   4.689   6.444 -0.3531 -0.2299  2.8510
   41MOL   H30417184   6.080   4.581   6.324  0.2748 -1.8214  0.2494
   41MOL   H30517185   6.320   4.542   6.464  0.8076  0.2003  0.2128
   41MOL   H30617186   6.201   4.775   6.588 -0.3966 -3.1335  1.1160
   41MOL   H30717187   6.303   4.845   6.462  1.6172  0.4976  1.1013
   41MOL   H30817188   6.494   4.658   6.793 -0.5277 -0.5365  1.1812
   41MOL   H30917189   6.328   4.706   6.810  0.9219  0.6529  0.3143
   41MOL   H31017190   6.362   4.571   6.716 -0.6857  0.6179 -1.4064
   41MOL   H31117191   6.632   4.713   6.597  1.0451  0.1291 -0.9561
   41MOL   H31217192   6.533   4.626   6.479  2.6538 -0.4780  0.2955
   41MOL   H31317193   6.551   4.789   6.454 -0.0843  1.6298  2.1650
   41MOL   H31417194   6.347   4.933   6.709  0.3795 -0.2421  0.8138
   41MOL   H31517195   6.522   4.927   6.719 -1.2328  3.6502 -0.0137
   41MOL   H31617196   6.444   4.972   6.569 -2.5302 -0.6769 -1.0777
   41MOL   C31717197   6.319   4.674   6.280 -0.3493 -0.5773  0.5347
   41MOL   C31817198   6.300   4.581   6.160  0.0193  0.5112  0.1564
   41MOL   C31917199   6.323   4.661   6.030 -0.8204  0.0986  0.5400
   41MOL   C32017200   6.206   4.705   5.946  0.8380 -0.2564 -0.2483
   41MOL   C32117201   6.256   4.767   5.816 -0.2869  1.0923 -0.2062
   41MOL   C32217202   6.117   4.815   6.013  0.4606 -0.1258  0.1159
   41MOL   C32317203   6.124   4.581   5.901  0.4126  0.0071 -0.1000
   41MOL   H32417204   6.259   4.762   6.256 -1.1644 -0.7623  1.8493
   41MOL   H32517205   6.425   4.694   6.270 -0.3649 -1.0278 -0.7106
   41MOL   H32617206   6.202   4.533   6.162  0.9679 -1.4846  1.2945
   41MOL   H32717207   6.393   4.610   5.964  1.9096  0.5834  2.9502
   41MOL   H32817208   6.383   4.749   6.055 -0.5818  0.2785 -0.6352
   41MOL   H32917209   6.179   4.826   5.766 -0.4410  1.0747  0.0088
   41MOL   H33017210   6.308   4.702   5.745 -1.1314 -0.8594  0.9251
   41MOL   H33117211   6.321   4.852   5.837  0.6305 -0.0290  1.6487
   41MOL   H33217212   6.042   4.860   5.947 -1.5381  0.3651  2.6764
   41MOL   H33317213   6.055   4.765   6.087 -1.9832 -0.0252 -1.8008
   41MOL   H33417214   6.185   4.888   6.057  0.8677 -0.5171  0.1447
   41MOL   H33517215   6.054   4.539   5.974 -0.4040  0.4002 -0.6459
   41MOL   H33617216   6.183   4.495   5.869  0.9982  0.0869  0.7581
   41MOL   H33717217   6.061   4.605   5.815 -1.2503 -2.3303  0.4106
   41MOL   C33817218   6.379   4.445   6.186  0.2792  0.5828  0.1393
   41MOL   C33917219   6.364   4.331   6.084 -0.2087 -1.1056 -0.0009
   41MOL   C34017220   6.230   4.265   6.090  0.6725 -0.2944  0.4372
   41MOL   C34117221   6.176   4.150   6.005  0.0435 -0.1209 -0.2151
   41MOL   C34217222   6.021   4.149   6.012  0.2436 -0.3621 -0.3622
   41MOL   C34317223   6.225   4.164   5.862  0.1023  0.0163 -0.5557
   41MOL   C34417224   6.218   4.017   6.067 -0.1629  0.2215 -0.1610
   41MOL   H34517225   6.345   4.416   6.285  2.3609 -0.0040  0.7105
   41MOL   H34617226   6.481   4.477   6.205  0.2929 -0.4139  1.8144
   41MOL   H34717227   6.374   4.363   5.980 -2.5002 -1.9107 -0.4890
   41MOL   H34817228   6.180   4.346   6.037 -0.5138 -1.0253  0.4409
   41MOL   H34917229   6.190   4.252   6.190 -0.7074  0.2726 -0.0330
   41MOL   H35017230   5.977   4.132   6.110 -1.6611 -0.0120 -1.1170
   41MOL   H35117231   5.972   4.235   5.965 -0.7488 -1.1314 -0.7489
   41MOL   H35217232   5.980   4.064   5.957  0.7220 -0.4188 -0.6353
   41MOL   H35317233   6.165   4.249   5.827 -0.5621  0.5003  1.6419
   41MOL   H35417234   6.332   4.180   5.857  0.0969  0.3554  0.3151
   41MOL   H35517235   6.197   4.077   5.803 -5.1664  1.0934  0.0972
   41MOL   H35617236   6.193   3.930   6.007 -2.2299 -0.1269  1.1508
   41MOL   H35717237   6.324   4.005   6.090  0.0651  2.5490  0.0613
   41MOL   H35817238   6.166   4.006   6.162 -1.4367 -0.1889 -0.9005
   41MOL   C35917239   6.476   4.222   6.100  0.4218 -0.1794 -0.5071
   41MOL   C36017240   6.622   4.259   6.062 -0.0067  0.5817 -0.5505
   41MOL   C36117241   6.634   4.282   5.905  0.3453  0.5371  0.1220
   41MOL   C36217242   6.737   4.389   5.862  0.5144 -0.8313 -0.0618
   41MOL   C36317243   6.777   4.370   5.714 -0.6072 -0.1993  0.1591
   41MOL   C36417244   6.873   4.378   5.940  0.0894  0.0961 -0.2016
   41MOL   C36517245   6.685   4.533   5.865 -0.2800 -0.3238 -0.3764
   41MOL   H36617246   6.443   4.134   6.045  0.3006 -0.2548 -0.3142
   41MOL   H36717247   6.472   4.190   6.204 -0.6153 -0.2554 -0.5620
   41MOL   H36817248   6.645   4.355   6.108 -0.2908  1.3115 -1.8983
   41MOL   H36917249   6.641   4.178   5.872  0.9364 -0.3624  3.0178
   41MOL   H37017250   6.541   4.315   5.859 -0.7222  0.7588  2.3847
   41MOL   H37117251   6.694   4.404   5.652 -0.3815  0.6385  0.2981
   41MOL   H37217252   6.862   4.426   5.676 -0.5770 -0.5232 -0.2399
   41MOL   H37317253   6.786   4.264   5.693 -0.1471 -0.7385  2.9147
   41MOL   H37417254   6.866   4.412   6.043  0.2480  0.1777 -0.2177
   41MOL   H37517255   6.934   4.449   5.884  0.9016 -0.5553 -0.1644
   41MOL   H37617256   6.925   4.283   5.931 -0.6053 -0.3567  0.5142
   41MOL   H37717257   6.587   4.545   5.819  0.4311  1.1750 -1.5359
   41MOL   H37817258   6.759   4.605   5.833  0.1540  1.3800  4.0633
   41MOL   H37917259   6.649   4.554   5.966  0.1549  2.6388 -0.7971
   41MOL   C38017260   6.721   4.147   6.110 -0.1032  0.1817 -0.3035
   41MOL   C38117261   6.744   4.125   6.258  0.1382 -0.1306  0.8887
   41MOL   C38217262   6.789   4.246   6.339 -0.3485  0.3541  0.1985
   41MOL   C38317263   6.723   4.282   6.474  0.2421  0.3693  0.8675
   41MOL   C38417264   6.790   4.415   6.528  0.5837 -0.2741  0.4744
   41MOL   C38517265   6.754   4.171   6.574 -0.3398 -0.1159 -0.7779
   41MOL   C38617266   6.572   4.310   6.460  0.5838 -0.2028 -0.0789
   41MOL   H38717267   6.813   4.144   6.051  0.5523 -1.6409  0.7829
   41MOL   H38817268   6.683   4.055   6.066 -2.5605  0.3647  1.3492
   41MOL   H38917269   6.643   4.101   6.293  0.3259 -0.0105  1.5282
   41MOL   H39017270   6.897   4.255   6.326 -0.7711  1.9705 -2.8052
   41MOL   H39117271   6.763   4.328   6.271 -2.0317 -1.2609 -1.1477
   41MOL   H39217272   6.757   4.447   6.627  0.7632  2.1750 -0.2122
   41MOL   H39317273   6.894   4.393   6.551  0.3461 -1.1883  0.6858
   41MOL   H39417274   6.791   4.500   6.460 -0.2728 -0.4781  0.2005
   41MOL   H39517275   6.714   4.076   6.540  1.0118  0.1787 -3.3297
   41MOL   H39617276   6.713   4.197   6.672  0.0614 -2.4828  0.0584
   41MOL   H39717277   6.863   4.165   6.579 -0.4464 -1.8340 -0.0632
   41MOL   H39817278   6.516   4.336   6.550 -1.3537 -3.6915 -0.1785
   41MOL   H39917279   6.518   4.221   6.429  0.0780  0.4974 -1.2292
   41MOL   H40017280   6.554   4.384   6.382 -1.4819  0.7982  1.2958
   41MOL   C40117281   6.821   3.990   6.288 -0.7162 -0.6368 -0.1632
   41MOL   C40217282   6.964   3.986   6.245  0.1906 -0.2996  0.2124
   41MOL   C40317283   7.049   3.868   6.299  0.3441 -0.4648  1.0826
   41MOL   C40417284   7.179   3.839   6.213  0.2975 -0.0509 -0.4514
   41MOL   C40517285   7.154   3.767   6.078  0.6111 -0.3756 -0.3179
   41MOL   C40617286   7.263   3.738   6.296 -0.3819 -0.2559 -0.3165
   41MOL   C40717287   7.261   3.967   6.178  0.3488  0.2254 -0.1468
   41MOL   H40817288   6.805   3.967   6.393 -1.3514 -1.1323 -0.3640
   41MOL   H40917289   6.767   3.917   6.227 -0.1489 -0.8380 -0.4328
   41MOL   H41017290   6.963   3.987   6.136 -0.0056  0.4998  0.2209
   41MOL   H41117291   6.992   3.777   6.320 -0.9994 -0.3055 -1.7095
   41MOL   H41217292   7.084   3.902   6.396 -1.6316  2.1474  0.9319
   41MOL   H41317293   7.104   3.672   6.093  0.4107 -0.1834  0.2330
   41MOL   H41417294   7.250   3.751   6.029  2.2100  0.9089  2.2757
   41MOL   H41517295   7.091   3.819   6.005 -0.3086 -1.7863 -0.5443
   41MOL   H41617296   7.319   3.791   6.373  0.5681  2.5503 -2.8552
   41MOL   H41717297   7.323   3.667   6.238 -0.6554 -0.5344 -0.2567
   41MOL   H41817298   7.193   3.666   6.338  2.7481 -2.9426  0.5981
   41MOL   H41917299   7.345   3.944   6.112 -2.0598  1.9303 -3.9792
   41MOL   H42017300   7.202   4.044   6.129  0.0020 -0.0819 -0.2134
   41MOL   H42117301   7.288   3.997   6.279 -1.2116 -0.8706  0.6118
   41MOL   H42217302   7.013   4.082   6.261 -0.0909 -0.0589 -0.3424
   42MOL     C117303   2.339   1.342   1.528  0.0354 -0.9499  0.4030
   42MOL     C217304   2.217   1.255   1.514 -0.0035 -0.1059 -0.4053
   42MOL     C317305   2.140   1.233   1.653 -0.0371  0.0995  0.1544
   42MOL     C417306   2.055   1.361   1.700 -0.3678  0.4541  0.1213
   42MOL     C517307   2.131   1.496   1.728 -0.2806 -0.6267  0.6438
   42MOL     C617308   1.933   1.387   1.601  0.0018  0.2517  0.0879
   42MOL     C717309   2.007   1.313   1.841  0.2877  0.1869 -0.3746
   42MOL     H817310   2.300   1.444   1.530  0.4626 -0.8079  2.3172
   42MOL     H917311   2.384   1.314   1.623  1.7802 -1.4984 -0.5721
   42MOL    H1017312   2.153   1.309   1.445  0.8769 -1.3714 -2.2409
   42MOL    H1117313   2.207   1.207   1.734  0.9240  1.9847 -0.0141
   42MOL    H1217314   2.074   1.147   1.643 -0.8702  0.6665  0.7167
   42MOL    H1317315   2.143   1.559   1.640 -0.8728 -1.8597 -0.3280
   42MOL    H1417316   2.227   1.480   1.778  0.8221  0.9075 -0.9001
   42MOL    H1517317   2.067   1.558   1.791 -1.5818 -1.3868  0.0814
   42MOL    H1617318   1.853   1.444   1.648  0.5697 -0.1736  1.5987
   42MOL    H1717319   1.963   1.433   1.506 -1.3630 -0.0756 -0.5151
   42MOL    H1817320   1.888   1.292   1.575  0.8871 -0.2989  0.5474
   42MOL    H1917321   2.094   1.306   1.907  0.1079 -2.7665 -0.3986
   42MOL    H2017322   1.954   1.218   1.847  0.5079  0.1948  2.8638
   42MOL    H2117323   1.933   1.384   1.876  1.2254  0.6621  0.6923
   42MOL    H2217324   2.411   1.336   1.446 -1.6203 -0.4177 -1.1315
   42MOL    C2317325   2.260   1.124   1.443 -0.0798  0.3082  0.5654
   42MOL    C2417326   2.278   1.142   1.290  0.4016 -0.0438 -0.4035
   42MOL    C2517327   2.165   1.058   1.214 -0.2002  0.1308  0.3214
   42MOL    C2617328   2.020   1.115   1.186 -0.1310  0.9674 -0.2328
   42MOL    C2717329   2.025   1.236   1.098  0.4260 -0.3217  0.1114
   42MOL    C2817330   1.934   1.019   1.102 -0.6691  0.0764 -0.9510
   42MOL    C2917331   1.944   1.143   1.317  0.3700 -0.1725 -0.4113
   42MOL    H3017332   2.349   1.085   1.493 -0.2163 -0.1567  0.4465
   42MOL    H3117333   2.185   1.047   1.460  0.7764 -0.6372  0.1074
   42MOL    H3217334   2.284   1.248   1.263 -2.4897  0.4782  0.8727
   42MOL    H3317335   2.164   0.957   1.254 -1.0164 -0.3871 -0.9983
   42MOL    H3417336   2.204   1.038   1.114  0.7546 -0.2157  0.7492
   42MOL    H3517337   2.086   1.215   1.010  0.7338  3.3033 -0.5936
   42MOL    H3617338   1.927   1.265   1.059 -0.0303  1.4266  2.4088
   42MOL    H3717339   2.054   1.328   1.148 -0.3749  0.2558 -0.4632
   42MOL    H3817340   1.985   0.993   1.009 -1.0629 -0.9294 -0.8922
   42MOL    H3917341   1.900   0.929   1.153  0.9167 -0.4282 -0.7579
   42MOL    H4017342   1.849   1.078   1.068 -0.5190  0.9472  0.1589
   42MOL    H4117343   1.949   1.238   1.370 -1.5034 -0.2218 -0.1435
   42MOL    H4217344   1.959   1.061   1.388  0.0353 -0.1396 -0.3053
   42MOL    H4317345   1.840   1.145   1.287  0.1618 -2.2267  0.1354
   42MOL    C4417346   2.419   1.091   1.259 -0.1533 -0.1195 -0.4171
   42MOL    C4517347   2.481   1.095   1.115 -0.0412 -0.5143 -0.2932
   42MOL    C4617348   2.439   1.220   1.030  0.1316 -0.4003 -0.0254
   42MOL    C4717349   2.524   1.349   1.034 -0.6276  0.3507  0.1380
   42MOL    C4817350   2.476   1.465   0.942  0.3695 -0.2362 -0.2074
   42MOL    C4917351   2.666   1.322   0.991  0.8104  0.1810 -0.3637
   42MOL    C5017352   2.524   1.412   1.171  0.0968 -0.3223 -0.9920
   42MOL    H5117353   2.493   1.149   1.315  0.2495  0.7634 -1.8243
   42MOL    H5217354   2.430   0.988   1.290 -0.5043 -0.2599 -0.7499
   42MOL    H5317355   2.589   1.104   1.132 -0.2900  0.7231  0.7678
   42MOL    H5417356   2.332   1.239   1.038  0.1623 -0.3089  0.1551
   42MOL    H5517357   2.436   1.179   0.929 -0.1678 -2.4663  0.8077
   42MOL    H5617358   2.449   1.437   0.840  1.4538  2.4484 -1.2654
   42MOL    H5717359   2.559   1.535   0.949  1.3242 -1.3935  0.3284
   42MOL    H5817360   2.387   1.513   0.982  1.2946  1.6545 -0.3949
   42MOL    H5917361   2.677   1.296   0.886  0.1594 -1.2430 -0.0903
   42MOL    H6017362   2.722   1.414   1.011 -1.4216  1.3274  0.8153
   42MOL    H6117363   2.710   1.241   1.048 -2.1846  0.0615  1.9392
   42MOL    H6217364   2.597   1.493   1.170 -1.1282  0.8050 -1.1112
   42MOL    H6317365   2.427   1.456   1.195  0.7124  2.0145 -2.5793
   42MOL    H6417366   2.547   1.342   1.251 -2.2070  0.2463  0.2164
   42MOL    C6517367   2.476   0.962   1.039 -0.2680 -0.4076  0.1696
   42MOL    C6617368   2.605   0.941   0.952 -0.4158 -0.7909  0.2797
   42MOL    C6717369   2.580   0.856   0.829 -0.9180  0.2525 -0.7338
   42MOL    C6817370   2.589   0.929   0.692  0.2509  0.5423  0.0431
   42MOL    C6917371   2.494   1.050   0.682  0.4048 -0.0803 -0.2840
   42MOL    C7017372   2.731   0.986   0.665 -0.3172  0.2182  1.0838
   42MOL    C7117373   2.568   0.825   0.577 -0.1039 -0.0147 -0.2641
   42MOL    H7217374   2.453   0.869   1.091 -0.5138 -1.5223 -1.8773
   42MOL    H7317375   2.389   0.972   0.974  1.8617  3.1947 -2.2541
   42MOL    H7417376   2.634   1.043   0.929 -2.0773 -0.0438  1.3996
   42MOL    H7517377   2.483   0.807   0.828 -0.6953 -0.1853 -3.0776
   42MOL    H7617378   2.644   0.768   0.819 -1.7770 -0.3536 -0.9546
   42MOL    H7717379   2.472   1.076   0.579  0.9663 -0.0174 -0.3847
   42MOL    H7817380   2.397   1.020   0.724  1.2196 -0.3348  1.4692
   42MOL    H7917381   2.517   1.134   0.747 -2.0958  0.0763  0.4576
   42MOL    H8017382   2.803   0.906   0.675  0.5812  0.9052  0.1621
   42MOL    H8117383   2.763   1.070   0.727 -0.0526 -0.0643  1.3314
   42MOL    H8217384   2.750   1.021   0.564  0.5548 -1.9666  0.4690
   42MOL    H8317385   2.630   0.737   0.589  0.7276  0.4641 -0.9673
   42MOL    H8417386   2.600   0.875   0.486 -1.1640 -1.2054 -1.3079
   42MOL    H8517387   2.464   0.797   0.557  1.5104 -5.0719 -2.3760
   42MOL    C8617388   2.712   0.869   1.042  0.2047 -0.1582 -0.0396
   42MOL    C8717389   2.858   0.853   0.992 -0.0011 -0.3183 -0.5539
   42MOL    C8817390   2.935   0.739   1.064 -0.1814 -0.7365  0.1279
   42MOL    C8917391   3.037   0.652   0.978 -0.4832 -0.1646  0.5732
   42MOL    C9017392   2.984   0.592   0.842 -0.6380 -0.1625 -0.3793
   42MOL    C9117393   3.092   0.537   1.064 -0.3956 -0.6301 -0.7027
   42MOL    C9217394   3.159   0.736   0.932  0.0377  0.0592 -0.5062
   42MOL    H9317395   2.667   0.778   1.080 -0.7722  0.6217  0.6687
   42MOL    H9417396   2.732   0.928   1.131  0.4584  0.6977 -0.6529
   42MOL    H9517397   2.856   0.813   0.891 -0.0611  2.2115 -1.6052
   42MOL    H9617398   2.874   0.664   1.116 -0.8328 -0.0560  0.3619
   42MOL    H9717399   2.993   0.776   1.148 -0.2007  0.5078 -0.4018
   42MOL    H9817400   2.978   0.670   0.766 -0.7770 -0.4592 -0.6750
   42MOL    H9917401   2.880   0.560   0.849 -0.5248 -0.3928  0.2432
   42MOL   H10017402   3.036   0.506   0.799  1.2948  1.4761 -1.3857
   42MOL   H10117403   3.133   0.584   1.153 -0.1074 -0.1557 -1.0858
   42MOL   H10217404   3.018   0.465   1.101 -2.7511  1.1542 -1.7926
   42MOL   H10317405   3.169   0.484   1.009  0.3266 -0.0073 -0.2938
   42MOL   H10417406   3.208   0.658   0.874 -2.1645  0.3834 -2.9545
   42MOL   H10517407   3.141   0.820   0.865 -0.2541 -0.4051 -1.0219
   42MOL   H10617408   3.229   0.754   1.013  1.5358 -0.4442 -1.6553
   42MOL   C10717409   2.940   0.988   0.977  0.6958  0.2989  0.2890
   42MOL   C10817410   3.030   1.051   1.087 -0.3146  0.3824  0.2629
   42MOL   C10917411   3.086   1.195   1.056  0.0736 -0.1499  0.3326
   42MOL   C11017412   3.187   1.216   0.935 -0.7086 -0.4306  0.7010
   42MOL   C11117413   3.304   1.110   0.927 -0.3154  0.3908 -0.1428
   42MOL   C11217414   3.254   1.350   0.960 -0.7241  1.0834  0.3006
   42MOL   C11317415   3.111   1.221   0.800  0.0893 -0.2085 -0.4109
   42MOL   H11417416   2.876   1.072   0.949  0.1505 -0.3873 -0.5408
   42MOL   H11517417   3.008   0.979   0.893 -0.3034 -0.1925 -0.4793
   42MOL   H11617418   3.112   0.980   1.089  0.4996  1.3450  1.4926
   42MOL   H11717419   2.994   1.253   1.049 -1.0426 -1.8702  0.4821
   42MOL   H11817420   3.125   1.236   1.149  0.0617  1.3379 -0.3002
   42MOL   H11917421   3.356   1.125   0.832 -2.6575 -0.6943 -1.6418
   42MOL   H12017422   3.370   1.122   1.012 -0.8294 -0.0057  0.3168
   42MOL   H12117423   3.264   1.008   0.931  0.7496 -0.0486 -0.5453
   42MOL   H12217424   3.180   1.428   0.941  1.1722  2.2632 -2.6995
   42MOL   H12317425   3.336   1.360   0.889 -0.3624 -0.7289  0.4354
   42MOL   H12417426   3.293   1.354   1.062  1.0549 -4.5147 -0.0304
   42MOL   H12517427   3.029   1.293   0.805  0.0183 -0.2134 -1.4886
   42MOL   H12617428   3.049   1.145   0.754 -0.9680  0.8360 -0.7269
   42MOL   H12717429   3.180   1.251   0.721  3.1602 -1.0525  1.8362
   42MOL   C12817430   2.962   1.049   1.228 -0.1981  0.1957  0.2561
   42MOL   C12917431   3.047   1.084   1.356 -0.0164 -0.2759  0.2411
   42MOL   C13017432   2.958   1.101   1.484 -0.6581  0.2386 -0.2770
   42MOL   C13117433   2.858   1.215   1.491  0.5885  0.2431 -0.2096
   42MOL   C13217434   2.918   1.347   1.437  0.1015 -0.6137 -0.2365
   42MOL   C13317435   2.829   1.233   1.647  0.1858 -0.2072  0.1205
   42MOL   C13417436   2.720   1.182   1.425  0.1862  0.3059  0.0636
   42MOL   H13517437   2.916   0.951   1.240  2.1373 -1.0449 -0.6010
   42MOL   H13617438   2.882   1.120   1.212 -0.8727 -1.0196 -2.0296
   42MOL   H13717439   3.102   1.177   1.345  0.0246 -0.0590  2.0052
   42MOL   H13817440   2.909   1.004   1.499  0.8992 -0.4808  0.2997
   42MOL   H13917441   3.038   1.109   1.558 -1.1164  0.2461  0.2182
   42MOL   H14017442   3.011   1.372   1.486  0.6353 -1.6497 -0.7157
   42MOL   H14117443   2.845   1.428   1.440  2.7711  1.8657 -0.0542
   42MOL   H14217444   2.935   1.326   1.331  1.6141  0.2863 -0.1717
   42MOL   H14317445   2.776   1.325   1.672 -1.6277 -0.7206 -1.6431
   42MOL   H14417446   2.927   1.236   1.694  0.8134  0.8436 -1.2204
   42MOL   H14517447   2.775   1.151   1.695  0.8490 -1.4282 -1.1737
   42MOL   H14617448   2.721   1.201   1.318 -1.1961  2.5379  0.3964
   42MOL   H14717449   2.685   1.081   1.444 -0.0934  0.1931 -1.0224
   42MOL   H14817450   2.636   1.244   1.457 -0.8477 -1.0504  0.0223
   42MOL   C14917451   3.161   0.975   1.387  0.6808 -0.0474 -0.0292
   42MOL   C15017452   3.290   1.033   1.452  0.1539 -0.2456 -0.0582
   42MOL   C15117453   3.361   0.944   1.549  0.0476 -0.0485 -0.4734
   42MOL   C15217454   3.317   0.911   1.696  0.1722 -0.3684  0.2339
   42MOL   C15317455   3.398   0.797   1.752  0.0685 -0.0158 -0.6881
   42MOL   C15417456   3.163   0.876   1.711 -0.1449 -0.6915 -0.0231
   42MOL   C15517457   3.358   1.033   1.779 -0.3755 -0.3716  0.3489
   42MOL   H15617458   3.186   0.911   1.302  1.8539 -0.1421  0.3783
   42MOL   H15717459   3.106   0.909   1.454 -0.0172  1.0327  0.4653
   42MOL   H15817460   3.248   1.117   1.509 -1.0654 -1.3971  0.7602
   42MOL   H15917461   3.461   0.984   1.568  0.1195 -0.7067  0.6179
   42MOL   H16017462   3.379   0.853   1.491 -1.5349  0.8579 -2.4414
   42MOL   H16117463   3.417   0.719   1.679 -0.1932 -0.6918 -0.0363
   42MOL   H16217464   3.498   0.834   1.776  0.0943 -0.5939  0.1153
   42MOL   H16317465   3.359   0.752   1.844 -0.6903  1.3447 -0.3337
   42MOL   H16417466   3.121   0.807   1.638 -1.1150 -1.2330  1.0270
   42MOL   H16517467   3.101   0.966   1.709  0.2250 -0.4575 -1.2714
   42MOL   H16617468   3.154   0.827   1.808 -1.5627 -2.6034 -1.0853
   42MOL   H16717469   3.321   1.028   1.881  0.1230 -0.4253  0.5291
   42MOL   H16817470   3.466   1.046   1.773 -0.7241  2.3704 -0.9968
   42MOL   H16917471   3.296   1.114   1.741  2.3875  0.1224 -3.3915
   42MOL   C17017472   3.388   1.087   1.343  0.5317  0.0334 -0.6909
   42MOL   C17117473   3.476   1.214   1.372 -0.4831  0.0179 -0.0855
   42MOL   C17217474   3.385   1.339   1.382 -0.1292  0.0812  0.8776
   42MOL   C17317475   3.400   1.443   1.501  0.3142  0.5722 -0.7232
   42MOL   C17417476   3.537   1.514   1.497  0.1236  0.3809  0.8274
   42MOL   C17517477   3.374   1.373   1.639  0.3123  0.1770  0.2752
   42MOL   C17617478   3.286   1.545   1.479  0.1049  0.4518  0.5632
   42MOL   H17717479   3.317   1.109   1.263 -0.3931  3.3054  0.9271
   42MOL   H17817480   3.456   1.005   1.319  0.3786 -1.1074  2.5423
   42MOL   H17917481   3.526   1.197   1.467 -2.7825  0.2504  1.1888
   42MOL   H18017482   3.386   1.392   1.287  0.8382  0.9590  1.3684
   42MOL   H18117483   3.282   1.305   1.375  0.6594 -2.6203  1.6138
   42MOL   H18217484   3.622   1.447   1.514  1.6257  1.0159 -3.5563
   42MOL   H18317485   3.549   1.550   1.395 -0.1056 -1.7447  0.0185
   42MOL   H18417486   3.536   1.604   1.559  1.0756  0.9184  0.0756
   42MOL   H18517487   3.277   1.324   1.644 -0.2342  1.2323  0.1727
   42MOL   H18617488   3.452   1.297   1.648  1.1642  1.0949  0.7975
   42MOL   H18717489   3.387   1.443   1.722  1.7008  1.4693 -0.9905
   42MOL   H18817490   3.288   1.600   1.385  4.0589 -0.2443  0.1431
   42MOL   H18917491   3.197   1.484   1.494 -0.2797  0.7689 -0.4226
   42MOL   H19017492   3.300   1.626   1.551  1.2991  1.1984 -0.4937
   42MOL   C19117493   3.590   1.243   1.271 -0.4661  0.2264 -0.7843
   42MOL   C19217494   3.718   1.154   1.273  0.0441  0.5124 -0.1189
   42MOL   C19317495   3.808   1.145   1.401 -0.0306 -0.2354  0.4960
   42MOL   C19417496   3.851   1.004   1.450 -0.8285  0.5056 -0.1884
   42MOL   C19517497   3.913   0.916   1.340 -0.1242 -0.0384  0.8734
   42MOL   C19617498   3.734   0.922   1.504 -0.4516  0.3542  0.8629
   42MOL   C19717499   3.943   1.018   1.567  0.0305 -0.2941  0.7318
   42MOL   H19817500   3.540   1.244   1.175 -2.6477  0.2238  0.3270
   42MOL   H19917501   3.616   1.348   1.284 -0.3250 -0.0057  0.9669
   42MOL   H20017502   3.667   1.059   1.258 -2.7881  1.7186  1.5670
   42MOL   H20117503   3.761   1.188   1.489 -1.9316  0.1400 -0.6755
   42MOL   H20217504   3.897   1.202   1.376 -0.0474 -0.5043 -0.1903
   42MOL   H20317505   3.852   0.897   1.253 -0.6122  0.1203  1.1799
   42MOL   H20417506   4.006   0.961   1.304  0.3352  0.4571  2.5855
   42MOL   H20517507   3.951   0.822   1.380  0.5797  0.1126  0.5627
   42MOL   H20617508   3.692   0.969   1.593 -0.6842 -0.1255  1.0098
   42MOL   H20717509   3.653   0.907   1.433  1.5408 -1.6452 -1.1201
   42MOL   H20817510   3.760   0.819   1.529 -2.0628 -0.3777 -0.4251
   42MOL   H20917511   3.981   0.923   1.604  2.5490  0.7985  1.0437
   42MOL   H21017512   4.035   1.073   1.549 -0.1427 -0.7066 -1.4608
   42MOL   H21117513   3.891   1.070   1.648 -0.1196  0.4602  0.1640
   42MOL   C21217514   3.797   1.183   1.139 -0.4095  0.2038 -0.2009
   42MOL   C21317515   3.800   1.325   1.091 -1.1903  0.0845 -0.2162
   42MOL   C21417516   3.872   1.335   0.951  0.2614 -0.1346  0.1903
   42MOL   C21517517   3.784   1.329   0.822  0.2627  0.1264  0.8069
   42MOL   C21617518   3.718   1.467   0.824 -0.5107 -0.2324 -0.0292
   42MOL   C21717519   3.876   1.317   0.695 -0.5134 -0.5053 -0.7649
   42MOL   C21817520   3.682   1.218   0.810  0.4178 -0.4677 -0.0295
   42MOL   H21917521   3.901   1.156   1.158 -0.7513 -0.0883  1.3148
   42MOL   H22017522   3.763   1.119   1.057  0.1760 -0.7887  0.3248
   42MOL   H22117523   3.699   1.363   1.078 -1.7416 -1.2791 -0.0836
   42MOL   H22217524   3.953   1.263   0.935 -0.3258 -0.8525  0.4326
   42MOL   H22317525   3.920   1.432   0.953 -0.7594  0.3469  3.2163
   42MOL   H22417526   3.653   1.486   0.909  0.5768 -0.5366  0.8874
   42MOL   H22517527   3.663   1.474   0.731 -1.0912  0.6654  0.3727
   42MOL   H22617528   3.799   1.538   0.806 -0.3929  1.1176  4.9679
   42MOL   H22717529   3.961   1.385   0.698 -2.7678  2.3400  0.4170
   42MOL   H22817530   3.918   1.217   0.689 -0.2865 -0.3834 -1.2191
   42MOL   H22917531   3.810   1.330   0.609 -1.3907  1.4726  0.1772
   42MOL   H23017532   3.727   1.119   0.811  1.5200  0.0372  0.3070
   42MOL   H23117533   3.635   1.225   0.711  1.7971 -0.4282 -0.6867
   42MOL   H23217534   3.608   1.227   0.889 -0.3418  2.0226 -0.9744
   42MOL   C23317535   3.871   1.405   1.204 -0.6238  0.1812  0.1758
   42MOL   C23417536   3.888   1.558   1.192 -1.1709 -0.9416 -0.0378
   42MOL   C23517537   3.754   1.644   1.208 -0.1268 -0.7886 -0.1026
   42MOL   C23617538   3.732   1.794   1.144 -0.3954 -0.1112 -0.0544
   42MOL   C23717539   3.735   1.797   0.987 -0.8926  0.2523  0.8366
   42MOL   C23817540   3.588   1.832   1.189  0.1290  0.2431  1.1222
   42MOL   C23917541   3.839   1.893   1.199 -0.4194 -0.2512 -0.0324
   42MOL   H24017542   3.970   1.359   1.214 -0.3564  1.1954  2.5607
   42MOL   H24117543   3.821   1.383   1.298  1.7806  1.2707  1.7428
   42MOL   H24217544   3.903   1.576   1.086 -3.3454 -0.2581 -0.2473
   42MOL   H24317545   3.676   1.579   1.169  1.3514 -1.4902 -1.9395
   42MOL   H24417546   3.740   1.658   1.316  0.6020 -0.7934 -0.0023
   42MOL   H24517547   3.825   1.750   0.946  0.1916  1.1508  2.1228
   42MOL   H24617548   3.732   1.901   0.954 -1.2165  0.7796  2.4550
   42MOL   H24717549   3.649   1.743   0.949 -0.6753  0.6289 -0.2097
   42MOL   H24817550   3.571   1.837   1.297  0.4925 -0.0374  1.1961
   42MOL   H24917551   3.558   1.922   1.136  1.2557 -0.5979 -1.0074
   42MOL   H25017552   3.518   1.757   1.152  0.2040  1.7878 -2.3614
   42MOL   H25117553   3.941   1.871   1.165  0.5378  1.0418  1.8825
   42MOL   H25217554   3.809   1.994   1.170 -3.4556 -0.5546  1.8516
   42MOL   H25317555   3.850   1.896   1.307  1.1394 -2.5568 -0.0782
   42MOL   C25417556   3.995   1.609   1.288 -0.1374  0.0383  0.1502
   42MOL   C25517557   4.145   1.571   1.271  0.3997  0.0831  0.4329
   42MOL   C25617558   4.228   1.599   1.401  0.0767  0.0515  0.2344
   42MOL   C25717559   4.270   1.475   1.487  0.1484 -0.3689  0.1738
   42MOL   C25817560   4.312   1.357   1.401  0.0386 -1.1567  0.2409
   42MOL   C25917561   4.152   1.431   1.579 -0.2238 -0.3098  0.7074
   42MOL   C26017562   4.391   1.515   1.574 -0.0529 -0.0830  0.7617
   42MOL   H26117563   3.956   1.579   1.385 -0.2724 -1.5902 -0.3821
   42MOL   H26217564   3.993   1.718   1.282  2.5100  0.0801 -0.7485
   42MOL   H26317565   4.153   1.466   1.243 -1.6396  0.0202  0.0213
   42MOL   H26417566   4.324   1.642   1.372  1.1489 -1.2350  1.7355
   42MOL   H26517567   4.192   1.686   1.457  1.8371  2.8540 -2.8179
   42MOL   H26617568   4.380   1.291   1.456  0.0305 -1.3830 -0.0144
   42MOL   H26717569   4.369   1.395   1.316 -0.1130  0.0761  0.6871
   42MOL   H26817570   4.234   1.293   1.360  0.0313 -0.8427 -0.2353
   42MOL   H26917571   4.136   1.507   1.655 -0.0309 -1.1486  1.5956
   42MOL   H27017572   4.166   1.330   1.618  0.6659 -0.7627 -0.7431
   42MOL   H27117573   4.058   1.432   1.523 -0.1690  0.5808  0.6348
   42MOL   H27217574   4.475   1.551   1.515 -0.1529 -0.0914  0.6161
   42MOL   H27317575   4.382   1.594   1.649 -0.5141 -1.8442  2.6080
   42MOL   H27417576   4.429   1.432   1.635 -0.3629 -0.7274  0.0775
   42MOL   C27517577   4.203   1.653   1.148  0.7040  0.1149 -0.0684
   42MOL   C27617578   4.347   1.623   1.097  0.3791 -1.3059  0.1946
   42MOL   C27717579   4.358   1.600   0.948  0.4203  0.1891 -0.5889
   42MOL   C27817580   4.324   1.461   0.886 -0.0953 -0.9538 -0.8171
   42MOL   C27917581   4.189   1.474   0.815  0.4268 -0.0158 -0.2709
   42MOL   C28017582   4.431   1.425   0.785  0.0281 -0.0218  0.0178
   42MOL   C28117583   4.324   1.338   0.984 -0.9070 -0.3236  0.0173
   42MOL   H28217584   4.130   1.638   1.068 -2.1159 -1.4725  2.7097
   42MOL   H28317585   4.196   1.759   1.173 -0.4686  0.0740 -0.1923
   42MOL   H28417586   4.387   1.533   1.142 -0.4638 -1.7475  0.0753
   42MOL   H28517587   4.458   1.624   0.913  1.0264  0.2231  1.1022
   42MOL   H28617588   4.297   1.677   0.900 -1.6101  0.5658  2.4349
   42MOL   H28717589   4.117   1.532   0.873 -0.4226 -2.3031  1.0289
   42MOL   H28817590   4.198   1.525   0.719 -3.2524 -0.9258 -1.1997
   42MOL   H28917591   4.144   1.377   0.793  0.7918 -0.0016 -1.0763
   42MOL   H29017592   4.388   1.363   0.707  1.3610  2.0067 -2.3969
   42MOL   H29117593   4.516   1.372   0.829 -0.5793 -1.1995 -0.2221
   42MOL   H29217594   4.484   1.501   0.727  3.0542 -2.1620 -0.1675
   42MOL   H29317595   4.425   1.319   1.021 -0.8765  2.9635  1.8813
   42MOL   H29417596   4.302   1.251   0.923 -1.5025  1.0245 -1.7107
   42MOL   H29517597   4.255   1.346   1.068 -0.2062 -0.3054  0.6005
   42MOL   C29617598   4.450   1.732   1.147  0.6358  0.1255 -0.2785
   42MOL   C29717599   4.598   1.692   1.133  0.0518 -0.1951  0.1910
   42MOL   C29817600   4.637   1.593   1.250 -0.0648 -0.8381  0.2792
   42MOL   C29917601   4.749   1.486   1.226  0.2357 -0.0289  0.3833
   42MOL   C30017602   4.873   1.541   1.159 -0.3364  0.3876  0.4013
   42MOL   C30117603   4.797   1.433   1.358  0.1949  0.0908  0.0978
   42MOL   C30217604   4.682   1.363   1.153 -0.1041 -0.0959  0.5623
   42MOL   H30317605   4.434   1.780   1.244 -2.0363  1.0546 -1.1523
   42MOL   H30417606   4.436   1.824   1.089  0.8919  0.1594 -0.2890
   42MOL   H30517607   4.619   1.637   1.042 -2.0886  1.0286 -1.1162
   42MOL   H30617608   4.555   1.529   1.282  1.8413 -3.4097  0.1386
   42MOL   H30717609   4.654   1.657   1.336 -0.1497 -1.1306  0.5130
   42MOL   H30817610   4.850   1.591   1.065  0.4978  2.3704  1.2423
   42MOL   H30917611   4.930   1.619   1.209 -1.1636  2.4056 -1.6943
   42MOL   H31017612   4.944   1.462   1.133 -0.7696 -0.1132  0.7241
   42MOL   H31117613   4.856   1.503   1.417  0.8621 -1.0783  0.8337
   42MOL   H31217614   4.711   1.413   1.422 -1.4352  0.6761 -1.8675
   42MOL   H31317615   4.862   1.347   1.345  2.5812  1.2467  3.5471
   42MOL   H31417616   4.598   1.336   1.218 -0.8436  2.0968  0.5638
   42MOL   H31517617   4.650   1.391   1.053  1.6117 -1.5131 -0.4134
   42MOL   H31617618   4.748   1.277   1.143  0.2874  0.1867  0.7369
   42MOL   C31717619   4.682   1.824   1.135 -0.8841 -0.2869 -0.4975
   42MOL   C31817620   4.685   1.914   1.008 -0.1676  0.1351 -0.2059
   42MOL   C31917621   4.763   2.047   1.032  0.4790  0.1602  0.0604
   42MOL   C32017622   4.680   2.174   1.057  0.3144 -0.6390 -0.0347
   42MOL   C32117623   4.778   2.279   1.103 -0.1003  0.4234  0.2824
   42MOL   C32217624   4.560   2.156   1.171 -0.4008  0.8417  0.4166
   42MOL   C32317625   4.615   2.219   0.920 -0.0248 -0.7347 -0.2466
   42MOL   H32417626   4.648   1.886   1.217  1.2318  0.9639 -0.5347
   42MOL   H32517627   4.785   1.796   1.158 -0.1892  1.8811 -0.8471
   42MOL   H32617628   4.581   1.937   0.987 -0.2320 -0.7998 -0.9770
   42MOL   H32717629   4.837   2.051   0.952 -1.5431 -0.6285 -1.9143
   42MOL   H32817630   4.826   2.028   1.119  1.6914  0.1565 -0.8050
   42MOL   H32917631   4.820   2.264   1.202  0.0213  2.3502  0.5242
   42MOL   H33017632   4.736   2.379   1.092  0.0151  0.5037  0.5766
   42MOL   H33117633   4.869   2.281   1.043 -0.7100 -1.5749 -0.7776
   42MOL   H33217634   4.497   2.245   1.175  0.2272  1.2002  3.0991
   42MOL   H33317635   4.507   2.067   1.137  0.9658  0.3437 -0.4105
   42MOL   H33417636   4.593   2.139   1.273 -0.0194 -1.0534 -0.0044
   42MOL   H33517637   4.683   2.244   0.839  1.0951 -0.6848  0.6950
   42MOL   H33617638   4.547   2.304   0.931  1.2254  0.0830  1.4766
   42MOL   H33717639   4.555   2.139   0.878  1.7128 -0.6651 -2.9371
   42MOL   C33817640   4.741   1.834   0.882  0.2628  0.1735  0.3858
   42MOL   C33917641   4.762   1.911   0.753 -0.2262  0.0320  0.7107
   42MOL   C34017642   4.695   1.852   0.623 -0.2665  0.3315 -0.4134
   42MOL   C34117643   4.543   1.880   0.591  0.5868 -0.6240  0.3051
   42MOL   C34217644   4.512   1.807   0.462  0.6362  0.7663  0.5372
   42MOL   C34317645   4.457   1.821   0.703  0.2301  0.4883  0.2761
   42MOL   C34417646   4.511   2.027   0.568  0.0378 -0.3903  0.7116
   42MOL   H34517647   4.671   1.753   0.861  1.0375 -1.2012  2.8855
   42MOL   H34617648   4.835   1.789   0.912  0.7237  0.7865 -0.1121
   42MOL   H34717649   4.713   2.008   0.764 -1.6805 -0.7751  1.4294
   42MOL   H34817650   4.705   1.744   0.623  0.9215  0.4280 -0.3874
   42MOL   H34917651   4.742   1.886   0.530  1.9711  1.7584  1.1641
   42MOL   H35017652   4.570   1.833   0.374  0.7467 -1.9797 -0.2570
   42MOL   H35117653   4.541   1.702   0.474 -0.7007 -0.0327 -2.5945
   42MOL   H35217654   4.407   1.815   0.432  0.6259 -0.1392  0.3052
   42MOL   H35317655   4.506   1.725   0.717 -0.0857  0.0674 -1.4063
   42MOL   H35417656   4.463   1.889   0.789  1.4464  0.0165  0.5744
   42MOL   H35517657   4.355   1.795   0.673 -0.3415  1.3361  1.4218
   42MOL   H35617658   4.404   2.037   0.549  0.2991  2.1200  0.3364
   42MOL   H35717659   4.532   2.084   0.659 -0.0691  0.0205  0.4815
   42MOL   H35817660   4.570   2.063   0.484  0.0642  0.2151  0.9823
   42MOL   C35917661   4.918   1.930   0.727 -0.6572 -0.0917 -0.0302
   42MOL   C36017662   4.960   2.050   0.627 -0.2738  0.2486 -0.0337
   42MOL   C36117663   5.114   2.025   0.590 -0.1072 -0.2263  0.0902
   42MOL   C36217664   5.138   1.959   0.451  0.0628  1.3405 -0.3818
   42MOL   C36317665   5.292   1.945   0.440 -0.2738 -0.8237 -0.1893
   42MOL   C36417666   5.109   2.054   0.328  0.0284  0.5929  0.0830
   42MOL   C36517667   5.077   1.817   0.436 -0.6072  0.3685  0.6597
   42MOL   H36617668   4.950   1.830   0.700 -1.7292 -0.6786  0.8218
   42MOL   H36717669   4.969   1.953   0.821  2.1568  1.4770 -1.8704
   42MOL   H36817670   4.894   2.050   0.540  0.7404 -3.0515 -0.8962
   42MOL   H36917671   5.169   2.119   0.604  0.2870 -0.3083 -0.8752
   42MOL   H37017672   5.168   1.967   0.665 -0.9270 -0.6402  0.3627
   42MOL   H37117673   5.337   1.876   0.512 -0.3753 -0.5750  0.1115
   42MOL   H37217674   5.327   1.906   0.345  0.8587  0.1036 -0.1504
   42MOL   H37317675   5.343   2.041   0.437 -0.0174 -0.9882 -1.4541
   42MOL   H37417676   5.143   2.005   0.237 -0.9615  0.3636 -0.1750
   42MOL   H37517677   5.152   2.153   0.345  0.1435  0.5585 -0.0078
   42MOL   H37617678   5.002   2.076   0.323 -0.6115 -2.2513  0.5857
   42MOL   H37717679   5.102   1.749   0.518 -2.5935 -0.4796  0.6052
   42MOL   H37817680   5.104   1.776   0.339 -0.2120  1.4316  0.3199
   42MOL   H37917681   4.970   1.835   0.449 -0.6552  0.7841 -0.2639
   42MOL   C38017682   4.949   2.182   0.699  0.1112  0.1047  0.2819
   42MOL   C38117683   4.976   2.314   0.625 -0.5102  0.2553  0.0552
   42MOL   C38217684   5.011   2.425   0.721  0.0440 -0.2589 -0.1571
   42MOL   C38317685   5.158   2.485   0.706  0.2924  0.7487 -0.0596
   42MOL   C38417686   5.194   2.539   0.570  0.0763  0.4156 -0.2080
   42MOL   C38517687   5.266   2.381   0.747 -0.1006 -0.0489  0.2856
   42MOL   C38617688   5.170   2.597   0.808  0.5755  0.6957 -0.0576
   42MOL   H38717689   4.998   2.174   0.796  0.0984  0.4444  0.3156
   42MOL   H38817690   4.842   2.183   0.719 -0.0526  0.3245 -0.5982
   42MOL   H38917691   5.055   2.302   0.551  0.4739  3.5590  0.4950
   42MOL   H39017692   4.933   2.502   0.712 -0.9992 -1.0670  1.7115
   42MOL   H39117693   5.000   2.382   0.820 -2.5975 -0.4637 -0.4813
   42MOL   H39217694   5.297   2.572   0.562  0.4774 -0.7172  0.2864
   42MOL   H39317695   5.189   2.461   0.494  0.1677 -0.0408  0.2487
   42MOL   H39417696   5.126   2.619   0.538 -1.8060 -0.9463  0.2645
   42MOL   H39517697   5.233   2.285   0.709 -0.9905 -0.1307  1.2716
   42MOL   H39617698   5.282   2.373   0.855  1.3751  0.2806  0.1003
   42MOL   H39717699   5.365   2.415   0.714 -0.1366  0.1188  0.3500
   42MOL   H39817700   5.274   2.628   0.798  1.9986 -2.9738  2.0538
   42MOL   H39917701   5.146   2.564   0.909 -0.8247  1.3643 -0.1646
   42MOL   H40017702   5.087   2.667   0.807  0.2426  0.3070  0.0097
   42MOL   C40117703   4.848   2.352   0.540 -0.8737 -0.0945  0.1599
   42MOL   C40217704   4.879   2.473   0.440 -0.0555  1.3494 -0.4430
   42MOL   C40317705   4.762   2.512   0.354 -0.5596  0.0710 -0.0573
   42MOL   C40417706   4.782   2.625   0.243  0.7452 -0.4617 -0.9428
   42MOL   C40517707   4.820   2.769   0.295  0.1050  0.1617 -0.0884
   42MOL   C40617708   4.649   2.639   0.163 -0.1337 -0.3745  0.3601
   42MOL   C40717709   4.893   2.583   0.142 -0.1086 -0.4644  0.2015
   42MOL   H40817710   4.818   2.266   0.481  0.2335 -0.4813  0.1574
   42MOL   H40917711   4.767   2.373   0.610 -0.0625  0.2031  1.0298
   42MOL   H41017712   4.911   2.560   0.497  0.1061  1.6194 -0.9400
   42MOL   H41117713   4.685   2.545   0.424 -0.4176  2.0947 -0.8478
   42MOL   H41217714   4.742   2.417   0.303 -1.6264 -0.8294  1.9625
   42MOL   H41317715   4.919   2.765   0.341  0.2723  1.5522 -0.2928
   42MOL   H41417716   4.745   2.803   0.368  0.8265  2.0427 -0.1904
   42MOL   H41517717   4.815   2.833   0.207 -2.6370 -0.2702 -0.3190
   42MOL   H41617718   4.622   2.550   0.107  0.6430 -1.5552  1.8212
   42MOL   H41717719   4.649   2.718   0.088  0.0031  1.5046  2.3127
   42MOL   H41817720   4.561   2.672   0.218  0.9783  1.5289  1.0357
   42MOL   H41917721   4.912   2.666   0.074 -1.1211 -0.5977 -0.2540
   42MOL   H42017722   4.987   2.558   0.192 -0.9899  0.9108  2.6447
   42MOL   H42117723   4.858   2.499   0.083  0.1305 -0.3285 -0.1353
   42MOL   H42217724   4.966   2.445   0.381  1.9536  0.8578  2.6351
   43MOL     C117725   2.588   7.607   7.380  0.1842  0.0365 -0.5071
   43MOL     C217726   2.473   7.665   7.469  0.8744  0.2673  0.3419
   43MOL     C317727   2.522   0.021   7.535 -0.1868 -0.6783 -0.5009
   43MOL     C417728   2.429   0.143   7.552  0.1012  0.3202  0.1990
   43MOL     C517729   2.514   0.253   7.611  0.1452  0.5879 -0.4382
   43MOL     C617730   2.396   0.201   7.411  0.5950 -0.8472 -0.1700
   43MOL     C717731   2.299   0.120   7.635  0.5994 -0.1109  0.7738
   43MOL     H817732   2.633   7.685   7.318 -0.8792  2.6308  1.8782
   43MOL     H917733   2.666   7.581   7.451 -0.0148  1.0149  0.0865
   43MOL    H1017734   2.392   7.677   7.397  1.9081  1.9398 -0.5708
   43MOL    H1117735   2.614   0.056   7.488  1.0285 -1.0787  1.5061
   43MOL    H1217736   2.555   0.006   7.638  0.6179 -0.5005 -0.7271
   43MOL    H1317737   2.467   0.351   7.608 -0.0597  0.5128  0.2107
   43MOL    H1417738   2.614   0.262   7.567  0.6867  2.1940  1.0478
   43MOL    H1517739   2.533   0.246   7.718 -1.1227  3.7133  0.0403
   43MOL    H1617740   2.342   0.296   7.411  1.9204 -0.0721 -0.7663
   43MOL    H1717741   2.492   0.222   7.363  0.1194  1.2751 -0.2619
   43MOL    H1817742   2.331   0.136   7.353 -1.3845  1.0231 -0.1197
   43MOL    H1917743   2.324   0.074   7.730 -0.7581  0.5317  1.4587
   43MOL    H2017744   2.228   0.051   7.590  0.1256  0.6592  0.3235
   43MOL    H2117745   2.245   0.212   7.659 -1.3807 -1.6330  2.2891
   43MOL    H2217746   2.566   7.517   7.322  1.6767 -0.1136 -0.8446
   43MOL    C2317747   2.420   7.565   7.571 -0.0480  0.3794 -0.7063
   43MOL    C2417748   2.323   7.447   7.531  0.1264 -0.7885  0.0855
   43MOL    C2517749   2.175   7.504   7.512 -0.2738  0.6795 -0.2292
   43MOL    C2617750   2.087   7.460   7.388 -0.0248 -0.1463 -0.0520
   43MOL    C2717751   2.166   7.475   7.256  0.3818  0.3013  0.1743
   43MOL    C2817752   2.080   7.309   7.399 -0.1353  0.1446 -0.6024
   43MOL    C2917753   1.954   7.529   7.376 -0.0157  0.7236 -0.1041
   43MOL    H3017754   2.512   7.530   7.616 -0.9999 -1.7944 -0.3758
   43MOL    H3117755   2.369   7.622   7.649 -0.1134 -1.1652  0.3814
   43MOL    H3217756   2.378   7.404   7.448 -1.5460 -1.8244 -0.5079
   43MOL    H3317757   2.189   7.609   7.487 -0.2476  0.7176 -0.0548
   43MOL    H3417758   2.120   7.503   7.606  0.3091 -1.6409  0.1187
   43MOL    H3517759   2.108   7.430   7.176 -0.4240 -2.6954  2.3578
   43MOL    H3617760   2.166   7.580   7.228  0.7540  0.3673  0.4105
   43MOL    H3717761   2.264   7.429   7.263  0.2764 -0.0874 -0.8775
   43MOL    H3817762   2.025   7.271   7.312 -1.4207  1.1358 -0.2342
   43MOL    H3917763   2.177   7.259   7.399  1.7182  3.5945 -2.2112
   43MOL    H4017764   2.014   7.271   7.477  2.4495 -0.2524  1.4478
   43MOL    H4117765   1.965   7.637   7.375 -1.6775  0.9011 -1.5085
   43MOL    H4217766   1.900   7.495   7.465  1.2118 -2.9317 -0.6818
   43MOL    H4317767   1.894   7.494   7.292  0.2372  0.5449 -0.2082
   43MOL    C4417768   2.316   7.340   7.645  0.2553  0.2960 -0.4419
   43MOL    C4517769   2.439   7.266   7.700 -0.7354  0.0814 -0.2068
   43MOL    C4617770   2.495   7.182   7.588 -0.2219 -0.2250 -0.4689
   43MOL    C4717771   2.648   7.167   7.569 -0.2186 -0.4339  0.2726
   43MOL    C4817772   2.666   7.062   7.461 -0.2950  0.3961 -0.2296
   43MOL    C4917773   2.725   7.119   7.701  0.4154 -0.0496 -0.8116
   43MOL    C5017774   2.714   7.300   7.531 -0.0294  0.0404  0.5360
   43MOL    H5117775   2.284   7.401   7.730  0.8236 -0.7759  0.5530
   43MOL    H5217776   2.250   7.256   7.623  0.3167 -0.4096  1.9818
   43MOL    H5317777   2.515   7.337   7.733 -0.8469 -1.2801  3.1271
   43MOL    H5417778   2.456   7.219   7.494 -1.7835 -0.4155  0.0881
   43MOL    H5517779   2.452   7.084   7.611 -0.7905  0.7240  2.8472
   43MOL    H5617780   2.627   7.102   7.367 -0.3351 -0.3864 -0.5462
   43MOL    H5717781   2.624   6.965   7.486  1.8751 -0.4251  0.3438
   43MOL    H5817782   2.774   7.053   7.450 -0.3784 -0.4772 -0.3272
   43MOL    H5917783   2.700   7.015   7.724 -1.4929  0.8304  1.2406
   43MOL    H6017784   2.833   7.131   7.690  0.4884  1.0960  0.9677
   43MOL    H6117785   2.711   7.176   0.026  1.6267 -1.0593  0.0175
   43MOL    H6217786   2.689   7.382   7.597 -1.2169 -0.2406  0.4489
   43MOL    H6317787   2.822   7.293   7.542 -0.2980 -0.6098  3.0648
   43MOL    H6417788   2.695   7.323   7.426 -1.4103 -1.0814  0.5237
   43MOL    C6517789   2.417   7.177   0.065 -0.0604  0.2416 -0.0513
   43MOL    C6617790   2.405   7.257   0.198  0.5652 -0.0641  0.2126
   43MOL    C6717791   2.545   7.306   0.245  0.3769 -0.0642  0.3835
   43MOL    C6817792   2.559   7.450   0.299  0.0560 -0.2768  0.0152
   43MOL    C6917793   2.468   7.469   0.420 -0.5650  0.4606 -0.4090
   43MOL    C7017794   2.714   7.480   0.321 -0.5452 -0.2597  0.0874
   43MOL    C7117795   2.501   7.551   0.195  0.1612 -0.4785  0.0524
   43MOL    H7217796   2.336   7.113   0.029 -1.2758  1.4758  0.4589
   43MOL    H7317797   2.504   7.111   0.066  1.1154  1.6640 -2.6594
   43MOL    H7417798   2.351   7.351   0.182  1.7487  0.9273  1.8298
   43MOL    H7517799   2.623   7.296   0.169  0.8974 -0.7466  0.9967
   43MOL    H7617800   2.585   7.238   0.321 -2.4455 -1.8951  0.3125
   43MOL    H7717801   2.364   7.468   0.389 -0.4631  1.6130 -0.8083
   43MOL    H7817802   2.475   7.390   0.495  0.4263  1.2173  0.3201
   43MOL    H7917803   2.481   7.568   0.464  0.0928  0.2956 -0.2325
   43MOL    H8017804   2.732   7.554   0.399  1.3807  0.2451 -0.8031
   43MOL    H8117805   2.760   7.512   0.227 -1.8138  0.5009 -0.2842
   43MOL    H8217806   2.767   7.391   0.353  0.3062 -0.8596 -2.8264
   43MOL    H8317807   2.520   7.649   0.240 -2.2792 -0.6816  1.5950
   43MOL    H8417808   2.393   7.554   0.179  0.2420 -0.8143 -0.5750
   43MOL    H8517809   2.542   7.531   0.096 -0.6959  1.2678 -0.6861
   43MOL    C8617810   2.334   7.167   0.305 -0.0852  0.7210  0.2623
   43MOL    C8717811   2.183   7.147   0.289 -0.4411  0.1386 -0.5206
   43MOL    C8817812   2.112   7.280   0.297  0.1628 -0.3115  0.5590
   43MOL    C8917813   1.982   7.300   0.215 -0.0446 -0.0547 -0.2164
   43MOL    C9017814   1.866   7.196   0.243 -0.2801 -0.6410  0.5767
   43MOL    C9117815   2.007   7.308   0.064  0.4613  0.1024 -0.7802
   43MOL    C9217816   1.932   7.439   0.253  0.8263 -0.4902  0.2693
   43MOL    H9317817   2.353   7.218   0.399  3.1864 -0.7761  0.4768
   43MOL    H9417818   2.391   7.075   0.312 -1.3251 -0.0743 -0.0003
   43MOL    H9517819   2.156   7.100   0.194 -1.4161  1.5138 -0.9493
   43MOL    H9617820   2.180   7.365   0.285 -2.4086  1.9559  1.3124
   43MOL    H9717821   2.080   7.303   0.398 -1.5109  0.8792 -0.2133
   43MOL    H9817822   1.890   7.098   0.204 -2.6798 -1.0084 -0.0366
   43MOL    H9917823   1.781   7.230   0.185  1.5529 -0.5088 -2.1005
   43MOL   H10017824   1.841   7.178   0.348  0.2473 -1.3872  0.5776
   43MOL   H10117825   2.095   7.369   0.045  2.2754 -1.6928  1.5995
   43MOL   H10217826   2.033   7.212   0.018 -0.5413 -1.2841  1.4869
   43MOL   H10317827   1.922   7.352   0.012  0.0620  0.9758  0.5977
   43MOL   H10417828   1.896   7.443   0.356 -0.0708  1.2538 -0.0958
   43MOL   H10517829   1.999   7.523   0.235  0.6256  0.2461  2.7182
   43MOL   H10617830   1.846   7.464   0.191  0.3671  0.5091  1.2818
   43MOL   C10717831   2.137   7.052   0.406  0.2269 -0.2840 -0.2711
   43MOL   C10817832   2.183   6.902   0.411  0.1176  0.1008 -0.0328
   43MOL   C10917833   2.134   6.826   0.534 -0.4197 -0.8217  0.6410
   43MOL   C11017834   2.223   6.812   0.666 -0.1038  0.1213 -0.2148
   43MOL   C11117835   2.131   6.758   0.783  0.7063  0.0497  0.4535
   43MOL   C11217836   2.283   6.952   0.699  0.1363  0.0879 -0.5184
   43MOL   C11317837   2.341   6.719   0.657 -0.7958 -0.0354  0.3843
   43MOL   H11417838   2.028   7.048   0.404  0.2312  0.1059 -3.6037
   43MOL   H11517839   2.161   7.107   0.497 -2.2067 -3.4634  2.4395
   43MOL   H11617840   2.292   6.904   0.400  0.1690 -2.0587 -0.1059
   43MOL   H11717841   2.036   6.860   0.567 -0.7223 -1.6655  0.6284
   43MOL   H11817842   2.110   6.723   0.506  0.0246 -0.0843 -2.6283
   43MOL   H11917843   2.042   6.820   0.789  1.1043  0.5846  0.9193
   43MOL   H12017844   2.092   6.658   0.767 -0.9808  0.0807  3.9413
   43MOL   H12117845   2.187   6.759   0.877  0.1283  0.5405  0.7960
   43MOL   H12217846   2.344   6.955   0.789 -0.1345 -0.1803 -0.3255
   43MOL   H12317847   2.207   7.025   0.726 -0.0227 -0.6025  0.9052
   43MOL   H12417848   2.343   7.000   0.621 -1.7756  0.6742 -1.6824
   43MOL   H12517849   2.314   6.613   0.658  0.1572 -0.2902  2.2971
   43MOL   H12617850   2.404   6.722   0.746 -0.7549  0.1802  0.3460
   43MOL   H12717851   2.396   6.742   0.566  0.0888 -1.7922  0.4544
   43MOL   C12817852   2.142   6.828   0.280 -0.5725  0.3223 -0.5631
   43MOL   C12917853   2.233   6.711   0.240 -0.0488  0.0705 -0.0297
   43MOL   C13017854   2.151   6.619   0.147 -0.3301  0.1079 -0.9041
   43MOL   C13117855   2.049   6.515   0.201 -0.1081  0.1511 -0.1935
   43MOL   C13217856   1.934   6.571   0.286 -0.3001  0.7137  0.3305
   43MOL   C13317857   2.127   6.405   0.276  0.7002 -0.0216 -0.0799
   43MOL   C13417858   1.992   6.440   0.081 -0.1177  0.2380 -0.4526
   43MOL   H13517859   2.145   6.895   0.194 -0.7146  0.4314 -0.4822
   43MOL   H13617860   2.038   6.796   0.284  0.1266 -1.9556  0.2527
   43MOL   H13717861   2.258   6.659   0.332 -1.2762 -1.3765 -0.4970
   43MOL   H13817862   2.108   6.685   0.072 -0.7056 -0.7505 -1.4465
   43MOL   H13917863   2.229   6.571   0.087 -0.3085 -1.0265  0.0267
   43MOL   H14017864   1.857   6.503   0.322 -0.1309 -0.4850 -1.4817
   43MOL   H14117865   1.887   6.653   0.231  0.5247  2.2377  1.8653
   43MOL   H14217866   1.984   6.612   0.373  1.3899  1.7930 -1.0995
   43MOL   H14317867   2.196   6.356   0.207 -1.1994 -4.8591  1.2674
   43MOL   H14417868   2.060   6.334   0.324 -0.4284  0.5431 -0.7935
   43MOL   H14517869   2.193   6.446   0.352 -0.0662  1.4508 -0.1845
   43MOL   H14617870   2.083   6.416   0.026 -0.3709 -2.5817  0.2683
   43MOL   H14717871   1.943   6.344   0.096 -0.7255  0.8079  1.3000
   43MOL   H14817872   1.931   6.504   0.017  2.5989  1.7437 -1.6028
   43MOL   C14917873   2.372   6.750   0.181 -0.0973 -0.3704 -0.4418
   43MOL   C15017874   2.484   6.641   0.179  1.0348  0.0746 -0.0982
   43MOL   C15117875   2.589   6.686   0.084  0.4931  0.0829 -0.7727
   43MOL   C15217876   2.596   6.628   7.709  0.5375  0.1563 -0.1716
   43MOL   C15317877   2.621   6.475   7.711 -0.3406 -0.3294 -0.0569
   43MOL   C15417878   2.716   6.691   7.644 -0.1278 -0.1524  0.2255
   43MOL   C15517879   2.471   6.672   7.631 -0.2491  0.5312  0.4486
   43MOL   H15617880   2.399   6.839   0.239  1.7697 -1.5082  0.4642
   43MOL   H15717881   2.354   6.802   0.087  0.2506  3.0233  1.2975
   43MOL   H15817882   2.430   6.555   0.139 -1.7502  1.2596  0.9978
   43MOL   H15917883   2.689   6.656   0.117  0.6712  0.8623 -0.6111
   43MOL   H16017884   2.603   6.794   0.083  3.3239 -0.2355 -0.2584
   43MOL   H16117885   2.703   6.442   0.008  0.1284  0.0432 -0.4687
   43MOL   H16217886   2.530   6.419   7.732 -1.1894  0.8500 -0.5079
   43MOL   H16317887   2.647   6.451   7.608  1.7907  2.2433 -0.1698
   43MOL   H16417888   2.729   6.798   7.664  1.0822  0.3262 -2.9297
   43MOL   H16517889   2.716   6.688   7.535 -1.5721 -1.3897  0.2610
   43MOL   H16617890   2.809   6.641   7.671 -0.2016  0.8234  2.4140
   43MOL   H16717891   2.484   6.660   7.523  1.4457 -0.1412  0.7086
   43MOL   H16817892   2.384   6.611   7.653  1.2091 -2.5275 -1.8205
   43MOL   H16917893   2.445   6.776   7.650 -0.7507  0.6035 -0.5826
   43MOL   C17017894   2.542   6.621   0.323  0.8115 -0.0826  0.9626
   43MOL   C17117895   2.604   6.484   0.350  0.0695  0.0471  0.3235
   43MOL   C17217896   2.491   6.380   0.376 -0.2484 -0.4784 -0.2850
   43MOL   C17317897   2.498   6.229   0.340 -1.0815  0.0940  0.4713
   43MOL   C17417898   2.620   6.157   0.405  0.1363  0.4429 -0.7348
   43MOL   C17517899   2.506   6.202   0.192 -0.2120  0.4720  0.1936
   43MOL   C17617900   2.368   6.161   0.387 -0.0041  0.7451 -0.1515
   43MOL   H17717901   2.459   6.621   0.394 -0.9949  2.3022 -1.0677
   43MOL   H17817902   2.608   6.706   0.342  1.0066  0.0746 -0.4078
   43MOL   H17917903   2.655   6.465   0.256  0.6983  0.1837  0.6364
   43MOL   H18017904   2.465   6.379   0.481 -0.7018  1.6588 -0.3496
   43MOL   H18117905   2.401   6.415   0.325 -1.3994  1.4159  2.9192
   43MOL   H18217906   2.632   6.172   0.512  2.0657 -0.8137 -0.7506
   43MOL   H18317907   2.604   6.050   0.393 -4.9742  0.9709  0.3763
   43MOL   H18417908   2.710   6.186   0.350  1.3329 -1.3115  0.2656
   43MOL   H18517909   2.436   6.262   0.134  1.2162  0.8647 -1.1840
   43MOL   H18617910   2.604   6.228   0.150  0.2417  0.5470  1.2707
   43MOL   H18717911   2.504   6.097   0.164 -1.0524  0.2938  0.9318
   43MOL   H18817912   2.364   6.056   0.358 -1.3158  0.9395 -0.7324
   43MOL   H18917913   2.362   6.162   0.496 -0.0431 -0.4109 -0.1335
   43MOL   H19017914   2.278   6.216   0.359 -0.0968  0.5090 -0.3293
   43MOL   C19117915   2.694   6.495   0.481 -0.2938  0.7337 -0.2541
   43MOL   C19217916   2.832   6.556   0.465  0.9275  0.9860  0.1874
   43MOL   C19317917   2.922   6.451   0.399 -0.3680 -0.4111 -0.1207
   43MOL   C19417918   3.026   6.497   0.302 -0.1932  0.0004 -0.1376
   43MOL   C19517919   3.112   6.385   0.246  0.1878 -0.4145 -0.5890
   43MOL   C19617920   3.124   6.591   0.368 -0.4945  0.1883  0.2325
   43MOL   C19717921   2.957   6.564   0.181  0.1782  0.0652 -0.0545
   43MOL   H19817922   2.636   6.529   0.567 -1.0176 -1.6887  0.2474
   43MOL   H19917923   2.705   6.390   0.509  0.8576  1.0018  0.3213
   43MOL   H20017924   2.821   6.644   0.402 -1.1793 -0.2569 -1.2524
   43MOL   H20117925   2.868   6.372   0.348 -3.1410 -0.2598  2.3919
   43MOL   H20217926   2.969   6.397   0.481  0.7190  2.3295  1.1570
   43MOL   H20317927   3.205   6.432   0.214 -0.4620 -0.5259 -2.7174
   43MOL   H20417928   3.138   6.316   0.325 -0.6031 -0.5440 -0.4359
   43MOL   H20517929   3.080   6.324   0.161  1.9165 -0.1865 -1.4223
   43MOL   H20617930   3.074   6.671   0.421 -0.1738 -0.2977  1.2780
   43MOL   H20717931   3.194   6.548   0.439 -0.9861 -0.3069  0.4144
   43MOL   H20817932   3.198   6.634   0.299  0.6726  0.3644  1.5783
   43MOL   H20917933   2.892   6.490   0.134  0.4444 -1.7701  2.3759
   43MOL   H21017934   2.905   6.657   0.202  1.9992  1.0397  0.2741
   43MOL   H21117935   3.028   6.589   0.102  2.9777 -2.5998  1.5270
   43MOL   C21217936   2.883   6.604   0.605 -0.3621  0.1340  0.6228
   43MOL   C21317937   2.825   6.740   0.660 -0.0686  0.1286 -0.0512
   43MOL   C21417938   2.881   6.862   0.577  0.4727 -0.1194 -0.0999
   43MOL   C21517939   2.786   6.990   0.563  0.1282 -0.0778 -0.1702
   43MOL   C21617940   2.861   7.093   0.484 -0.4636 -0.7185  0.1641
   43MOL   C21717941   2.650   6.953   0.493 -0.4153 -0.8897 -0.2464
   43MOL   C21817942   2.741   7.047   0.698  0.2601 -1.0429  0.2295
   43MOL   H21917943   2.864   6.516   0.666 -0.7224 -0.3855 -0.2278
   43MOL   H22017944   2.991   6.614   0.616 -0.4417  0.7789  0.8592
   43MOL   H22117945   2.717   6.733   0.652 -0.1498 -0.2575  1.2050
   43MOL   H22217946   2.899   6.826   0.476 -0.8933  0.0285 -0.3986
   43MOL   H22317947   2.983   6.884   0.607  0.4612 -1.3999  0.9272
   43MOL   H22417948   2.885   7.064   0.381  0.4602 -0.0325  0.1815
   43MOL   H22517949   2.959   7.104   0.529 -0.7910 -0.7935  0.8901
   43MOL   H22617950   2.804   7.186   0.477 -1.2312 -1.2210 -0.4837
   43MOL   H22717951   2.588   7.040   0.475  2.4089  1.5532  1.3933
   43MOL   H22817952   2.668   6.901   0.399 -1.0330 -0.5893 -0.5329
   43MOL   H22917953   2.584   6.885   0.547 -0.1361 -0.9508  0.0182
   43MOL   H23017954   2.664   6.984   0.743  0.3498 -1.5833 -0.3644
   43MOL   H23117955   2.694   7.145   0.690 -1.3448 -1.8204 -0.0280
   43MOL   H23217956   2.821   7.056   0.772 -1.0352  1.1881  1.4013
   43MOL   C23317957   2.873   6.750   0.806  0.2623 -0.7401 -0.4794
   43MOL   C23417958   2.828   6.641   0.912  0.6048 -0.1101  0.0035
   43MOL   C23517959   2.887   6.672   1.050 -0.2190  0.2018  0.0294
   43MOL   C23617960   3.000   6.585   1.099 -0.7118 -0.7682 -0.1374
   43MOL   C23717961   2.972   6.432   1.100 -0.0812 -0.3147 -0.5657
   43MOL   C23817962   3.126   6.595   1.016 -1.1347 -0.1471  0.1625
   43MOL   C23917963   3.033   6.627   1.241  0.1408  0.3756  0.0340
   43MOL   H24017964   2.836   6.846   0.844 -1.7286 -1.1598 -1.2958
   43MOL   H24117965   2.981   6.757   0.814  0.2197  0.3465 -0.7787
   43MOL   H24217966   2.854   6.541   0.878  0.0500 -0.2818  0.0814
   43MOL   H24317967   2.928   6.772   1.062  0.7063 -0.2862  1.0796
   43MOL   H24417968   2.817   6.667   1.134  0.8383  1.5601  1.0265
   43MOL   H24517969   2.966   6.377   1.007 -0.6590 -0.8010 -0.2443
   43MOL   H24617970   2.876   6.422   1.150  0.6593  1.2361  1.2669
   43MOL   H24717971   3.060   6.379   1.137 -0.5075 -0.8592 -0.3269
   43MOL   H24817972   3.115   6.538   0.923  1.8632 -1.5277  0.5963
   43MOL   H24917973   3.154   6.698   0.994  0.6828 -0.5666  0.4078
   43MOL   H25017974   3.216   6.556   1.063  1.2028  1.2625 -2.9586
   43MOL   H25117975   3.086   6.551   1.299  1.7203  1.6998  0.3519
   43MOL   H25217976   3.075   6.726   1.256  0.1992  0.0431  2.3704
   43MOL   H25317977   2.938   6.612   1.293  0.2840  0.2899  0.2727
   43MOL   C25417978   2.673   6.626   0.911  0.2146  0.0067  0.0478
   43MOL   C25517979   2.601   6.521   1.003 -0.3137 -0.3214  0.2630
   43MOL   C25617980   2.499   6.439   0.933  0.1977 -0.2317 -0.1010
   43MOL   C25717981   2.552   6.295   0.893  0.5802  0.0559  0.1484
   43MOL   C25817982   2.442   6.223   0.809  0.6883 -0.2697  0.2693
   43MOL   C25917983   2.581   6.214   1.019  0.5047  0.4769 -0.0358
   43MOL   C26017984   2.690   6.308   0.814  0.3084  0.4496  0.4624
   43MOL   H26117985   2.647   6.595   0.810  2.4175  1.1153 -0.8962
   43MOL   H26217986   2.628   6.726   0.917  2.3775  0.9585  1.1832
   43MOL   H26317987   2.679   6.461   1.051  1.1742 -0.0430 -1.7654
   43MOL   H26417988   2.414   6.425   0.999 -0.3423  4.1522  0.2674
   43MOL   H26517989   2.454   6.494   0.850  0.5121  0.9412  0.4926
   43MOL   H26617990   2.347   6.189   0.848 -0.6079  0.9157 -1.7814
   43MOL   H26717991   2.482   6.129   0.771  0.9897 -0.0472  0.0292
   43MOL   H26817992   2.404   6.290   0.731  0.1650  0.2803  0.9864
   43MOL   H26917993   2.658   6.258   1.083  0.9329  0.4963 -0.5610
   43MOL   H27017994   2.614   6.116   0.987  0.8252  0.9094 -1.0567
   43MOL   H27117995   2.503   6.195   1.093  2.7504 -0.8235  2.0602
   43MOL   H27217996   2.774   6.347   0.871 -0.9279  0.8245  2.0833
   43MOL   H27317997   2.732   6.215   0.777 -2.0655 -0.0327 -1.1429
   43MOL   H27417998   2.666   6.374   0.731 -1.6240 -1.2716 -0.3989
   43MOL   C27517999   2.544   6.599   1.125 -0.7426 -1.0761 -0.2502
   43MOL   C27618000   2.517   6.513   1.258 -0.8058  0.2770 -0.8237
   43MOL   C27718001   2.645   6.511   1.350  0.1948  0.1797  0.0821
   43MOL   C27818002   2.664   6.387   1.445  0.5336  0.1608 -0.2829
   43MOL   C27918003   2.553   6.375   1.551  0.5175  0.0351  0.2567
   43MOL   C28018004   2.685   6.251   1.366 -0.7447 -0.0539  0.1521
   43MOL   C28118005   2.792   6.409   1.527  0.2824 -0.3039  0.9787
   43MOL   H28218006   2.610   6.680   1.157 -1.9572 -0.0671 -0.2503
   43MOL   H28318007   2.452   6.644   1.091 -0.1619 -0.6636 -1.2882
   43MOL   H28418008   2.492   6.412   1.225  0.0999  0.0450 -0.8024
   43MOL   H28518009   2.632   6.598   1.414  1.5083  1.3487 -1.2377
   43MOL   H28618010   2.732   6.527   1.288  0.2242  2.2058  0.6119
   43MOL   H28718011   2.462   6.348   1.497 -0.6768  0.2279  2.1063
   43MOL   H28818012   2.571   6.288   1.615  2.9858  0.4570  0.1685
   43MOL   H28918013   2.526   6.461   1.611  0.8017 -0.4212  1.0437
   43MOL   H29018014   2.710   6.172   1.437  2.8447  0.7361 -0.1511
   43MOL   H29118015   2.772   6.265   1.301 -1.1841  4.0419  0.3075
   43MOL   H29218016   2.611   6.207   1.299  0.0316 -1.0498 -0.0652
   43MOL   H29318017   2.877   6.439   1.467  1.1476  0.8967  2.7470
   43MOL   H29418018   2.827   6.315   1.571 -1.5082 -2.7290 -2.5782
   43MOL   H29518019   2.788   6.494   1.595  0.3329  0.6004 -0.1465
   43MOL   C29618020   2.389   6.570   1.328  0.3403 -0.1877 -0.9788
   43MOL   C29718021   2.248   6.511   1.283 -0.8503 -0.1802 -0.1174
   43MOL   C29818022   2.122   6.581   1.331 -0.7919  0.6646 -0.5811
   43MOL   C29918023   2.075   6.691   1.244  0.1246  0.0461  0.4126
   43MOL   C30018024   1.991   6.648   1.125 -0.0139  0.5773 -0.2904
   43MOL   C30118025   1.972   6.772   1.327 -0.4371 -0.0008 -0.9633
   43MOL   C30218026   2.183   6.784   1.196  0.5199  0.4581  0.5676
   43MOL   H30318027   2.378   6.677   1.312 -1.7811 -0.5521 -2.1936
   43MOL   H30418028   2.408   6.551   1.434 -0.0280 -2.4527 -1.2986
   43MOL   H30518029   2.241   6.518   1.174  1.5252  1.7857 -0.1863
   43MOL   H30618030   2.130   6.613   1.435  0.7758  0.5114 -0.6510
   43MOL   H30718031   2.039   6.512   1.340  0.4223 -0.8716 -1.0260
   43MOL   H30818032   2.047   6.583   1.057  0.2742 -1.2505  1.6308
   43MOL   H30918033   1.908   6.583   1.154  0.2462 -0.1326 -1.1267
   43MOL   H31018034   1.948   6.733   1.073 -1.4989 -1.0750 -1.8322
   43MOL   H31118035   1.930   6.860   1.280 -0.5963  0.8430  0.7129
   43MOL   H31218036   1.899   6.713   1.384 -1.8476  0.5571 -2.1491
   43MOL   H31318037   2.032   6.820   1.404 -1.0957 -0.7905  0.0672
   43MOL   H31418038   2.133   6.873   1.158 -0.4894 -1.1103 -1.9460
   43MOL   H31518039   2.251   6.818   1.274 -0.9107 -0.8544  2.4193
   43MOL   H31618040   2.244   6.742   1.116  1.2280  1.3545  0.6280
   43MOL   C31718041   2.243   6.357   1.305 -0.1131 -0.4642 -0.0131
   43MOL   C31818042   2.123   6.266   1.257  0.6235  0.0429 -0.3003
   43MOL   C31918043   2.107   6.268   1.101  0.0382  0.0811 -1.1271
   43MOL   C32018044   1.975   6.226   1.036 -0.1216 -0.4655 -0.0417
   43MOL   C32118045   1.973   6.296   0.901 -0.3327 -0.8755  0.0040
   43MOL   C32218046   1.863   6.275   1.114  0.2495  0.1164  0.6243
   43MOL   C32318047   1.971   6.072   1.019  0.5321 -0.2112  0.5065
   43MOL   H32418048   2.329   6.308   1.260  0.1866 -0.5813  0.6793
   43MOL   H32518049   2.264   6.348   1.412  0.7365 -0.7801 -0.2042
   43MOL   H32618050   2.039   6.306   1.314 -0.9070 -1.9054 -1.1075
   43MOL   H32718051   2.183   6.199   1.064  1.2982 -1.0462  3.2770
   43MOL   H32818052   2.133   6.367   1.065 -0.5658  0.5707 -0.2417
   43MOL   H32918053   2.062   6.286   0.840  0.5830  1.2534  0.9336
   43MOL   H33018054   1.954   6.404   0.903 -1.1779 -1.0354  1.3918
   43MOL   H33118055   1.886   6.253   0.853  1.1349 -1.6319 -2.0307
   43MOL   H33218056   1.775   6.228   1.069 -0.3361  0.3281  1.5180
   43MOL   H33318057   1.852   6.248   1.219  0.7337 -2.7031 -0.0215
   43MOL   H33418058   1.850   6.383   1.108 -0.9661 -0.0720 -0.4833
   43MOL   H33518059   1.891   6.035   0.955 -0.8637  1.2325  1.3757
   43MOL   H33618060   1.955   6.018   1.112  0.8793  0.2603  0.8434
   43MOL   H33718061   2.056   6.025   0.969 -0.7396 -1.0893 -0.8499
   43MOL   C33818062   2.142   6.113   1.303 -0.7785 -0.3928 -0.2196
   43MOL   C33918063   2.160   6.093   1.460 -0.1556  0.3963  0.3810
   43MOL   C34018064   2.224   5.957   1.494 -0.0268 -0.3582 -0.1896
   43MOL   C34118065   2.378   5.950   1.518  0.3505 -0.2121 -0.5115
   43MOL   C34218066   2.420   5.803   1.520  0.5057 -0.4891  0.1157
   43MOL   C34318067   2.455   6.028   1.407 -0.6392 -0.2013  0.2487
   43MOL   C34418068   2.432   6.013   1.643  0.1940  0.2018 -0.4612
   43MOL   H34518069   2.233   6.072   1.260  1.1300 -1.7938  4.7319
   43MOL   H34618070   2.060   6.047   1.278 -0.3815 -1.2505  0.7054
   43MOL   H34718071   2.239   6.157   1.498 -0.9339  0.7117  1.4811
   43MOL   H34818072   2.175   5.881   1.434  0.4107 -1.2216  0.5308
   43MOL   H34918073   2.180   5.928   1.590 -1.7471  1.1259 -0.5160
   43MOL   H35018074   2.347   5.745   1.577  1.2486 -0.9303  0.6334
   43MOL   H35118075   2.424   5.761   1.420  2.8409  1.3559 -0.6393
   43MOL   H35218076   2.523   5.785   1.551  1.0086  0.9353 -0.6607
   43MOL   H35318077   2.430   5.989   1.309  1.3091 -0.5427 -0.1429
   43MOL   H35418078   2.446   6.137   1.413 -0.0481 -0.1506  0.2786
   43MOL   H35518079   2.558   6.014   1.440 -0.4648  0.9043  0.2069
   43MOL   H35618080   2.419   5.957   1.736 -2.5673 -0.7081 -1.3569
   43MOL   H35718081   2.539   6.035   1.650  0.3351 -0.1979 -1.3347
   43MOL   H35818082   2.379   6.106   1.663 -1.9323 -1.0246 -0.2496
   43MOL   C35918083   2.027   6.114   1.533  0.1237  0.6792 -0.3082
   43MOL   C36018084   2.032   6.139   1.686 -0.1036  0.1149  0.1842
   43MOL   C36118085   1.888   6.128   1.745  0.0571  0.0086 -0.0598
   43MOL   C36218086   1.853   5.990   1.813 -0.7597  0.1053  0.2384
   43MOL   C36318087   1.838   5.870   1.719  0.4602  0.1577 -0.3222
   43MOL   C36418088   1.715   6.008   1.880 -0.4724  0.1985  0.5659
   43MOL   C36518089   1.955   5.949   1.918 -0.8990 -0.0473 -0.3815
   43MOL   H36618090   1.965   6.027   1.514  1.7838 -0.3316 -1.1789
   43MOL   H36718091   1.966   6.194   1.490 -0.8239 -1.2623 -2.7223
   43MOL   H36818092   2.092   6.059   1.729 -0.8557 -0.4018  0.2883
   43MOL   H36918093   1.877   6.201   1.826  0.5353 -2.0466  1.9047
   43MOL   H37018094   1.808   6.151   1.674 -0.5694  1.7883  1.1809
   43MOL   H37118095   1.758   5.881   1.645  0.4829 -1.6608 -0.6404
   43MOL   H37218096   1.934   5.849   1.672  0.0272  1.4787 -1.8804
   43MOL   H37318097   1.817   5.786   1.784 -0.4665  0.6823  0.0696
   43MOL   H37418098   1.634   6.058   1.827 -0.3274  2.7251  2.6525
   43MOL   H37518099   1.727   6.083   1.958 -0.3061  0.5880  0.1697
   43MOL   H37618100   1.683   5.917   1.931 -1.0479  0.6830  1.0772
   43MOL   H37718101   1.912   5.881   1.991 -3.0419  1.1563 -0.4901
   43MOL   H37818102   1.998   6.032   1.975  0.2474 -1.1473  0.3923
   43MOL   H37918103   2.034   5.897   1.864  0.8435  1.2091  0.8932
   43MOL   C38018104   2.105   6.267   1.728  0.1292  0.1200  0.1761
   43MOL   C38118105   2.119   6.293   1.882  0.3570 -0.2118  0.2846
   43MOL   C38218106   2.115   6.444   1.922  0.4229 -0.2985  0.2107
   43MOL   C38318107   1.979   6.509   1.942  0.0696  0.1833  0.1725
   43MOL   C38418108   1.997   6.654   2.008 -0.0250  0.6251 -0.2237
   43MOL   C38518109   1.886   6.431   2.038  0.1489  0.0877  0.4429
   43MOL   C38618110   1.905   6.528   1.808 -0.4584 -1.0920  0.2716
   43MOL   H38718111   2.066   6.351   1.670 -0.8243  0.1163  0.8064
   43MOL   H38818112   2.204   6.260   1.683 -0.4646  0.5676 -1.2486
   43MOL   H38918113   2.041   6.230   1.925 -0.0583  0.3364  0.3367
   43MOL   H39018114   2.173   6.465   2.012 -0.6784 -0.8697  1.0588
   43MOL   H39118115   2.171   6.497   1.845  1.2592 -0.4389  0.7055
   43MOL   H39218116   2.063   6.727   1.960 -0.0654  1.3450  0.8149
   43MOL   H39318117   1.898   6.697   2.022 -0.6511 -0.8035 -0.1965
   43MOL   H39418118   2.040   6.633   2.106  1.1986 -0.9875 -1.0689
   43MOL   H39518119   1.857   6.332   2.005 -1.1081  0.4258  0.4916
   43MOL   H39618120   1.790   6.475   2.066 -0.7168 -0.4421 -1.5522
   43MOL   H39718121   1.932   6.420   2.136  1.7056 -0.9246 -0.3815
   43MOL   H39818122   1.888   6.430   1.762 -0.3273 -1.2717  0.6056
   43MOL   H39918123   1.968   6.578   1.734 -2.4885  0.7951 -0.1959
   43MOL   H40018124   1.808   6.575   1.821 -0.7212 -1.0441 -1.6229
   43MOL   C40118125   2.248   6.222   1.934  0.4465 -0.4844  0.0026
   43MOL   C40218126   2.261   6.208   2.083  0.0354  0.7642 -0.3429
   43MOL   C40318127   2.374   6.109   2.130  0.7555  0.1243 -1.0490
   43MOL   C40418128   2.391   6.079   2.281  0.8511  0.2015 -0.4024
   43MOL   C40518129   2.290   5.969   2.324 -0.3285  0.2607 -0.3562
   43MOL   C40618130   2.361   6.214   2.363  0.0069  0.8464 -0.1489
   43MOL   C40718131   2.534   6.035   2.310 -0.2275 -0.0632  0.0055
   43MOL   H40818132   2.257   6.121   1.893  0.0015 -1.3220  1.9316
   43MOL   H40918133   2.332   6.282   1.897 -0.7761  0.6183 -1.0534
   43MOL   H41018134   2.283   6.294   2.147  0.3542 -1.2367  2.3240
   43MOL   H41118135   2.469   6.130   2.079  0.3979  1.6141 -1.1338
   43MOL   H41218136   2.342   6.014   2.087  0.8442  0.4777 -1.9101
   43MOL   H41318137   2.188   6.006   2.308  0.1129  1.7029  0.0288
   43MOL   H41418138   2.297   5.966   2.433  0.6223  1.9064 -0.3472
   43MOL   H41518139   2.295   5.873   2.274 -1.1705  0.4738 -0.8701
   43MOL   H41618140   2.390   6.208   2.468  1.1690 -2.5476 -0.6269
   43MOL   H41718141   2.254   6.234   2.374 -0.4239 -0.6098 -1.4930
   43MOL   H41818142   2.413   6.300   2.321  0.8104  0.9275  0.9976
   43MOL   H41918143   2.551   6.038   2.417 -1.3062 -1.0896  0.2155
   43MOL   H42018144   2.570   5.935   2.285  0.7273 -0.1406  1.6449
   43MOL   H42118145   2.600   6.117   2.282 -0.3454 -1.0945 -3.5407
   43MOL   H42218146   2.166   6.174   2.124  0.9343 -1.9182 -0.3956
   44MOL     C118147   1.226   1.856   2.620 -0.0863 -0.3842  0.0197
   44MOL     C218148   1.167   1.718   2.655  0.2959  0.4643 -0.7446
   44MOL     C318149   1.152   1.693   2.808  0.0022 -0.4351 -0.6115
   44MOL     C418150   1.004   1.696   2.864 -0.1865 -0.5938 -0.5116
   44MOL     C518151   0.922   1.572   2.819 -0.4713  0.3147 -0.5886
   44MOL     C618152   1.004   1.707   3.015 -0.3766  0.3134  0.6081
   44MOL     C718153   0.938   1.823   2.815 -0.0005  0.2238 -0.1466
   44MOL     H818154   1.149   1.932   2.631 -0.7970 -1.1258  0.2196
   44MOL     H918155   1.311   1.887   2.680  1.0575 -1.8204 -0.8349
   44MOL    H1018156   1.064   1.715   2.619 -0.3280 -3.9268  1.0979
   44MOL    H1118157   1.222   1.764   2.853 -1.4900 -0.1943  1.3864
   44MOL    H1218158   1.194   1.597   2.839  0.9033 -0.4711 -1.8699
   44MOL    H1318159   0.975   1.477   2.827  0.1647  0.4524 -2.9567
   44MOL    H1418160   0.888   1.602   2.720  2.6758  0.9050 -1.5324
   44MOL    H1518161   0.841   1.552   2.889  1.9184  0.9670  2.4743
   44MOL    H1618162   1.062   1.789   3.057 -0.6942  0.8061  0.0833
   44MOL    H1718163   0.898   1.712   3.036 -0.3787  0.3477  0.5890
   44MOL    H1818164   1.048   1.615   3.055  1.4457  0.1113 -1.7529
   44MOL    H1918165   0.908   1.824   2.711  0.6172 -1.7294 -0.3581
   44MOL    H2018166   1.009   1.904   2.830 -2.0280  1.8876  0.8356
   44MOL    H2118167   0.846   1.843   2.870 -0.8283 -0.5679 -1.2337
   44MOL    H2218168   1.253   1.867   2.515  3.8052 -1.6534  0.8227
   44MOL    C2318169   1.243   1.605   2.585 -0.1826  0.3522  0.6138
   44MOL    C2418170   1.212   1.579   2.434 -0.5222  0.1756  0.8180
   44MOL    C2518171   1.064   1.525   2.427  0.4927  0.0959 -0.1974
   44MOL    C2618172   0.966   1.582   2.314  0.5388 -0.5006  0.0537
   44MOL    C2718173   1.029   1.555   2.174  0.6574 -0.0538 -0.3910
   44MOL    C2818174   0.835   1.510   2.331  1.1908 -0.5895  0.9022
   44MOL    C2918175   0.947   1.735   2.331 -0.2035  1.2042 -0.5887
   44MOL    H3018176   1.351   1.612   2.594  0.2429 -1.6023 -2.2605
   44MOL    H3118177   1.239   1.508   2.635 -0.2916  0.2028  0.3184
   44MOL    H3218178   1.206   1.671   2.374 -0.9703 -0.3969 -0.0312
   44MOL    H3318179   1.018   1.519   2.526  0.3737  0.1369 -0.2506
   44MOL    H3418180   1.078   1.420   2.402  0.9164  0.2191 -0.4791
   44MOL    H3518181   0.975   1.603   2.092 -2.0521 -2.7071 -0.2763
   44MOL    H3618182   1.123   1.610   2.178 -0.8375  2.4827  1.0945
   44MOL    H3718183   1.049   1.450   2.156  0.8933  0.1235 -1.1864
   44MOL    H3818184   0.752   1.548   2.272 -0.2323 -2.6341  1.5318
   44MOL    H3918185   0.846   1.410   2.288  2.7708  0.3978 -1.0712
   44MOL    H4018186   0.798   1.501   2.433 -1.0856  1.0701  0.2624
   44MOL    H4118187   0.887   1.781   2.253 -0.1679  0.2871 -1.1642
   44MOL    H4218188   1.042   1.788   2.333 -0.3777  1.4882  0.7912
   44MOL    H4318189   0.903   1.761   2.427  0.0506 -1.2208  0.2030
   44MOL    C4418190   1.313   1.487   2.355  0.4578  0.7492  0.0496
   44MOL    C4518191   1.467   1.507   2.345  0.0751 -0.1883 -0.2477
   44MOL    C4618192   1.500   1.657   2.309 -0.0201 -0.2847  0.7753
   44MOL    C4718193   1.630   1.722   2.374  0.4644  0.0672 -0.2207
   44MOL    C4818194   1.759   1.641   2.331 -0.0646  0.3416  0.0372
   44MOL    C4918195   1.614   1.742   2.525  0.4167 -0.1052 -0.0715
   44MOL    C5018196   1.642   1.848   2.288  0.4439 -0.6383 -0.2639
   44MOL    H5118197   1.319   1.391   2.406  1.3356  1.3953  1.2020
   44MOL    H5218198   1.272   1.464   2.257  0.5420  1.2200 -0.0995
   44MOL    H5318199   1.509   1.479   2.441  1.7009  0.1095 -0.8630
   44MOL    H5418200   1.411   1.717   2.330  0.2591  1.0239 -1.6419
   44MOL    H5518201   1.508   1.663   2.201 -0.2570  0.4882  0.7932
   44MOL    H5618202   1.845   1.695   2.372 -0.2952 -1.1575  2.6390
   44MOL    H5718203   1.770   1.629   2.224  0.3656 -1.7567  0.3103
   44MOL    H5818204   1.769   1.544   2.380  1.4367 -0.1080 -1.1250
   44MOL    H5918205   1.545   1.826   2.540  0.6342 -0.1188  1.0736
   44MOL    H6018206   1.577   1.647   2.564  0.5411  0.0467  0.4287
   44MOL    H6118207   1.701   1.776   2.581  1.3669  0.0090 -1.6124
   44MOL    H6218208   1.727   1.909   2.318  1.1297 -0.6749 -2.0969
   44MOL    H6318209   1.658   1.827   2.182  0.2592  0.7644 -0.5745
   44MOL    H6418210   1.553   1.910   2.289  0.1466 -1.0682  1.4790
   44MOL    C6518211   1.506   1.406   2.229 -0.3563 -0.3210 -0.1196
   44MOL    C6618212   1.476   1.252   2.237  0.4396 -0.3271  0.2311
   44MOL    C6718213   1.575   1.174   2.142 -0.4132  0.1103  0.3630
   44MOL    C6818214   1.720   1.138   2.194  1.1611  0.4181 -0.2413
   44MOL    C6918215   1.810   1.259   2.218  0.1661 -0.4873 -0.1450
   44MOL    C7018216   1.707   1.056   2.327 -0.1485  0.4767  0.5077
   44MOL    C7118217   1.781   1.053   2.072  0.3736 -0.1854 -0.0190
   44MOL    H7218218   1.459   1.441   2.137  0.3901  1.6840  0.2261
   44MOL    H7318219   1.613   1.424   2.216 -1.1552  4.7388 -0.6855
   44MOL    H7418220   1.478   1.234   2.345  0.4043  1.2961  0.5089
   44MOL    H7518221   1.574   1.207   2.038  1.9016  0.7201  0.5132
   44MOL    H7618222   1.537   1.073   2.128 -1.0229  0.0530  2.2200
   44MOL    H7718223   1.912   1.219   2.220  0.2224 -0.8720 -4.7801
   44MOL    H7818224   1.813   1.332   2.137 -2.6094 -1.7478 -1.4505
   44MOL    H7918225   1.795   1.303   2.316 -1.3936  0.2114 -0.6934
   44MOL    H8018226   1.799   1.017   2.371 -2.9657 -3.4614  3.1967
   44MOL    H8118227   1.638   0.973   2.321 -1.1105  1.1689  1.8629
   44MOL    H8218228   1.665   1.122   2.402 -0.6578  0.0509  0.5924
   44MOL    H8318229   1.722   0.967   2.039 -0.6441 -0.4073  2.2865
   44MOL    H8418230   1.866   1.005   2.121 -1.2762 -1.4886  1.6411
   44MOL    H8518231   1.810   1.112   1.985  2.5101 -1.0433  0.0854
   44MOL    C8618232   1.332   1.220   2.182 -0.5430  0.1844 -0.0340
   44MOL    C8718233   1.279   1.080   2.159  0.9671  0.1951  0.2408
   44MOL    C8818234   1.128   1.088   2.117  0.1112 -0.0764 -0.2434
   44MOL    C8918235   1.095   1.079   1.962 -0.5045  0.3344 -0.7094
   44MOL    C9018236   0.943   1.082   1.936 -1.0551 -1.0171  0.3592
   44MOL    C9118237   1.140   0.946   1.897 -0.3748 -0.4730 -0.3659
   44MOL    C9218238   1.157   1.195   1.892 -0.4740 -0.8076 -0.1180
   44MOL    H9318239   1.331   1.277   2.089 -0.4207 -1.0109 -0.7752
   44MOL    H9418240   1.262   1.264   2.254  1.4764 -1.2246  2.8956
   44MOL    H9518241   1.334   1.024   2.083 -2.9103  0.3122 -2.8484
   44MOL    H9618242   1.089   1.182   2.156 -1.0279 -0.4746 -0.4108
   44MOL    H9718243   1.071   1.015   2.175  1.2135 -0.5055  0.3216
   44MOL    H9818244   0.914   1.068   1.832 -1.3375  1.6613  0.0256
   44MOL    H9918245   0.910   1.181   1.968  1.5016 -0.7858  2.4000
   44MOL   H10018246   0.880   1.010   1.987 -2.4571 -0.3997 -0.4713
   44MOL   H10118247   1.105   0.851   1.939  0.1355 -0.7151 -0.4902
   44MOL   H10218248   1.101   0.943   1.795 -0.9529  0.6148 -0.1884
   44MOL   H10318249   1.247   0.931   1.890 -0.0921  0.9702  0.7777
   44MOL   H10418250   1.265   1.188   1.901 -0.4812  0.8432  1.8281
   44MOL   H10518251   1.127   1.204   1.788 -0.6305 -0.0105 -0.0100
   44MOL   H10618252   1.130   1.286   1.946 -0.0513  0.3074 -1.7644
   44MOL   C10718253   1.304   0.999   2.289  0.2124  0.4194 -0.0729
   44MOL   C10818254   1.306   0.849   2.262 -0.3687  0.0280  0.3504
   44MOL   C10918255   1.451   0.801   2.222 -0.1139  0.4899 -0.1077
   44MOL   C11018256   1.461   0.684   2.127 -0.3148  0.1964 -0.3777
   44MOL   C11118257   1.392   0.565   2.188 -0.2919  0.0410 -0.6775
   44MOL   C11218258   1.606   0.642   2.107 -0.2485  0.3009 -0.5597
   44MOL   C11318259   1.396   0.719   1.987  0.0704 -0.3003 -0.5305
   44MOL   H11418260   1.220   1.012   2.357  0.5405 -2.1514  0.8888
   44MOL   H11518261   1.390   1.031   2.348 -1.3621  0.3601  2.2946
   44MOL   H11618262   1.234   0.833   2.182 -0.1491  1.4372 -0.1414
   44MOL   H11718263   1.510   0.878   2.173  0.5209  0.4877  0.6436
   44MOL   H11818264   1.506   0.775   2.313  0.5465 -1.8211 -1.1446
   44MOL   H11918265   1.382   0.473   2.130  0.2485 -1.7895  2.0786
   44MOL   H12018266   1.442   0.559   2.284 -1.7291  2.0259  0.2355
   44MOL   H12118267   1.286   0.586   2.207 -0.4398 -2.5778  1.6952
   44MOL   H12218268   1.664   0.722   2.061  0.1828 -0.3357 -1.1301
   44MOL   H12318269   1.615   0.550   2.048  3.5616  0.2436 -0.0560
   44MOL   H12418270   1.658   0.621   2.201 -1.1511  1.8358  0.2843
   44MOL   H12518271   1.435   0.815   1.952 -1.2300  0.8693  1.1240
   44MOL   H12618272   1.288   0.729   1.996  0.1247  2.0253 -2.0881
   44MOL   H12718273   1.423   0.635   1.923 -1.3180  0.6750 -2.4532
   44MOL   C12818274   1.262   0.781   2.399 -0.2835  0.7276  0.0349
   44MOL   C12918275   1.109   0.761   2.429 -0.4109  0.9945  0.0851
   44MOL   C13018276   1.041   0.634   2.361 -0.0807 -0.3585  0.0475
   44MOL   C13118277   0.918   0.663   2.257  0.3060  0.0988  0.5727
   44MOL   C13218278   0.973   0.727   2.130  0.1972 -0.4172  0.4612
   44MOL   C13318279   0.813   0.754   2.327  0.5238 -0.0072  0.4163
   44MOL   C13418280   0.848   0.531   2.216  0.5741 -0.0649 -0.0655
   44MOL   H13518281   1.303   0.838   2.483  0.1938 -2.1688  1.8579
   44MOL   H13618282   1.307   0.682   2.406  1.3643  1.4454  0.0569
   44MOL   H13718283   1.061   0.849   2.387 -1.4284  0.2772 -0.2753
   44MOL   H13818284   1.119   0.575   2.312  0.2189 -1.3533  1.6897
   44MOL   H13918285   1.001   0.567   2.437 -0.2584  1.7842  1.8560
   44MOL   H14018286   1.047   0.660   2.085 -0.7535 -0.7707 -0.6015
   44MOL   H14118287   1.025   0.821   2.149  0.6940 -0.9125  1.5642
   44MOL   H14218288   0.897   0.748   2.054  1.1795  0.6235 -0.2658
   44MOL   H14318289   0.840   0.859   2.331  1.0197 -0.0384 -1.4670
   44MOL   H14418290   0.802   0.728   2.432  2.3600  0.6949  0.8024
   44MOL   H14518291   0.720   0.754   2.271 -0.4785 -0.3332  2.0417
   44MOL   H14618292   0.793   0.535   2.123 -2.4933 -1.0989  1.6181
   44MOL   H14718293   0.916   0.446   2.214 -1.9107 -2.1135  0.2982
   44MOL   H14818294   0.774   0.504   2.292 -0.0788 -0.6597 -0.9036
   44MOL   C14918295   1.090   0.768   2.580  0.2741 -0.2362 -0.4146
   44MOL   C15018296   1.079   0.914   2.629 -0.5613 -0.4567 -0.4992
   44MOL   C15118297   0.933   0.971   2.621 -0.0806 -0.2427  0.5633
   44MOL   C15218298   0.901   1.114   2.582 -0.8273  0.3366  0.4360
   44MOL   C15318299   0.923   1.126   2.430  0.4383 -0.6070  0.1300
   44MOL   C15418300   0.978   1.223   2.657  0.2042 -0.0036  0.0306
   44MOL   C15518301   0.752   1.148   2.607  0.6023  0.3772  0.3637
   44MOL   H15618302   1.170   0.710   2.627  0.0142 -1.3608 -1.3120
   44MOL   H15718303   1.003   0.706   2.602  0.5794  0.1318  1.9982
   44MOL   H15818304   1.131   0.968   2.550  0.5952 -0.6251  0.1425
   44MOL   H15918305   0.883   0.946   2.715  0.0823 -1.9729  0.1986
   44MOL   H16018306   0.873   0.907   2.557 -0.4126  1.5906 -1.0048
   44MOL   H16118307   0.951   1.222   2.386  0.9289 -0.6198  0.4142
   44MOL   H16218308   1.011   1.067   2.403  0.6326 -0.1644 -0.2142
   44MOL   H16318309   0.841   1.076   2.378 -1.1835  1.9715  0.1647
   44MOL   H16418310   1.086   1.228   2.640  0.3717  0.6280  1.2104
   44MOL   H16518311   0.963   1.220   2.765  0.5364  0.3852  0.0876
   44MOL   H16618312   0.942   1.324   2.639  1.3817  0.3172 -0.5703
   44MOL   H16718313   0.686   1.070   2.569 -0.5304  0.8194  1.3941
   44MOL   H16818314   0.734   1.138   2.714 -1.4355 -0.2883 -0.0316
   44MOL   H16918315   0.721   1.250   2.583 -0.2603  0.0266 -0.0356
   44MOL   C17018316   1.149   0.948   2.762 -0.2725  0.0957 -0.3072
   44MOL   C17118317   1.101   0.884   2.889 -0.4861  0.7787  0.3153
   44MOL   C17218318   0.987   0.970   2.962 -0.3117  0.8909  0.3341
   44MOL   C17318319   0.870   0.886   3.035  0.4961  0.0698  0.1550
   44MOL   C17418320   0.927   0.829   3.168  0.4714 -0.3755 -0.0096
   44MOL   C17518321   0.803   0.772   2.952 -0.1739  0.0501  0.1141
   44MOL   C17618322   0.758   0.982   3.070  0.4025 -0.1358  0.2686
   44MOL   H17718323   1.170   1.054   2.770  1.4823 -0.1558 -1.2270
   44MOL   H17818324   1.253   0.918   2.751  0.0977  1.5693 -0.8672
   44MOL   H17918325   1.054   0.788   2.869  1.1886  0.0467 -0.1849
   44MOL   H18018326   1.037   1.026   3.041  2.5082 -0.0392 -0.7366
   44MOL   H18118327   0.950   1.039   2.887 -3.0247 -0.7090  0.1501
   44MOL   H18218328   0.993   0.893   3.226  0.4344 -0.0614 -0.3069
   44MOL   H18318329   0.852   0.785   3.234  1.1977  0.6980  1.5511
   44MOL   H18418330   0.971   0.733   3.143 -1.6401 -1.2367 -0.5903
   44MOL   H18518331   0.756   0.801   2.858  0.4102 -1.2206 -0.5824
   44MOL   H18618332   0.870   0.690   2.928 -0.2723  0.0081 -0.0205
   44MOL   H18718333   0.717   0.731   3.006 -0.4452  0.1348 -0.2514
   44MOL   H18818334   0.697   0.994   2.981 -1.4999 -1.7915  1.3134
   44MOL   H18918335   0.691   0.943   3.147 -0.2589  1.1025  0.3255
   44MOL   H19018336   0.803   1.081   3.082 -0.6881  0.5183 -0.9760
   44MOL   C19118337   1.218   0.854   2.988 -0.0668  0.0142  0.7665
   44MOL   C19218338   1.311   0.732   2.948  0.0267 -0.7867 -0.1898
   44MOL   C19318339   1.238   0.611   2.992 -0.4923  0.0248 -0.1357
   44MOL   C19418340   1.270   0.466   2.938 -0.0510 -0.7148  0.5547
   44MOL   C19518341   1.317   0.468   2.788 -1.0442 -0.5225 -0.4698
   44MOL   C19618342   1.138   0.381   2.940 -0.4410 -0.3871 -0.2279
   44MOL   C19718343   1.380   0.386   3.019  0.0364  0.3477  0.2462
   44MOL   H19818344   1.287   0.939   2.986 -0.5163  0.3451 -2.6076
   44MOL   H19918345   1.184   0.836   3.090 -2.5343  0.0603 -0.0294
   44MOL   H20018346   1.323   0.729   2.840 -1.4946 -0.1081 -0.3915
   44MOL   H20118347   1.136   0.626   2.959  0.0744  2.5680 -0.8525
   44MOL   H20218348   1.248   0.601   3.100 -1.4805 -1.7273 -0.1938
   44MOL   H20318349   1.414   0.518   2.783 -2.4271  2.6918  2.3750
   44MOL   H20418350   1.326   0.364   2.760  2.1894 -0.5453  0.4481
   44MOL   H20518351   1.246   0.509   2.716  0.5708  3.6690  0.1268
   44MOL   H20618352   1.104   0.366   3.043 -0.7309  0.2908 -0.2204
   44MOL   H20718353   1.051   0.424   2.890  0.5873  0.3768 -1.3935
   44MOL   H20818354   1.150   0.281   2.897  0.0344  0.0477 -1.1241
   44MOL   H20918355   1.384   0.279   3.004 -2.2825 -0.0200  1.9665
   44MOL   H21018356   1.483   0.409   2.991  0.2886 -0.9994  0.0497
   44MOL   H21118357   1.362   0.402   3.125 -0.0936  0.6738  0.1769
   44MOL   C21218358   1.452   0.750   3.015  0.2054 -0.3183  0.3077
   44MOL   C21318359   1.551   0.838   2.927  0.0559  0.1950  0.3773
   44MOL   C21418360   1.612   0.750   2.813  0.8793 -0.5812 -0.1165
   44MOL   C21518361   1.673   0.829   2.685 -0.1817 -0.7417  0.2553
   44MOL   C21618362   1.798   0.925   2.708  0.0225 -0.2312 -0.3472
   44MOL   C21718363   1.726   0.724   2.580  0.0560 -0.2822 -0.7534
   44MOL   C21818364   1.554   0.912   2.627  0.0880  0.2704  0.2443
   44MOL   H21918365   1.439   0.797   3.112  1.6474  1.5083 -0.3285
   44MOL   H22018366   1.497   0.656   3.046  1.7783  0.2097 -0.3308
   44MOL   H22118367   1.499   0.924   2.886 -0.0831  0.5068  1.1975
   44MOL   H22218368   1.533   0.687   2.771 -1.8025  1.8726  1.1278
   44MOL   H22318369   1.689   0.685   2.855  1.5471  0.3185  0.0652
   44MOL   H22418370   1.840   0.976   2.622  1.2283 -1.5982 -0.5856
   44MOL   H22518371   1.877   0.871   2.760  0.0222 -0.5592 -0.6846
   44MOL   H22618372   1.780   1.013   2.770  1.5204 -0.9731  1.1836
   44MOL   H22718373   1.646   0.660   2.543  0.3491 -0.9151 -0.2877
   44MOL   H22818374   1.774   0.778   2.498  0.7669 -1.1792 -0.9271
   44MOL   H22918375   1.802   0.659   2.622 -0.0595  0.5548  0.8097
   44MOL   H23018376   1.458   0.862   2.643 -0.1290  1.3629  2.5658
   44MOL   H23118377   1.574   0.925   2.520  0.7657 -1.8556  0.1050
   44MOL   H23218378   1.538   1.012   2.669  2.1256 -0.2054  2.2237
   44MOL   C23318379   1.658   0.887   3.026  0.3337  0.6224  0.3734
   44MOL   C23418380   1.618   1.016   3.094  0.0414  0.5551 -0.6710
   44MOL   C23518381   1.695   1.028   3.234  1.1062  0.1227  0.2105
   44MOL   C23618382   1.632   0.949   3.360 -0.5666  0.1085  0.1123
   44MOL   C23718383   1.639   0.795   3.355 -0.1601  0.6307 -0.7890
   44MOL   C23818384   1.720   0.983   3.489 -0.0658 -0.5746 -0.3926
   44MOL   C23918385   1.488   0.993   3.387 -1.1235  0.4802 -0.0638
   44MOL   H24018386   1.755   0.904   2.979 -0.7449 -0.5999 -2.4457
   44MOL   H24118387   1.680   0.811   3.101  0.1758 -2.0432 -2.1841
   44MOL   H24218388   1.510   1.028   3.107  0.2885  1.0358  0.9993
   44MOL   H24318389   1.797   0.991   3.219  0.4853 -1.3811 -0.4490
   44MOL   H24418390   1.705   1.134   3.256 -1.2242  0.6574 -1.0861
   44MOL   H24518391   1.572   0.751   3.281  2.0573 -1.3999 -1.6888
   44MOL   H24618392   1.609   0.760   3.454 -0.3627  3.0841  0.0562
   44MOL   H24718393   1.734   0.746   3.334 -1.4145 -1.5151 -1.6267
   44MOL   H24818394   1.822   0.953   3.466 -0.1947  0.6972 -2.8178
   44MOL   H24918395   1.709   1.092   3.495 -0.8843 -0.7165  0.7018
   44MOL   H25018396   1.679   0.936   3.578 -0.4142  1.0894  0.3458
   44MOL   H25118397   1.483   1.102   3.375 -3.0287  0.7321  2.5998
   44MOL   H25218398   1.413   0.936   3.333  2.0714 -1.3123 -2.8140
   44MOL   H25318399   1.466   0.971   3.491  1.2690  0.5594  0.4940
   44MOL   C25418400   1.660   1.128   2.993  0.3754  0.0896  0.4431
   44MOL   C25518401   1.616   1.271   3.021 -0.3171 -0.1623 -0.6913
   44MOL   C25618402   1.467   1.298   2.994 -0.3120  0.1705 -0.2392
   44MOL   C25718403   1.376   1.390   3.072 -0.3631  0.4789 -0.4509
   44MOL   C25818404   1.418   1.538   3.066 -0.0370 -0.2862  0.8223
   44MOL   C25918405   1.373   1.346   3.219  0.7038  0.1985 -0.1335
   44MOL   C26018406   1.231   1.376   3.007 -0.5595 -0.4261 -0.2436
   44MOL   H26118407   1.622   1.100   2.895  1.0326 -0.4387  0.3377
   44MOL   H26218408   1.767   1.118   2.978  0.5129  2.1647 -0.1445
   44MOL   H26318409   1.625   1.283   3.129 -1.0133  2.6183 -0.9018
   44MOL   H26418410   1.451   1.327   2.890 -2.5293  1.1589  0.3586
   44MOL   H26518411   1.427   1.196   2.997  0.0732  0.0063 -0.5087
   44MOL   H26618412   1.512   1.559   3.118 -0.2970 -0.6528  1.4486
   44MOL   H26718413   1.338   1.605   3.099 -0.5445 -0.2359 -0.4999
   44MOL   H26818414   1.430   1.567   2.962  2.2313  2.9215  1.9067
   44MOL   H26918415   1.474   1.358   3.259  0.7909 -0.1964 -0.2317
   44MOL   H27018416   1.339   1.248   3.251 -0.5966  0.9860  0.9662
   44MOL   H27118417   1.310   1.399   3.291  1.2337  0.5170  0.1102
   44MOL   H27218418   1.231   1.387   2.898 -1.4816 -2.7256 -0.5171
   44MOL   H27318419   1.178   1.282   3.022 -0.8725 -0.5903 -2.2193
   44MOL   H27418420   1.153   1.444   3.042 -1.2572 -1.2072 -0.2565
   44MOL   C27518421   1.704   1.375   2.941 -0.1149 -0.0024 -0.0679
   44MOL   C27618422   1.854   1.386   2.975 -0.7555  0.2828 -0.8021
   44MOL   C27718423   1.922   1.482   2.872  0.4444  0.3482 -0.3801
   44MOL   C27818424   1.982   1.431   2.735 -0.1137  0.6995  0.6136
   44MOL   C27918425   2.011   1.556   2.647  0.1097  0.3336 -0.5485
   44MOL   C28018426   2.115   1.358   2.768  0.2883  0.0738 -0.0763
   44MOL   C28118427   1.889   1.331   2.657 -0.6349  0.7823 -0.1562
   44MOL   H28218428   1.689   1.345   2.838 -0.9979 -1.6442  0.5226
   44MOL   H28318429   1.669   1.476   2.959 -0.2562  0.2632 -1.7457
   44MOL   H28418430   1.900   1.287   2.973  2.9328  1.9159 -1.5885
   44MOL   H28518431   2.004   1.530   2.925  1.2200  0.1999 -1.4311
   44MOL   H28618432   1.855   1.564   2.848  0.5657  0.4558 -0.3578
   44MOL   H28718433   2.105   1.599   2.682  1.2057 -2.6240  0.3893
   44MOL   H28818434   2.026   1.511   2.549  1.9076  0.2867 -0.2647
   44MOL   H28918435   1.935   1.634   2.647  1.6630  1.9636  2.6850
   44MOL   H29018436   2.155   1.413   2.853  1.2405 -0.4725 -0.1579
   44MOL   H29118437   2.182   1.360   2.682  1.6810  0.5280  0.9975
   44MOL   H29218438   2.095   1.253   2.784 -0.3054  0.1915 -0.0571
   44MOL   H29318439   1.933   1.301   2.563 -2.3534  1.2115 -1.1270
   44MOL   H29418440   1.791   1.374   2.637 -0.3101  2.9116  2.4750
   44MOL   H29518441   1.865   1.239   2.711  1.9721  0.4587  0.5368
   44MOL   C29618442   1.875   1.446   3.120  0.3971  0.3457 -0.9754
   44MOL   C29718443   2.009   1.413   3.189  0.2138 -0.4894 -0.0745
   44MOL   C29818444   2.003   1.259   3.228  0.4868  0.4122  0.1543
   44MOL   C29918445   2.135   1.185   3.201  0.0179  0.2368 -0.4460
   44MOL   C30018446   2.253   1.246   3.279  0.5004 -1.0455  0.0550
   44MOL   C30118447   2.098   1.047   3.264 -0.1472  0.2311  0.0686
   44MOL   C30218448   2.171   1.178   3.056 -0.6022  0.3906 -0.0332
   44MOL   H30318449   1.792   1.417   3.184  0.7221 -0.8482 -1.0805
   44MOL   H30418450   1.879   1.555   3.109  0.3005  0.3490 -0.9779
   44MOL   H30518451   2.083   1.427   3.111  1.1095 -1.4252  0.5997
   44MOL   H30618452   1.922   1.210   3.175 -0.6163  1.6700  0.6409
   44MOL   H30718453   1.961   1.254   3.329  1.6816 -0.9240  0.6102
   44MOL   H30818454   2.231   1.240   3.385 -1.5345 -0.2644 -0.2916
   44MOL   H30918455   2.345   1.190   3.261 -0.4752 -2.2405 -1.3336
   44MOL   H31018456   2.281   1.347   3.249  0.4787 -1.2305 -0.5946
   44MOL   H31118457   2.188   0.987   3.254  0.9623  1.4600  2.1143
   44MOL   H31218458   2.059   1.062   3.365 -1.6978  0.6311 -0.5737
   44MOL   H31318459   2.016   0.990   3.222  1.1183 -1.5272 -0.0738
   44MOL   H31418460   2.257   1.113   3.039 -0.7780  0.7353 -2.3401
   44MOL   H31518461   2.099   1.128   2.992  1.0230 -0.9692 -0.8466
   44MOL   H31618462   2.196   1.277   3.016 -0.1202  0.0620 -0.5490
   44MOL   C31718463   2.024   1.502   3.310 -0.3468 -0.0729 -0.0747
   44MOL   C31818464   2.080   1.645   3.288 -0.1197 -0.1715 -0.1893
   44MOL   C31918465   2.094   1.715   3.419  0.0044  0.3745  1.1150
   44MOL   C32018466   1.968   1.802   3.463 -0.6533  0.8037  0.4103
   44MOL   C32118467   1.834   1.730   3.462 -0.0599 -0.0578 -0.2121
   44MOL   C32218468   1.959   1.921   3.367  0.5129 -0.1998 -0.0643
   44MOL   C32318469   1.986   1.859   3.606 -0.2850  0.1008 -0.0915
   44MOL   H32418470   1.937   1.501   3.375  0.4401 -1.1264  1.0174
   44MOL   H32518471   2.104   1.459   3.371 -0.0363  1.1134  0.3562
   44MOL   H32618472   2.004   1.695   3.228 -0.6978  0.2831  0.9094
   44MOL   H32718473   2.188   1.770   3.410 -0.6952  1.4845  0.6063
   44MOL   H32818474   2.120   1.649   3.503  1.7291 -0.9784 -0.4333
   44MOL   H32918475   1.762   1.798   3.508 -2.1437 -1.1244 -1.8287
   44MOL   H33018476   1.846   1.642   3.526  0.0248  0.4487  0.4743
   44MOL   H33118477   1.811   1.699   3.360 -0.6624  2.0628 -0.7332
   44MOL   H33218478   2.046   1.986   3.354  2.2487 -2.3981  0.1725
   44MOL   H33318479   1.923   1.895   3.267 -1.0301 -0.5875  0.5812
   44MOL   H33418480   1.890   1.993   3.409  4.0778  4.0929 -1.1880
   44MOL   H33518481   2.077   1.918   3.599 -0.4012  0.5438  1.7483
   44MOL   H33618482   1.998   1.781   3.681  0.3776  2.0452  1.9011
   44MOL   H33718483   1.912   1.931   3.641 -1.0704 -0.7342 -0.0318
   44MOL   C33818484   2.219   1.650   3.214  0.7593 -0.2062  0.6078
   44MOL   C33918485   2.250   1.791   3.141 -0.7066  0.8176  0.2149
   44MOL   C34018486   2.181   1.808   3.006 -0.3715  0.1821 -0.6356
   44MOL   C34118487   2.160   1.946   2.947 -0.0380  0.2517 -0.9705
   44MOL   C34218488   2.291   2.001   2.885 -0.1735 -0.4162  0.2213
   44MOL   C34318489   2.061   1.930   2.828  0.3174 -0.4611 -0.1465
   44MOL   C34418490   2.091   2.051   3.037 -0.6500 -0.1791  0.7305
   44MOL   H34518491   2.230   1.584   3.128  1.1245  1.8131 -0.9597
   44MOL   H34618492   2.301   1.615   3.277  1.4785 -1.9780 -1.2621
   44MOL   H34718493   2.211   1.870   3.205  1.4707  2.2529 -0.1672
   44MOL   H34818494   2.083   1.763   3.024 -0.2992  0.1381 -0.3504
   44MOL   H34918495   2.234   1.751   2.930 -1.6345 -0.9835 -0.6654
   44MOL   H35018496   2.350   2.062   2.953 -2.0829  1.2990  0.4029
   44MOL   H35118497   2.349   1.920   2.840  2.2423  1.7583 -0.7244
   44MOL   H35218498   2.272   2.069   2.801 -0.5813  0.8479  1.3162
   44MOL   H35318499   2.110   1.863   2.758  0.8339 -1.5993  1.2695
   44MOL   H35418500   1.968   1.882   2.856 -1.1092  0.8878 -2.4692
   44MOL   H35518501   2.048   2.021   2.769  0.3727  0.7180  1.6134
   44MOL   H35618502   2.069   2.140   2.979  0.5039 -0.4498 -0.1377
   44MOL   H35718503   2.000   2.017   3.087 -1.6169 -0.1029 -0.9522
   44MOL   H35818504   2.167   2.072   3.112  1.5143 -0.7934 -1.2291
   44MOL   C35918505   2.408   1.822   3.130  0.2748 -0.1709  0.4229
   44MOL   C36018506   2.480   1.859   3.260  0.1119 -0.2111 -0.0501
   44MOL   C36118507   2.458   2.007   3.286 -0.4265  0.3007  0.6645
   44MOL   C36218508   2.464   2.071   3.430  0.1799 -0.6131  0.0105
   44MOL   C36318509   2.422   2.210   3.433  0.0180 -0.5241 -0.1674
   44MOL   C36418510   2.602   2.068   3.490 -0.0830  0.1219 -0.1119
   44MOL   C36518511   2.370   1.992   3.523 -0.1531 -0.5725 -0.6826
   44MOL   H36618512   2.432   1.892   3.050  0.1014  0.4972  0.9489
   44MOL   H36718513   2.447   1.728   3.092 -1.1406 -0.8926  0.7394
   44MOL   H36818514   2.431   1.809   3.343 -1.0949  0.5070 -0.3172
   44MOL   H36918515   2.524   2.070   3.226 -0.6663  0.7574  0.8795
   44MOL   H37018516   2.358   2.030   3.252 -1.0053 -0.2964  1.9082
   44MOL   H37118517   2.469   2.281   3.364 -3.3695  1.2738 -0.7944
   44MOL   H37218518   2.317   2.217   3.403  0.1877 -0.3118 -0.7207
   44MOL   H37318519   2.417   2.252   3.533 -2.7112  0.0253 -0.4780
   44MOL   H37418520   2.612   2.100   3.594 -0.0328  1.4104 -0.4953
   44MOL   H37518521   2.674   2.128   3.434 -1.6860  2.1636 -0.0546
   44MOL   H37618522   2.636   1.965   3.479 -1.2713 -0.2071 -0.7101
   44MOL   H37718523   2.346   2.043   3.616 -2.2669 -2.0195 -0.4000
   44MOL   H37818524   2.404   1.896   3.561 -2.3285 -0.6113  1.2959
   44MOL   H37918525   2.274   1.977   3.473  0.2323 -3.2934 -0.7063
   44MOL   C38018526   2.630   1.835   3.250  0.1100 -0.1097  0.2726
   44MOL   C38118527   2.679   1.699   3.306  0.4132  0.0305 -0.2594
   44MOL   C38218528   2.660   1.690   3.464 -0.2809  0.1476  0.1534
   44MOL   C38318529   2.654   1.550   3.540  0.3604 -0.7668  0.4586
   44MOL   C38418530   2.542   1.559   3.649 -0.2024  0.2718 -0.0986
   44MOL   C38518531   2.786   1.504   3.606 -0.3229 -0.1258  0.2401
   44MOL   C38618532   2.606   1.445   3.436  0.5423  0.2491  0.0111
   44MOL   H38718533   2.696   1.912   3.291  0.4337  0.3230 -1.0414
   44MOL   H38818534   2.646   1.836   3.142 -0.3849  0.7648  0.2005
   44MOL   H38918535   2.623   1.622   3.253  0.9081 -0.6634  0.2098
   44MOL   H39018536   2.742   1.745   3.510 -1.1361  0.3570  1.4516
   44MOL   H39118537   2.567   1.744   3.483 -0.7009 -0.1844 -0.9464
   44MOL   H39218538   2.544   1.655   3.701  0.3156 -0.0879  0.5622
   44MOL   H39318539   2.445   1.562   3.600 -0.6596 -0.1954  0.7505
   44MOL   H39418540   2.544   1.475   3.719  0.1115  1.2943  1.1368
   44MOL   H39518541   2.814   1.596   3.658  1.5097 -0.9836  0.8044
   44MOL   H39618542   2.861   1.461   3.540 -0.1241  1.1129 -0.3360
   44MOL   H39718543   2.767   1.426   3.680  3.4289 -0.2177  1.1982
   44MOL   H39818544   2.507   1.455   3.392 -0.5160 -3.9050  1.2020
   44MOL   H39918545   2.607   1.345   3.480 -0.9319 -0.0124 -0.5240
   44MOL   H40018546   2.677   1.441   3.353  0.2335 -2.1552 -0.1652
   44MOL   C40118547   2.823   1.683   3.277  0.2104  0.7544 -1.5996
   44MOL   C40218548   2.871   1.663   3.132  1.0512  0.1417  0.1254
   44MOL   C40318549   3.020   1.699   3.112  0.0074 -0.5913  0.0603
   44MOL   C40418550   3.088   1.699   2.976 -0.5320  0.2988  0.0699
   44MOL   C40518551   3.095   1.560   2.915  0.7615 -0.2617 -0.7500
   44MOL   C40618552   3.236   1.763   2.987  0.1979  0.8245  0.0683
   44MOL   C40718553   3.010   1.798   2.883 -0.3830 -0.4129  0.0684
   44MOL   H40818554   2.872   1.771   3.319 -1.1818  0.8733 -0.1775
   44MOL   H40918555   2.842   1.595   3.338 -1.8912  1.1947 -0.2473
   44MOL   H41018556   2.847   1.564   3.093  1.2187  0.0920  0.1478
   44MOL   H41118557   3.074   1.647   3.191  1.6113  0.4149 -0.3732
   44MOL   H41218558   3.026   1.799   3.154  0.5687 -0.8111  0.5059
   44MOL   H41318559   3.136   1.560   2.814  2.7189 -1.2493  0.0096
   44MOL   H41418560   2.996   1.515   2.907 -0.2392  1.9143 -0.7997
   44MOL   H41518561   3.167   1.494   2.965  0.0575  1.3465  2.5171
   44MOL   H41618562   3.234   1.866   3.022  0.9397  0.7935  0.2188
   44MOL   H41718563   3.282   1.765   2.888  0.9339  1.3025  0.4143
   44MOL   H41818564   3.311   1.708   3.043  2.6264  0.0698 -3.6980
   44MOL   H41918565   2.998   1.897   2.925  0.1454 -0.3997  0.2001
   44MOL   H42018566   3.057   1.809   2.785 -1.1298  1.0158 -0.1412
   44MOL   H42118567   2.912   1.773   2.843 -0.6015 -2.3329  1.7139
   44MOL   H42218568   2.804   1.727   3.074  1.6244  0.0071 -0.6965
   45MOL     C118569   7.500   3.856   2.749 -0.6710 -0.5764  0.2863
   45MOL     C218570   7.357   3.794   2.760  0.2378  0.8649 -0.2087
   45MOL     C318571   7.270   3.880   2.854 -0.2182 -0.2796  0.0016
   45MOL     C418572   7.128   3.899   2.812 -0.7566  0.6832  0.3376
   45MOL     C518573   7.056   3.986   2.910 -0.1839  0.5772  0.1225
   45MOL     C618574   7.111   3.960   2.672  0.1757 -0.5153  0.1964
   45MOL     C718575   7.047   3.764   2.808  0.0039  0.8508  0.6104
   45MOL     H818576   7.543   3.853   2.849  1.3851 -1.1039 -0.5881
   45MOL     H918577   7.559   3.800   2.677  1.0715 -1.3173  2.2274
   45MOL    H1018578   7.318   3.789   2.658 -1.7744 -1.4059  0.6238
   45MOL    H1118579   7.317   3.978   2.855 -1.2656  0.2270  0.9732
   45MOL    H1218580   7.285   3.833   2.951  0.9785 -0.2581 -0.1674
   45MOL    H1318581   7.058   3.945   3.011  0.1183 -0.4379 -0.2864
   45MOL    H1418582   6.955   4.003   2.875 -0.7083 -0.9915  0.8706
   45MOL    H1518583   7.116   4.077   2.916 -1.6942  1.6383 -0.5798
   45MOL    H1618584   7.007   3.979   2.645  0.4393 -0.2634 -0.6624
   45MOL    H1718585   7.160   4.055   2.654 -1.9431  0.2780 -1.6742
   45MOL    H1818586   7.135   3.887   2.594  2.3421 -1.8378  2.0475
   45MOL    H1918587   7.065   3.713   2.903  0.1646  1.7988  1.0968
   45MOL    H2018588   7.075   3.712   2.717  0.7056  1.3215  0.5498
   45MOL    H2118589   6.940   3.781   2.800 -0.2910 -0.4861  1.5582
   45MOL    H2218590   7.497   3.960   2.718 -0.0521 -0.1826  1.5159
   45MOL    C2318591   7.356   3.642   2.810  0.0399 -0.4148 -0.3113
   45MOL    C2418592   7.406   3.543   2.701  0.2998 -0.0300 -0.5730
   45MOL    C2518593   7.305   3.517   2.586 -0.2191  0.8017  0.4566
   45MOL    C2618594   7.357   3.507   2.439  0.2256 -0.4442  0.0789
   45MOL    C2718595   7.414   3.631   2.382  0.5851  0.3843  0.4406
   45MOL    C2818596   7.468   3.399   2.424 -0.1520 -0.1838  0.0691
   45MOL    C2918597   7.236   3.461   2.356  0.8679 -0.4345  0.2365
   45MOL    H3018598   7.426   3.632   2.893  1.3465  0.1910 -1.3435
   45MOL    H3118599   7.261   3.615   2.857  0.8447 -1.2615  0.8419
   45MOL    H3218600   7.506   3.571   2.671  0.6834 -1.1871 -0.4079
   45MOL    H3318601   7.235   3.600   2.577  0.2751  1.2408  0.6604
   45MOL    H3418602   7.234   3.435   2.603  1.2696 -0.9239 -1.4424
   45MOL    H3518603   7.337   3.704   2.358 -0.8639 -0.6221  1.9002
   45MOL    H3618604   7.471   3.675   2.464 -1.4595  1.5642  1.2575
   45MOL    H3718605   7.477   3.620   2.294  0.1424  1.9852 -0.0880
   45MOL    H3818606   7.430   3.306   2.467  0.7212  0.0423  1.3571
   45MOL    H3918607   7.494   3.376   2.321 -1.3175  0.0939 -0.2939
   45MOL    H4018608   7.559   3.437   2.470  1.0863 -1.3194 -1.4189
   45MOL    H4118609   7.151   3.526   2.374 -0.2040 -2.2994  2.1104
   45MOL    H4218610   7.201   3.358   2.368 -0.5919 -0.1373 -1.2642
   45MOL    H4318611   7.256   3.472   2.249 -0.4295 -0.3291  0.0006
   45MOL    C4418612   7.432   3.402   2.761 -0.3900 -0.2243  0.8840
   45MOL    C4518613   7.560   3.364   2.839  0.4768  0.0356  0.7449
   45MOL    C4618614   7.688   3.350   2.755  0.6017 -0.3393 -0.5331
   45MOL    C4718615   0.039   3.443   2.790 -0.6292  0.0487 -0.7859
   45MOL    C4818616   0.152   3.414   2.693  0.3934 -0.3318  0.1047
   45MOL    C4918617   0.079   3.420   2.936 -0.1155  0.5178  0.4784
   45MOL    C5018618   0.005   3.594   2.763 -0.5246 -0.4586  0.4469
   45MOL    H5118619   7.340   3.366   2.807 -0.8957  1.2962  1.0801
   45MOL    H5218620   7.438   3.335   2.676  1.6374  0.3869  0.5224
   45MOL    H5318621   7.581   3.447   2.907  1.5807  1.1711 -0.9344
   45MOL    H5418622   7.664   3.350   2.649 -0.6939 -0.1227 -0.2551
   45MOL    H5518623   7.727   3.248   2.766  1.3439 -0.3738 -3.1478
   45MOL    H5618624   0.181   3.309   2.692  0.2634 -0.3670 -2.6470
   45MOL    H5718625   0.238   3.478   2.717 -0.1685 -0.1150  1.6083
   45MOL    H5818626   0.129   3.435   2.589  1.1472 -0.7409 -0.1509
   45MOL    H5918627   0.155   3.494   2.960  0.0494 -0.0265  1.6709
   45MOL    H6018628   0.000   3.440   3.009  0.8825 -2.6375  2.4980
   45MOL    H6118629   0.119   3.322   2.963  0.5043  0.3281 -1.0998
   45MOL    H6218630   7.680   3.625   2.815 -0.0058  1.6203  0.1612
   45MOL    H6318631   0.083   3.657   2.803  0.9085 -0.8939 -1.5584
   45MOL    H6418632   7.753   3.619   2.658 -0.1919  1.2958  0.7863
   45MOL    C6518633   7.536   3.245   2.930  0.0050  0.4462 -0.5815
   45MOL    C6618634   7.438   3.257   3.048 -0.8397  0.3126 -0.3336
   45MOL    C6718635   7.510   3.336   3.161 -0.3822  0.2212  0.3582
   45MOL    C6818636   7.425   3.425   3.253  0.6837  0.5446 -0.3681
   45MOL    C6918637   7.319   3.344   3.325  0.1195  0.4063 -0.7494
   45MOL    C7018638   7.522   3.490   3.358 -0.2867 -0.0104 -1.4043
   45MOL    C7118639   7.371   3.534   3.164 -0.0847  0.3132 -0.2103
   45MOL    H7218640   7.495   3.169   2.864  0.6681 -0.0398 -0.4452
   45MOL    H7318641   7.630   3.197   2.955 -0.3665  1.3278  2.7662
   45MOL    H7418642   7.346   3.305   3.016 -2.6059 -2.8327 -0.1495
   45MOL    H7518643   7.586   3.396   3.112  0.3394 -0.2055  0.9590
   45MOL    H7618644   7.562   3.272   3.232  0.9720 -1.7387 -2.3212
   45MOL    H7718645   7.366   3.273   3.393  1.4411  0.6924 -1.3500
   45MOL    H7818646   7.244   3.395   3.386 -0.2747  0.9004 -1.6394
   45MOL    H7918647   7.261   3.292   3.249 -2.5036 -0.4082  1.7027
   45MOL    H8018648   7.610   3.527   3.304  1.6581 -0.5499  1.2835
   45MOL    H8118649   7.554   3.420   3.435 -2.0905  2.2283  1.4790
   45MOL    H8218650   7.487   3.580   3.408  0.1692 -1.6133  1.9089
   45MOL    H8318651   7.300   3.495   3.092 -1.1255  0.9238  0.4818
   45MOL    H8418652   7.448   3.586   3.106 -0.8525 -0.6465 -2.0940
   45MOL    H8518653   7.318   3.606   3.226  0.9629  0.4300  0.5761
   45MOL    C8618654   7.407   3.115   3.098 -0.6141  0.4268 -0.3376
   45MOL    C8718655   7.293   3.030   3.042  0.3091  0.1615 -0.4518
   45MOL    C8818656   7.319   2.871   3.071 -0.6865 -0.3862  0.2678
   45MOL    C8918657   7.241   2.816   3.200 -0.8837  0.3781 -0.5536
   45MOL    C9018658   7.088   2.806   3.166 -0.1461  0.3505 -0.5816
   45MOL    C9118659   7.264   2.906   3.322 -0.2825 -0.1588 -0.0805
   45MOL    C9218660   7.295   2.680   3.234 -0.7990  0.1913  0.2132
   45MOL    H9318661   7.389   3.122   3.205 -2.5139  0.6482 -0.6534
   45MOL    H9418662   7.496   3.058   3.072  1.3129  2.8475  0.7968
   45MOL    H9518663   7.203   3.075   3.084  0.1137 -0.1671 -0.5124
   45MOL    H9618664   7.426   2.850   3.075 -1.0655 -2.1551  1.6966
   45MOL    H9718665   7.284   2.815   2.984  0.7525  0.9582 -1.1987
   45MOL    H9818666   7.025   2.771   3.248  0.9514  0.3224  0.2574
   45MOL    H9918667   7.072   2.737   3.084 -1.0177 -0.6959  0.4341
   45MOL   H10018668   7.055   2.902   3.127  1.1197  1.3748  0.7926
   45MOL   H10118669   7.367   2.941   3.331  0.2450 -1.5105 -0.7896
   45MOL   H10218670   7.207   2.999   3.319  1.5456  0.9911 -0.0447
   45MOL   H10318671   7.252   2.860   3.420  2.4227  0.0486  0.3715
   45MOL   H10418672   7.274   2.623   3.144 -0.2959  0.3898 -0.0327
   45MOL   H10518673   7.403   2.690   3.240 -0.9149  1.0525  1.0080
   45MOL   H10618674   7.246   2.634   3.320  0.1579  0.3303  0.8445
   45MOL   C10718675   7.270   3.047   2.886  0.9968 -0.3746  0.8047
   45MOL   C10818676   7.130   3.002   2.824 -0.2382 -0.4836  0.0650
   45MOL   C10918677   7.066   3.124   2.749  1.0631 -0.4366 -0.3683
   45MOL   C11018678   6.960   3.211   2.817  0.7961 -0.3182  0.1869
   45MOL   C11118679   6.830   3.125   2.836  0.2556 -0.2006 -0.2514
   45MOL   C11218680   6.938   3.341   2.737  0.0385  0.2188 -0.1408
   45MOL   C11318681   7.002   3.264   2.951  1.0376 -0.5397  0.8627
   45MOL   H11418682   7.355   2.992   2.845  0.1153  0.1328 -1.7862
   45MOL   H11518683   7.285   3.151   2.857  1.4099 -0.6975 -0.1643
   45MOL   H11618684   7.062   2.970   2.903 -2.8869 -0.3806 -2.0934
   45MOL   H11718685   7.148   3.187   2.716  1.5760  0.6637  2.7991
   45MOL   H11818686   7.023   3.086   2.656  0.3752 -3.0841  0.9772
   45MOL   H11918687   6.801   3.071   2.746 -1.1603 -0.1221  0.1368
   45MOL   H12018688   6.822   3.052   2.916 -0.9559 -1.6935 -1.7052
   45MOL   H12118689   6.738   3.183   2.849 -0.2503 -0.9225 -0.5564
   45MOL   H12218690   6.875   3.416   2.786 -2.4755 -1.2235 -1.0849
   45MOL   H12318691   6.893   3.326   2.639 -0.0148  2.6324 -0.5370
   45MOL   H12418692   7.023   3.399   2.700  1.6853 -1.3218  1.1952
   45MOL   H12518693   6.931   3.327   3.004 -2.2481 -1.7162 -1.9647
   45MOL   H12618694   7.086   3.332   2.937 -1.3947  2.9788  2.5598
   45MOL   H12718695   7.028   3.192   3.029 -0.5237 -1.0895  0.8868
   45MOL   C12818696   7.156   2.883   2.729  0.2154 -0.2097  0.2506
   45MOL   C12918697   7.036   2.797   2.688 -0.3032 -0.2485 -0.4040
   45MOL   C13018698   7.090   2.705   2.578  0.3802 -0.6304  0.0888
   45MOL   C13118699   7.059   2.749   2.435  0.3640  0.0626 -0.3614
   45MOL   C13218700   6.914   2.710   2.400 -0.7481 -0.1657  0.5044
   45MOL   C13318701   7.159   2.685   2.339 -0.1382  0.6002 -1.0182
   45MOL   C13418702   7.080   2.903   2.402 -1.0362  0.3330 -0.4298
   45MOL   H13518703   7.231   2.823   2.781  0.3708  0.0410  0.3179
   45MOL   H13618704   7.195   2.917   2.633 -2.1061 -0.2455 -0.7402
   45MOL   H13718705   6.956   2.860   2.648  0.2164  0.0487 -0.9678
   45MOL   H13818706   7.199   2.699   2.579  0.4401  0.2086 -0.6928
   45MOL   H13918707   7.056   2.603   2.598 -0.3221 -0.7220 -1.5059
   45MOL   H14018708   6.899   2.711   2.292  1.0532  0.0854  0.2521
   45MOL   H14118709   6.853   2.787   2.447 -0.3347  0.6235 -0.2433
   45MOL   H14218710   6.880   2.616   2.443 -1.0811  0.3505  1.3769
   45MOL   H14318711   7.135   2.704   2.235  0.9106  3.3610 -0.7876
   45MOL   H14418712   7.154   2.576   2.347  0.6222  0.6012 -0.4825
   45MOL   H14518713   7.262   2.718   2.341  0.1095 -0.1112 -1.5972
   45MOL   H14618714   7.024   2.972   2.465  1.7108  2.3445 -0.0994
   45MOL   H14718715   7.187   2.921   2.416 -0.3506 -2.2279 -2.1144
   45MOL   H14818716   7.062   2.942   2.302  0.0287  0.4336 -0.5942
   45MOL   C14918717   6.979   2.724   2.807  0.0097  0.2442  0.6869
   45MOL   C15018718   6.855   2.642   2.784 -0.8170 -0.6488  0.0140
   45MOL   C15118719   6.853   2.530   2.901  0.6398  0.2157 -0.8225
   45MOL   C15218720   6.888   2.377   2.852 -0.2355  0.2572 -0.1617
   45MOL   C15318721   6.778   2.329   2.748 -0.8772  0.7626 -0.0268
   45MOL   C15418722   6.886   2.277   2.972 -0.1266 -0.2044 -0.6253
   45MOL   C15518723   7.029   2.359   2.790  0.6068  0.3439  0.4182
   45MOL   H15618724   6.957   2.797   2.885  1.7879  2.2335 -0.6349
   45MOL   H15718725   7.062   2.665   2.847  2.9405  1.8868 -2.7152
   45MOL   H15818726   6.860   2.593   2.687  0.0194  0.6942 -0.6438
   45MOL   H15918727   6.753   2.529   2.946  1.5183 -1.9804  1.1445
   45MOL   H16018728   6.915   2.537   2.991 -1.3968 -0.1043  0.6473
   45MOL   H16118729   6.794   2.225   2.720 -1.2311  0.2196  1.7090
   45MOL   H16218730   6.680   2.341   2.794 -0.0010  2.4661  1.4425
   45MOL   H16318731   6.779   2.381   2.653  2.0665  0.6727 -0.0873
   45MOL   H16418732   6.808   2.306   3.042 -0.0905 -0.8730 -0.3058
   45MOL   H16518733   6.981   2.296   3.021 -0.5252 -1.5897  0.7267
   45MOL   H16618734   6.884   2.173   2.940 -1.2172 -0.3189 -0.2051
   45MOL   H16718735   7.109   2.411   2.843  0.8492  0.3142  0.0875
   45MOL   H16818736   7.058   2.254   2.796 -0.1509  0.2126  1.8059
   45MOL   H16918737   7.050   2.389   2.687 -0.6575  0.1788  0.1080
   45MOL   C17018738   6.734   2.729   2.777  0.4071  0.5707  0.0254
   45MOL   C17118739   6.604   2.662   2.718 -0.0833 -0.6922  0.0757
   45MOL   C17218740   6.607   2.644   2.562  0.4021 -0.3441 -0.3137
   45MOL   C17318741   6.495   2.581   2.476  0.4225 -0.5069 -0.3043
   45MOL   C17418742   6.366   2.669   2.460  0.0119 -0.6456  0.5011
   45MOL   C17518743   6.457   2.444   2.539 -0.4060  0.1660  0.1420
   45MOL   C17618744   6.544   2.553   2.333  0.4531 -0.0586  0.6187
   45MOL   H17718745   6.754   2.826   2.731 -0.4943  0.9260  0.3630
   45MOL   H17818746   6.714   2.760   2.880  2.8119  0.9715  0.4016
   45MOL   H17918747   6.598   2.562   2.759  3.0579 -1.4438 -1.1172
   45MOL   H18018748   6.642   2.740   2.524  0.1373 -0.6296 -1.2910
   45MOL   H18118749   6.686   2.572   2.540  0.6783  0.0252 -0.5361
   45MOL   H18218750   6.378   2.765   2.411 -0.2455 -0.2782  1.1475
   45MOL   H18318751   6.291   2.628   2.392  0.5169 -1.4170  0.3942
   45MOL   H18418752   6.311   2.684   2.553 -0.8212 -1.5793  0.1822
   45MOL   H18518753   6.543   2.377   2.530 -0.3298  0.3869 -0.9320
   45MOL   H18618754   6.409   2.441   2.636  0.3249  1.2703  0.5444
   45MOL   H18718755   6.379   2.404   2.474  1.9591 -1.8737 -1.5409
   45MOL   H18818756   6.587   2.638   2.280  2.3990 -0.5768  1.3450
   45MOL   H18918757   6.622   2.479   2.317 -1.3875 -1.4685 -2.2031
   45MOL   H19018758   6.466   2.511   2.269  0.2814  0.6323  0.3695
   45MOL   C19118759   6.478   2.740   2.769 -0.3972 -0.4411 -0.1254
   45MOL   C19218760   6.446   2.742   2.925  0.2189 -0.2037 -0.7298
   45MOL   C19318761   6.485   2.881   2.986  0.1501 -0.0211  0.6701
   45MOL   C19418762   6.379   3.000   2.986  0.0702 -0.0902  0.0532
   45MOL   C19518763   6.451   3.139   3.019  0.8433  0.5149 -0.2669
   45MOL   C19618764   6.264   2.977   3.085  0.4170 -0.9332 -0.3045
   45MOL   C19718765   6.314   3.009   2.846 -0.4022  0.5561  0.3808
   45MOL   H19818766   6.486   2.841   2.728 -0.0842 -0.6713 -0.6175
   45MOL   H19918767   6.388   2.689   2.736 -0.8894  0.8973 -0.9009
   45MOL   H20018768   6.338   2.748   2.931  0.0782 -0.3595 -2.6691
   45MOL   H20118769   6.578   2.917   2.942 -0.3571  2.7907  1.7476
   45MOL   H20218770   6.508   2.868   3.092 -0.6070 -1.5641  0.6524
   45MOL   H20318771   6.489   3.130   3.120  0.3415 -1.2501 -0.2144
   45MOL   H20418772   6.539   3.159   2.958  1.5917 -0.2486  0.5524
   45MOL   H20518773   6.386   3.227   3.015  0.8229  0.4786 -0.7977
   45MOL   H20618774   6.305   2.972   3.186  1.6766  1.1963 -0.6903
   45MOL   H20718775   6.198   3.062   3.100  1.4459  0.0553 -1.2315
   45MOL   H20818776   6.222   2.877   3.071 -4.1300  0.5856  1.7216
   45MOL   H20918777   6.227   3.076   2.846  0.3566  1.6002 -2.1787
   45MOL   H21018778   6.382   3.052   2.772 -0.4387  0.4643  0.2951
   45MOL   H21118779   6.269   2.920   2.804  0.9605  0.8845 -1.8847
   45MOL   C21218780   6.492   2.633   3.018  0.2963  1.3483 -0.6049
   45MOL   C21318781   6.388   2.595   3.129 -0.2610  0.0014 -0.3717
   45MOL   C21418782   6.461   2.527   3.254 -0.7270 -0.1820 -0.0760
   45MOL   C21518783   6.534   2.618   3.357  0.2051  0.6620 -0.0896
   45MOL   C21618784   6.468   2.752   3.378  0.6314 -0.6138  0.5300
   45MOL   C21718785   6.543   2.538   3.495 -0.3502 -0.6466 -0.4126
   45MOL   C21818786   6.686   2.644   3.314 -0.8591 -0.6022 -0.5644
   45MOL   H21918787   6.517   2.543   2.963  0.5729  0.8955  0.2456
   45MOL   H22018788   6.584   2.659   3.071 -1.0093  2.1248  1.3521
   45MOL   H22118789   6.330   2.679   3.166 -1.6501 -0.1341 -2.1450
   45MOL   H22218790   6.521   2.443   3.222 -0.7486  0.5456 -2.0482
   45MOL   H22318791   6.393   2.470   3.318  1.3684 -1.9551  0.6064
   45MOL   H22418792   6.368   2.748   3.421  1.0483 -2.8671  1.3427
   45MOL   H22518793   6.474   2.802   3.281  1.5366  0.6303  1.2065
   45MOL   H22618794   6.525   2.810   3.451 -1.9146 -1.3412  3.1871
   45MOL   H22718795   6.578   2.435   3.482  0.3511 -0.3811 -0.6565
   45MOL   H22818796   6.621   2.578   3.560 -0.3845 -0.1673 -0.6594
   45MOL   H22918797   6.459   2.556   3.561  0.9642 -1.3009  1.5060
   45MOL   H23018798   6.739   2.562   3.267 -0.2005 -0.1644 -0.5962
   45MOL   H23118799   6.738   2.682   3.401  0.2942 -0.6154 -1.2448
   45MOL   H23218800   6.687   2.723   3.238 -1.2758 -0.3317 -0.2903
   45MOL   C23318801   6.280   2.495   3.070 -0.2418  0.1237  0.0382
   45MOL   C23418802   6.172   2.439   3.167  0.2180 -0.5048  0.2812
   45MOL   C23518803   6.070   2.541   3.220  0.3648 -0.3564 -0.3664
   45MOL   C23618804   6.015   2.532   3.365 -0.3388  0.5431  0.2249
   45MOL   C23718805   5.944   2.658   3.394 -0.0151 -0.6288 -0.5953
   45MOL   C23818806   5.918   2.418   3.391 -0.3528 -0.6722  0.1636
   45MOL   C23918807   6.127   2.524   3.465 -1.0517  0.6897 -0.0956
   45MOL   H24018808   6.333   2.402   3.050  1.1440  0.6507  1.1575
   45MOL   H24118809   6.239   2.535   2.977 -1.9288 -1.0620  0.2452
   45MOL   H24218810   6.225   2.387   3.247 -1.8171 -2.0279  0.6719
   45MOL   H24318811   6.127   2.633   3.207 -0.1169 -0.1784 -1.2432
   45MOL   H24418812   5.985   2.543   3.152 -0.4736 -1.8555  0.6024
   45MOL   H24518813   6.011   2.744   3.387 -0.4051 -0.2378  0.4757
   45MOL   H24618814   5.901   2.658   3.494 -0.4096 -0.3648 -0.7680
   45MOL   H24718815   5.856   2.673   3.332 -1.0398  1.7833  1.3823
   45MOL   H24818816   5.959   2.317   3.396 -0.8381 -0.9132 -0.6393
   45MOL   H24918817   5.857   2.426   3.481 -0.3564 -2.0906  0.3097
   45MOL   H25018818   5.847   2.416   3.308 -0.1573 -1.0302  0.0019
   45MOL   H25118819   6.078   2.540   3.561  0.0347  2.7019  0.1729
   45MOL   H25218820   6.180   2.429   3.465  0.4367  1.4716 -1.7173
   45MOL   H25318821   6.200   2.604   3.454  1.3508 -1.5224 -0.8045
   45MOL   C25418822   6.084   2.332   3.096 -0.0406 -0.1552 -0.1985
   45MOL   C25518823   6.166   2.194   3.078 -0.1154 -0.6491 -0.6134
   45MOL   C25618824   6.120   2.108   2.954  0.1330  0.1607 -0.2356
   45MOL   C25718825   6.118   2.142   2.805 -0.5310  0.6638 -0.2201
   45MOL   C25818826   6.260   2.187   2.766  0.0747  0.2148 -0.1472
   45MOL   C25918827   6.014   2.249   2.773  0.3731 -0.5078  0.0435
   45MOL   C26018828   6.073   2.007   2.736 -0.0235 -0.1853  0.5673
   45MOL   H26118829   6.070   2.378   2.998  1.7740  2.7362  0.8452
   45MOL   H26218830   5.986   2.313   3.140  0.7433 -2.0780  0.7935
   45MOL   H26318831   6.273   2.208   3.064 -0.0123  2.2439  2.3646
   45MOL   H26418832   6.185   2.021   2.956  0.0808  0.0334 -2.4174
   45MOL   H26518833   6.022   2.065   2.975  1.2061 -1.8204  0.7496
   45MOL   H26618834   6.262   2.211   2.660  0.2257  1.6642  0.1662
   45MOL   H26718835   6.320   2.099   2.787  2.1880  1.8767  1.1261
   45MOL   H26818836   6.291   2.272   2.828 -2.1882  0.6481  0.4347
   45MOL   H26918837   6.007   2.258   2.665 -2.3013 -2.2905  0.0214
   45MOL   H27018838   6.059   2.344   2.801 -1.3088  0.0667  0.8565
   45MOL   H27118839   5.912   2.245   2.813  0.0692 -0.1143 -0.6941
   45MOL   H27218840   6.152   1.933   2.752  1.4507  1.3940  0.7113
   45MOL   H27318841   5.979   1.964   2.771  0.0275 -0.5024  0.3233
   45MOL   H27418842   6.067   2.033   2.630  0.0850  3.4438  1.4001
   45MOL   C27518843   6.150   2.118   3.207 -0.2482  0.0181  0.0479
   45MOL   C27618844   6.275   2.041   3.243 -0.0144 -0.7297 -0.2228
   45MOL   C27718845   6.410   2.126   3.246 -0.0467 -0.0003  0.0271
   45MOL   C27818846   6.538   2.059   3.182  0.1380 -0.7956 -0.7007
   45MOL   C27918847   6.657   2.128   3.241  0.3956 -0.3447 -0.2124
   45MOL   C28018848   6.546   1.909   3.211  0.4068 -0.7783  0.9613
   45MOL   C28118849   6.538   2.075   3.028 -0.5244 -0.4979 -0.4771
   45MOL   H28218850   6.108   2.176   3.290  1.0401  0.4905  0.3747
   45MOL   H28318851   6.070   2.043   3.209  1.0136 -1.3401  0.3975
   45MOL   H28418852   6.280   1.957   3.174  0.2380 -0.9921  0.1122
   45MOL   H28518853   6.431   2.138   3.352 -1.9774 -2.0632  0.6663
   45MOL   H28618854   6.403   2.228   3.210  0.0139  0.1815  0.5365
   45MOL   H28718855   6.742   2.071   3.204  0.2426 -1.0567  0.5165
   45MOL   H28818856   6.661   2.232   3.207 -0.6495  0.4450  1.9903
   45MOL   H28918857   6.652   2.116   3.349  1.6923 -1.4204 -0.2669
   45MOL   H29018858   6.464   1.869   3.151  0.6374  0.4355 -0.2009
   45MOL   H29118859   6.522   1.881   3.313  0.9211 -0.0140  1.2966
   45MOL   H29218860   6.639   1.858   3.183 -1.0180 -3.0843  0.3602
   45MOL   H29318861   6.446   2.032   2.989 -0.7172 -0.2850 -0.2625
   45MOL   H29418862   6.626   2.032   2.981  1.2321 -0.7189  2.8532
   45MOL   H29518863   6.551   2.180   3.002  0.7298 -0.4669  0.2640
   45MOL   C29618864   6.253   1.975   3.380  0.0444  0.7635 -0.1055
   45MOL   C29718865   6.179   1.842   3.396 -0.3003  0.7811  0.1046
   45MOL   C29818866   6.123   1.831   3.543  0.3335  0.0142 -0.2228
   45MOL   C29918867   5.974   1.869   3.570 -0.4262  0.6761 -0.2889
   45MOL   C30018868   5.924   2.003   3.499  0.4569 -0.2464 -0.6755
   45MOL   C30118869   5.883   1.764   3.510 -0.0631  0.5408  0.3625
   45MOL   C30218870   5.949   1.883   3.722 -0.7995  0.6958  0.3435
   45MOL   H30318871   6.205   2.043   3.450  1.9610  2.4372 -0.3916
   45MOL   H30418872   6.349   1.959   3.429 -0.3374  4.0414  1.7740
   45MOL   H30518873   6.094   1.837   3.329 -0.3192 -1.5813  0.2872
   45MOL   H30618874   6.188   1.883   3.613  2.4465  0.7766 -2.6671
   45MOL   H30718875   6.128   1.727   3.575 -0.4693 -0.6718 -2.2119
   45MOL   H30818876   5.926   1.988   3.391 -0.9351 -0.7293 -0.6507
   45MOL   H30918877   5.827   2.046   3.524  0.4600 -0.3155 -0.5434
   45MOL   H31018878   5.992   2.084   3.524  0.2208 -0.7984  1.9577
   45MOL   H31118879   5.901   1.736   3.406  2.0024  1.3599  0.4673
   45MOL   H31218880   5.889   1.664   3.552 -0.1805 -0.1251 -1.1419
   45MOL   H31318881   5.782   1.802   3.518  0.7485  2.8216  0.1226
   45MOL   H31418882   5.955   1.783   3.765 -1.2615  0.8632  0.7987
   45MOL   H31518883   6.015   1.942   3.785 -0.1922 -0.4358  0.7661
   45MOL   H31618884   5.851   1.928   3.737 -0.5233  1.6145 -0.5244
   45MOL   C31718885   6.260   1.718   3.355  0.6238 -0.0294 -0.8229
   45MOL   C31818886   6.190   1.610   3.275 -0.1681  0.4134  0.1179
   45MOL   C31918887   6.175   1.656   3.127 -0.5111 -0.4856 -0.4802
   45MOL   C32018888   6.053   1.613   3.040 -0.1586  0.2011 -0.1934
   45MOL   C32118889   6.066   1.457   3.009 -0.3056 -0.7584  0.4197
   45MOL   C32218890   6.061   1.685   2.904 -0.4997  0.1286 -0.8023
   45MOL   C32318891   5.926   1.647   3.105 -0.2377 -0.2209  0.4638
   45MOL   H32418892   6.350   1.737   3.297  0.9326 -0.5645 -0.5261
   45MOL   H32518893   6.293   1.683   3.453  0.8705  2.0515 -0.1363
   45MOL   H32618894   6.090   1.578   3.306 -0.3749  0.3697 -0.5935
   45MOL   H32718895   6.267   1.635   3.072  0.9251  0.6390  1.4497
   45MOL   H32818896   6.170   1.764   3.123  1.3948  0.0425  5.6579
   45MOL   H32918897   6.161   1.427   2.965 -0.2674 -0.1580  0.0861
   45MOL   H33018898   5.985   1.422   2.945  0.3011 -0.1353 -0.7161
   45MOL   H33118899   6.052   1.406   3.104 -1.4121  0.6339  1.0335
   45MOL   H33218900   6.159   1.691   2.858 -0.9148  0.1357 -1.7019
   45MOL   H33318901   5.980   1.661   2.836 -0.2475  0.4249 -1.2124
   45MOL   H33418902   6.046   1.791   2.925  1.7937  1.0325 -3.4633
   45MOL   H33518903   5.840   1.631   3.040  0.5521 -1.0724 -0.3921
   45MOL   H33618904   5.924   1.753   3.129  0.3264  0.5073 -2.5100
   45MOL   H33718905   5.912   1.582   3.192  1.6384 -0.9769  0.2134
   45MOL   C33818906   6.273   1.471   3.292  0.0322 -0.3425 -0.5708
   45MOL   C33918907   6.282   1.406   3.433  0.1043 -0.5492 -0.0019
   45MOL   C34018908   6.165   1.432   3.528 -0.0814 -0.0956  0.4835
   45MOL   C34118909   6.047   1.331   3.540 -0.3602 -0.0219  0.1725
   45MOL   C34218910   6.086   1.184   3.570 -0.3150 -0.3702 -0.3432
   45MOL   C34318911   5.954   1.377   3.654  0.1390 -0.2668 -0.6637
   45MOL   C34418912   5.963   1.333   3.410 -0.4928  0.2861  0.1873
   45MOL   H34518913   6.373   1.494   3.257 -0.0194  1.0944  0.1702
   45MOL   H34618914   6.239   1.395   3.221 -1.3458 -3.5171  3.2754
   45MOL   H34718915   6.279   1.299   3.411 -0.7788 -0.3821 -0.6936
   45MOL   H34818916   6.134   1.536   3.530  1.8246  0.5600 -1.5591
   45MOL   H34918917   6.205   1.412   3.627 -0.0687 -1.2340  0.2572
   45MOL   H35018918   6.127   1.180   3.671 -0.1672 -1.5468 -0.4433
   45MOL   H35118919   6.006   1.110   3.567 -0.2961 -0.3782 -0.6149
   45MOL   H35218920   6.154   1.145   3.495  0.3463  1.0678 -0.5184
   45MOL   H35318921   5.940   1.485   3.662 -1.7815 -0.5089 -0.6005
   45MOL   H35418922   5.855   1.333   3.657  0.3298 -0.6278  0.9287
   45MOL   H35518923   6.009   1.359   3.747 -0.8386 -0.6583 -0.1567
   45MOL   H35618924   5.876   1.268   3.419  2.1586 -3.5595 -0.7844
   45MOL   H35718925   5.932   1.433   3.381  1.2617  0.4591 -1.1753
   45MOL   H35818926   6.022   1.292   3.328 -0.2149 -3.3305  2.0991
   45MOL   C35918927   6.418   1.441   3.501  0.6336 -0.1260 -0.0926
   45MOL   C36018928   6.504   1.320   3.539  0.6950 -0.3933 -0.5090
   45MOL   C36118929   6.560   1.254   3.414 -0.3110 -0.7354  0.4377
   45MOL   C36218930   6.712   1.282   3.370  1.0104  0.7256 -0.6343
   45MOL   C36318931   6.731   1.202   3.234 -0.1113 -0.7157 -0.3340
   45MOL   C36418932   6.811   1.232   3.476 -0.2090 -0.2702  0.2407
   45MOL   C36518933   6.735   1.431   3.339  0.3727 -0.2941  0.3688
   45MOL   H36618934   6.385   1.495   3.589 -0.3393 -1.9892  0.7053
   45MOL   H36718935   6.482   1.506   3.441  0.5705  0.3891  0.3888
   45MOL   H36818936   6.590   1.366   3.590  0.5949  0.2886 -0.9425
   45MOL   H36918937   6.566   1.146   3.433  1.5150 -0.4419  1.6168
   45MOL   H37018938   6.486   1.258   3.334 -1.8098 -0.3091  1.8168
   45MOL   H37118939   6.834   1.170   3.220  0.2285  0.6780 -1.1068
   45MOL   H37218940   6.671   1.111   3.233 -0.9194 -0.2097  0.1412
   45MOL   H37318941   6.697   1.254   3.145 -0.7186 -1.3361 -0.4691
   45MOL   H37418942   6.797   1.130   3.509  1.0361 -0.3702  0.4875
   45MOL   H37518943   6.812   1.293   3.566 -0.3498  2.6152 -1.6003
   45MOL   H37618944   6.914   1.241   3.442 -0.4338  0.0356 -0.3883
   45MOL   H37718945   6.663   1.468   3.266  1.3652  1.7986  0.3998
   45MOL   H37818946   6.832   1.458   3.297 -0.4797  2.0619 -0.1691
   45MOL   H37918947   6.728   1.506   3.419  0.3846  1.0445 -0.8642
   45MOL   C38018948   6.431   1.226   3.641  0.4645 -0.0186 -0.0108
   45MOL   C38118949   6.514   1.116   3.708  0.4647 -0.1773 -0.1976
   45MOL   C38218950   6.425   1.032   3.796 -0.2559  0.0119 -0.1921
   45MOL   C38318951   6.377   0.889   3.748  0.0031  0.1414  0.0069
   45MOL   C38418952   6.262   0.847   3.839 -0.3474  0.0387 -0.0029
   45MOL   C38518953   6.490   0.787   3.768 -0.0941  0.6375 -0.1550
   45MOL   C38618954   6.329   0.888   3.603  0.2729  0.0103 -1.0394
   45MOL   H38718955   6.350   1.174   3.590  0.8413 -0.6896  0.0705
   45MOL   H38818956   6.381   1.279   3.721 -0.9201 -0.4292 -0.5892
   45MOL   H38918957   6.557   1.052   3.631  1.6388  0.0747  0.2387
   45MOL   H39018958   6.482   1.007   3.885  1.3709 -0.3560 -1.2995
   45MOL   H39118959   6.345   1.098   3.827 -1.5051 -1.3504 -0.4459
   45MOL   H39218960   6.179   0.917   3.827 -0.4070  0.2506  1.6533
   45MOL   H39318961   6.233   0.751   3.795  1.8270 -1.4318  1.6834
   45MOL   H39418962   6.273   0.840   3.947 -1.7267  0.4656  0.1768
   45MOL   H39518963   6.448   0.686   3.759  0.3591  0.4050  0.3030
   45MOL   H39618964   6.530   0.782   3.869 -1.5761 -0.7059  0.3975
   45MOL   H39718965   6.574   0.804   3.700  0.6538  0.2491  0.6601
   45MOL   H39818966   6.410   0.906   3.533  4.3491 -0.0424  3.3784
   45MOL   H39918967   6.251   0.964   3.596 -2.3661 -2.2326  2.2985
   45MOL   H40018968   6.269   0.804   3.566  1.2482 -0.9407 -0.4865
   45MOL   C40118969   6.622   1.180   3.796 -0.4424  0.4077  0.6046
   45MOL   C40218970   6.596   1.288   3.906  0.0270  0.4270  0.0183
   45MOL   C40318971   6.735   1.348   3.952 -0.1752 -0.1105 -0.2548
   45MOL   C40418972   6.737   1.451   4.067  1.3498 -0.2393 -0.4155
   45MOL   C40518973   6.886   1.486   4.095 -0.4277  0.3547  0.1427
   45MOL   C40618974   6.674   1.394   4.197  0.0930  0.3162  0.4020
   45MOL   C40718975   6.654   1.579   4.040 -0.0175 -0.0942  0.0265
   45MOL   H40818976   6.693   1.107   3.833 -1.3881 -0.6794  0.2997
   45MOL   H40918977   6.691   1.235   3.732  0.1759  1.2845  2.0158
   45MOL   H41018978   6.538   1.372   3.868 -0.3590  0.8522  1.5021
   45MOL   H41118979   6.778   1.402   3.868  1.1178  1.0835  1.1400
   45MOL   H41218980   6.807   1.268   3.968 -0.4313 -0.7078 -2.0324
   45MOL   H41318981   6.888   1.562   4.172 -0.4206  0.6034 -0.1032
   45MOL   H41418982   6.928   1.521   4.001  0.7782 -0.2008  0.4580
   45MOL   H41518983   6.931   1.391   4.125 -1.0916 -0.4353 -1.2828
   45MOL   H41618984   6.702   1.440   4.292  0.1195  0.3841  0.3615
   45MOL   H41718985   6.702   1.289   4.200 -2.5676 -0.4167  1.7981
   45MOL   H41818986   6.566   1.383   4.206  0.0889 -0.0125 -0.0076
   45MOL   H41918987   6.657   1.638   4.132 -0.4028 -1.6060  1.0182
   45MOL   H42018988   6.708   1.630   3.960 -0.8218 -1.3507 -1.3351
   45MOL   H42118989   6.549   1.570   4.013  0.5464 -1.6436 -1.7612
   45MOL   H42218990   6.536   1.246   3.987  0.0928 -1.0277 -0.6716
   46MOL     C118991   5.522   3.571   5.491  0.1967 -0.4227  0.7711
   46MOL     C218992   5.544   3.706   5.411  0.0302  0.3552  0.0493
   46MOL     C318993   5.656   3.692   5.299 -0.3461  0.2738 -0.1508
   46MOL     C418994   5.622   3.622   5.163  0.5158 -0.0405 -0.7327
   46MOL     C518995   5.581   3.474   5.182  0.5152 -0.3100  0.2052
   46MOL     C618996   5.506   3.697   5.097 -0.0005 -0.6788  0.1634
   46MOL     C718997   5.758   3.623   5.077 -0.5643  0.3252 -0.0799
   46MOL     H818998   5.487   3.485   5.435 -0.8598  0.4541  0.0576
   46MOL     H918999   5.612   3.530   5.536  2.2027  1.3453 -1.5457
   46MOL    H1019000   5.454   3.735   5.356 -0.0088  0.4977  0.1869
   46MOL    H1119001   5.737   3.637   5.347 -0.8081  0.9029  1.3702
   46MOL    H1219002   5.697   3.790   5.272  1.0330 -0.6042 -1.3174
   46MOL    H1319003   5.656   3.419   5.238 -0.6290 -2.5817 -0.4052
   46MOL    H1419004   5.569   3.415   5.091  0.5435 -1.2423  0.7986
   46MOL    H1519005   5.494   3.458   5.246  0.4943  1.6353  0.6890
   46MOL    H1619006   5.489   3.658   4.997  1.2125  0.7054 -0.5941
   46MOL    H1719007   5.411   3.689   5.151  1.2395 -4.9071  1.9144
   46MOL    H1819008   5.527   3.803   5.081 -0.7170 -0.3433  1.3994
   46MOL    H1919009   5.784   3.728   5.089 -1.6055  0.7289 -1.2426
   46MOL    H2019010   5.741   3.595   4.973  1.3218 -1.4165  0.0578
   46MOL    H2119011   5.830   3.546   5.103 -0.5180  0.5383  0.4256
   46MOL    H2219012   5.443   3.586   5.565 -1.0636  0.6355 -0.7658
   46MOL    C2319013   5.556   3.820   5.517  0.3045  0.0293 -0.0888
   46MOL    C2419014   5.540   3.962   5.458  0.1910  0.2187 -0.3376
   46MOL    C2519015   5.618   4.065   5.542 -0.3574 -0.1419  0.1241
   46MOL    C2619016   5.776   4.086   5.529  0.3321  0.0883 -0.6967
   46MOL    C2719017   5.796   4.159   5.395  0.1761  0.1402  0.5266
   46MOL    C2819018   5.829   4.179   5.642 -0.2719 -0.3908  0.5422
   46MOL    C2919019   5.852   3.948   5.538  0.3394  1.0516  0.3435
   46MOL    H3019020   5.494   3.813   5.606 -0.0170  1.5154 -0.1851
   46MOL    H3119021   5.649   3.822   5.574  0.3490  1.9391 -0.1701
   46MOL    H3219022   5.573   3.959   5.354  2.5387 -0.1260  0.3854
   46MOL    H3319023   5.603   4.050   5.649 -3.5560 -0.0600 -0.2610
   46MOL    H3419024   5.574   4.162   5.517  2.2114  0.5046 -2.2516
   46MOL    H3519025   5.902   4.183   5.391  0.6332 -1.6675  1.1723
   46MOL    H3619026   5.762   4.092   5.316  0.9048 -0.9612  1.1233
   46MOL    H3719027   5.740   4.252   5.385 -0.5845 -0.5652 -2.0830
   46MOL    H3819028   5.786   4.278   5.629  4.5119  1.8747  0.8926
   46MOL    H3919029   5.814   4.140   5.743  0.2566  0.6852  1.0478
   46MOL    H4019030   5.937   4.191   5.630 -0.6082  0.6485 -1.7883
   46MOL    H4119031   5.959   3.954   5.523  0.3227 -0.9559 -0.7554
   46MOL    H4219032   5.813   3.895   5.451  1.3301 -0.0247  0.5513
   46MOL    H4319033   5.824   3.893   5.627  0.2500 -1.0377 -0.9512
   46MOL    C4419034   5.388   4.012   5.446  0.2529  0.1547  0.0796
   46MOL    C4519035   5.368   4.124   5.333  0.0304  0.2360  0.0441
   46MOL    C4619036   5.234   4.203   5.355 -0.3083 -0.2358 -0.5948
   46MOL    C4719037   5.251   4.350   5.418  0.4304 -0.1634 -0.3914
   46MOL    C4819038   5.338   4.453   5.321  1.3038 -0.0963 -0.8214
   46MOL    C4919039   5.317   4.342   5.552 -0.3222 -0.4191  0.7971
   46MOL    C5019040   5.113   4.405   5.442  0.2660 -0.0992 -0.3615
   46MOL    H5119041   5.326   3.929   5.411  1.7069 -1.3757  1.0416
   46MOL    H5219042   5.344   4.043   5.541 -0.5945  0.5320 -0.4317
   46MOL    H5319043   5.450   4.195   5.337  1.2126 -1.1417  0.6366
   46MOL    H5419044   5.155   4.153   5.413 -0.1454 -0.1472 -0.2962
   46MOL    H5519045   5.181   4.216   5.260 -0.5551 -1.4216 -0.6329
   46MOL    H5619046   5.295   4.464   5.222  1.1268 -1.6684 -0.9383
   46MOL    H5719047   5.438   4.408   5.316  0.3482 -2.1640 -2.0155
   46MOL    H5819048   5.343   4.552   5.366 -0.0818  0.9309 -2.8583
   46MOL    H5919049   5.417   4.314   5.519 -0.7395  0.5342 -1.3784
   46MOL    H6019050   5.348   4.426   5.613 -0.1972 -1.1092  1.6953
   46MOL    H6119051   5.273   4.271   5.623 -0.2892  0.2028  1.4497
   46MOL    H6219052   5.126   4.512   5.460  3.1518 -0.5693  0.5885
   46MOL    H6319053   5.047   4.409   5.355  1.0495  0.2966 -0.9358
   46MOL    H6419054   5.060   4.357   5.525 -0.7623 -0.0773 -0.9898
   46MOL    C6519055   5.374   4.056   5.198 -0.4095 -0.0304 -0.8618
   46MOL    C6619056   5.369   4.149   5.072 -0.7067  0.2243  0.0253
   46MOL    C6719057   5.305   4.073   4.949  0.3305 -0.1002 -1.1375
   46MOL    C6819058   5.148   4.080   4.928 -0.0610  1.1763  1.0323
   46MOL    C6919059   5.069   4.025   5.044 -0.0264  0.1104  0.2189
   46MOL    C7019060   5.097   4.218   4.886 -0.0474 -0.0707 -0.3613
   46MOL    C7119061   5.115   3.985   4.805  0.1312 -0.6616  0.1134
   46MOL    H7219062   5.460   3.990   5.192  1.0163  1.7454 -0.3030
   46MOL    H7319063   5.291   3.986   5.193 -2.4329  2.3037 -1.0573
   46MOL    H7419064   5.301   4.232   5.092 -2.1451 -1.1354  0.8766
   46MOL    H7519065   5.341   3.970   4.953 -3.6941 -1.5851 -0.9129
   46MOL    H7619066   5.340   4.114   4.855  2.8352  0.0573 -0.1753
   46MOL    H7719067   5.076   4.081   5.138  0.2978  0.5650 -0.0705
   46MOL    H7819068   4.962   4.028   5.021  0.2012 -0.8158 -0.9552
   46MOL    H7919069   5.090   3.921   5.066 -0.0587  0.1636  0.5091
   46MOL    H8019070   4.995   4.239   4.919 -0.3731  2.0602 -2.6121
   46MOL    H8119071   5.105   4.225   4.778  1.6916  0.2723 -0.2265
   46MOL    H8219072   5.166   4.296   4.918  0.3556  0.8935 -3.4681
   46MOL    H8319073   5.139   3.880   4.823 -1.6368 -1.4872 -2.0952
   46MOL    H8419074   5.178   4.009   4.719  0.0794 -0.1022  0.2295
   46MOL    H8519075   5.009   3.990   4.778 -0.7357 -1.3824  3.1507
   46MOL    C8619076   5.519   4.185   5.040 -0.1170 -0.2689 -0.7865
   46MOL    C8719077   5.548   4.292   4.926  0.2690 -1.0844 -0.7401
   46MOL    C8819078   5.702   4.322   4.921 -0.4798  0.3241  0.2706
   46MOL    C8919079   5.804   4.231   4.852  0.7058 -0.2210 -0.0642
   46MOL    C9019080   5.779   4.224   4.703 -0.0526  0.2288 -0.0220
   46MOL    C9119081   5.797   4.086   4.900  0.1972 -0.0124  0.0748
   46MOL    C9219082   5.948   4.285   4.879  0.1263  0.2035  0.7642
   46MOL    H9319083   5.568   4.092   5.010  1.1314 -0.1079  0.6950
   46MOL    H9419084   5.570   4.212   5.132 -0.7241 -0.3219 -0.4327
   46MOL    H9519085   5.521   4.247   4.831  0.2311  1.3593 -1.9405
   46MOL    H9619086   5.730   4.344   5.024  0.3075  1.1664 -0.1155
   46MOL    H9719087   5.711   4.414   4.862 -0.3759 -0.1801 -0.5082
   46MOL    H9819088   5.678   4.199   4.673  0.6703  0.2118 -2.5384
   46MOL    H9919089   5.846   4.155   4.651 -0.3764 -0.6632  0.7309
   46MOL   H10019090   5.818   4.316   4.660 -0.7328  0.5843  0.1197
   46MOL   H10119091   5.790   4.078   5.009  3.5111  0.9771  0.4278
   46MOL   H10219092   5.715   4.032   4.854  1.2474 -3.2305  1.8101
   46MOL   H10319093   5.887   4.031   4.869  0.0835 -1.8187  2.7432
   46MOL   H10419094   5.957   4.289   4.988 -1.0376 -0.9409  0.9188
   46MOL   H10519095   6.030   4.217   4.854 -0.9620 -2.3517  3.8379
   46MOL   H10619096   5.971   4.380   4.831  1.0779 -1.3623 -1.9688
   46MOL   C10719097   5.465   4.421   4.949  0.1725  0.0161  0.4398
   46MOL   C10819098   5.442   4.511   4.828 -0.2839  0.7249  0.3238
   46MOL   C10919099   5.342   4.451   4.726  0.9882 -1.3505 -0.3614
   46MOL   C11019100   5.354   4.477   4.569 -0.0023  0.4134  0.0830
   46MOL   C11119101   5.466   4.391   4.502 -0.4844  0.8769  0.7002
   46MOL   C11219102   5.371   4.620   4.530 -0.1686  0.3527 -0.1340
   46MOL   C11319103   5.217   4.435   4.510  0.3231 -0.5965  0.2847
   46MOL   H11419104   5.507   4.470   5.037  1.9789 -0.5505 -0.0906
   46MOL   H11519105   5.363   4.395   4.976  0.0639 -0.8844 -0.7844
   46MOL   H11619106   5.537   4.518   4.775 -0.3261  0.2467  0.1842
   46MOL   H11719107   5.332   4.343   4.740 -0.6385 -1.0945  0.5756
   46MOL   H11819108   5.239   4.482   4.742  0.4059 -3.2006 -0.4091
   46MOL   H11919109   5.568   4.405   4.537  0.2225 -2.4718  0.1107
   46MOL   H12019110   5.446   4.284   4.499  0.6642  0.6770 -0.2507
   46MOL   H12119111   5.481   4.430   4.401  2.7430  1.7683  1.4540
   46MOL   H12219112   5.299   4.677   4.588  0.3416 -2.4896  3.4350
   46MOL   H12319113   5.357   4.645   4.425  2.0012 -2.1485 -1.0527
   46MOL   H12419114   5.472   4.654   4.554  0.4064 -0.6739 -1.0651
   46MOL   H12519115   5.212   4.461   4.404  0.3691 -0.5176  0.3023
   46MOL   H12619116   5.132   4.492   4.547 -0.1710 -0.2286 -1.3624
   46MOL   H12719117   5.204   4.327   4.520  0.9928 -0.3607  4.2871
   46MOL   C12819118   5.399   4.654   4.872 -0.1238 -0.1874  0.5223
   46MOL   C12919119   5.480   4.726   4.985 -0.2301  0.1609  0.5430
   46MOL   C13019120   5.638   4.721   4.956  1.1119 -0.5988  0.1299
   46MOL   C13119121   5.736   4.750   5.082  0.0030 -1.0049  0.4497
   46MOL   C13219122   5.711   4.633   5.183  0.8161 -0.1116 -0.4576
   46MOL   C13319123   5.717   4.879   5.166 -0.4393  0.0420  0.2223
   46MOL   C13419124   5.879   4.750   5.035  0.1118  0.2912 -0.1308
   46MOL   H13519125   5.293   4.646   4.893 -0.0026 -2.8596  0.2060
   46MOL   H13619126   5.411   4.719   4.785 -0.0081  0.2340  0.8467
   46MOL   H13719127   5.457   4.666   5.072 -0.4271 -0.5715 -0.0072
   46MOL   H13819128   5.669   4.623   4.919  0.6192 -0.7680  0.1674
   46MOL   H13919129   5.664   4.782   4.870  1.3071  0.3508  0.8480
   46MOL   H14019130   5.785   4.641   5.262  0.7332  0.7003 -0.4471
   46MOL   H14119131   5.717   4.535   5.137  0.7933  0.0341 -0.7721
   46MOL   H14219132   5.610   4.650   5.220 -0.0234  1.5939 -3.3103
   46MOL   H14319133   5.626   4.864   5.223  0.5739  0.7958  2.0861
   46MOL   H14419134   5.706   4.959   5.092  0.2678 -1.4684 -1.5690
   46MOL   H14519135   5.806   4.899   5.225 -2.2444  2.7008  2.1412
   46MOL   H14619136   5.896   4.658   4.980  0.7342 -0.5152  1.3694
   46MOL   H14719137   5.888   4.829   4.961  0.3680 -1.7377 -2.3068
   46MOL   H14819138   5.952   4.766   5.115  2.4561  1.6359 -2.4598
   46MOL   C14919139   5.436   4.873   5.016 -0.0944  0.2615  0.6009
   46MOL   C15019140   5.288   4.918   4.989  0.6540 -0.6735 -0.1761
   46MOL   C15119141   5.224   4.999   5.109  0.9042  0.2468 -0.1666
   46MOL   C15219142   5.141   4.930   5.222  0.6836 -0.9874 -0.5479
   46MOL   C15319143   5.111   5.039   5.328  0.0782  0.4596  0.6387
   46MOL   C15419144   5.219   4.822   5.291  0.1564  0.4745  0.2383
   46MOL   C15519145   5.015   4.859   5.172 -0.8391 -0.3762 -0.2131
   46MOL   H15619146   5.504   4.943   4.967  0.4473 -1.1646 -0.7115
   46MOL   H15719147   5.450   4.891   5.123 -0.1873  1.2316  0.4514
   46MOL   H15819148   5.228   4.827   4.979  0.4190 -0.5368 -0.0196
   46MOL   H15919149   5.160   5.075   5.065 -1.1969 -0.8644  0.9074
   46MOL   H16019150   5.295   5.065   5.159 -0.3907  1.8740 -0.4447
   46MOL   H16119151   5.020   5.032   5.387  0.7937 -0.3725  1.6561
   46MOL   H16219152   5.193   5.059   5.397  3.7771 -2.4719 -2.6982
   46MOL   H16319153   5.087   5.135   5.282  2.6370  0.4495 -0.8692
   46MOL   H16419154   5.250   4.747   5.219  0.1077  2.4970 -1.9218
   46MOL   H16519155   5.157   4.773   5.367  0.6501 -0.8389 -0.1956
   46MOL   H16619156   5.303   4.870   5.342  0.2365  2.3499 -1.6009
   46MOL   H16719157   4.941   4.924   5.126  1.1065  1.1274 -1.2872
   46MOL   H16819158   5.034   4.781   5.098 -0.0806 -2.7993  2.4430
   46MOL   H16919159   4.962   4.816   5.257 -0.1410 -2.8714 -0.9987
   46MOL   C17019160   5.288   4.984   4.847  0.8442 -0.2224 -0.0058
   46MOL   C17119161   5.155   5.018   4.784  0.3872 -0.0648  0.4377
   46MOL   C17219162   5.095   4.884   4.729 -0.2018 -0.2388 -0.3346
   46MOL   C17319163   4.936   4.870   4.712  0.8165  0.4583  0.8281
   46MOL   C17419164   4.870   4.985   4.629  0.1908 -0.0051 -0.8048
   46MOL   C17519165   4.867   4.880   4.850 -0.3129 -0.4715 -0.2479
   46MOL   C17619166   4.894   4.727   4.651 -0.3183 -0.1556  0.1338
   46MOL   H17719167   5.349   4.927   4.776  0.8912  0.4943 -0.5460
   46MOL   H17819168   5.347   5.075   4.857 -1.2396  1.2143 -0.6935
   46MOL   H17919169   5.087   5.059   4.859 -1.0110 -3.6191  1.2625
   46MOL   H18019170   5.143   4.857   4.635  0.6349 -1.2167  0.3627
   46MOL   H18119171   5.119   4.798   4.791  0.7508 -0.7452 -1.3971
   46MOL   H18219172   4.910   4.981   4.528  1.8362 -1.1621 -0.1330
   46MOL   H18319173   4.762   4.970   4.627  0.1648 -0.4058  1.6843
   46MOL   H18419174   4.880   5.086   4.667 -1.4758 -1.1932  3.1195
   46MOL   H18519175   4.895   4.973   4.898  1.0286 -1.8404  1.7216
   46MOL   H18619176   4.758   4.882   4.842 -0.3813  1.8275  0.9933
   46MOL   H18719177   4.881   4.794   4.916 -0.4166  0.7545  1.4240
   46MOL   H18819178   4.937   4.649   4.715  0.3174 -0.6539 -0.8893
   46MOL   H18919179   4.786   4.712   4.650 -0.4527  0.5469  1.8097
   46MOL   H19019180   4.917   4.710   4.546 -1.0200  1.4189 -0.2892
   46MOL   C19119181   5.173   5.117   4.666  0.1448  0.1601 -0.0013
   46MOL   C19219182   5.180   5.266   4.691  0.0963  0.8141  0.3120
   46MOL   C19319183   5.053   5.330   4.745 -0.3051  0.7420 -0.1340
   46MOL   C19419184   5.063   5.428   4.870 -0.2076 -0.1834  0.6917
   46MOL   C19519185   5.161   5.538   4.841 -0.4720 -0.5495 -0.1590
   46MOL   C19619186   5.112   5.342   4.989  0.1126  0.1410  0.3668
   46MOL   C19719187   4.924   5.488   4.915  0.0020  0.6189 -0.1872
   46MOL   H19819188   5.260   5.083   4.611  0.0376  0.1834 -0.1886
   46MOL   H19919189   5.090   5.111   4.595 -0.4448  1.6195  0.5453
   46MOL   H20019190   5.267   5.285   4.754 -0.4991 -1.7221  1.9638
   46MOL   H20119191   4.987   5.252   4.786  0.0077 -0.0017 -1.0418
   46MOL   H20219192   4.996   5.381   4.668 -1.8980 -2.8253 -1.4570
   46MOL   H20319193   5.258   5.496   4.817  0.3551  0.1821  1.7929
   46MOL   H20419194   5.132   5.606   4.761  1.1196 -0.8085 -0.9774
   46MOL   H20519195   5.171   5.599   4.931  0.1898  0.9012 -1.2012
   46MOL   H20619196   5.132   5.404   5.075 -0.6029  0.7403  0.1100
   46MOL   H20719197   5.034   5.272   5.021  1.1668 -1.2442 -0.0297
   46MOL   H20819198   5.198   5.290   4.948  2.3839  1.6122  3.1255
   46MOL   H20919199   4.936   5.554   5.001 -1.4975  1.3404 -0.5319
   46MOL   H21019200   4.882   5.549   4.836 -1.8501 -0.8449 -0.3584
   46MOL   H21119201   4.850   5.412   4.939 -0.3729  1.8943  2.9816
   46MOL   C21219202   5.210   5.340   4.560 -0.0644  0.0144  0.1764
   46MOL   C21319203   5.345   5.316   4.499  0.2629 -0.2507  0.3715
   46MOL   C21419204   5.472   5.370   4.578 -0.1650 -1.3439 -0.6316
   46MOL   C21519205   5.599   5.295   4.591 -0.7127 -0.3162 -0.4911
   46MOL   C21619206   5.578   5.180   4.683  0.3630  0.6366 -0.2631
   46MOL   C21719207   5.654   5.256   4.458  0.3939  0.3355  0.5378
   46MOL   C21819208   5.688   5.408   4.654 -0.5918 -0.6989 -0.1667
   46MOL   H21919209   5.139   5.302   4.487 -0.0979 -1.8394  1.1514
   46MOL   H22019210   5.195   5.446   4.578 -0.1222  0.2450 -1.1431
   46MOL   H22119211   5.350   5.208   4.484  0.6897 -0.2806  0.7141
   46MOL   H22219212   5.442   5.395   4.680  0.7943  0.5470 -0.7826
   46MOL   H22319213   5.477   5.465   4.524 -0.4787 -1.8228 -1.5111
   46MOL   H22419214   5.524   5.200   4.776 -2.7887  0.3813 -1.9813
   46MOL   H22519215   5.674   5.131   4.701 -1.1449 -2.8063 -1.1771
   46MOL   H22619216   5.521   5.108   4.624  1.9934  0.4065 -1.6004
   46MOL   H22719217   5.635   5.320   4.372 -1.3610 -3.3911 -1.9878
   46MOL   H22819218   5.757   5.224   4.476  0.3067 -2.0431 -2.7436
   46MOL   H22919219   5.602   5.166   4.425  1.3223  0.4059 -1.1791
   46MOL   H23019220   5.795   5.387   4.650 -0.4516  0.0525 -0.2890
   46MOL   H23119221   5.682   5.414   4.762  1.4400 -2.4969  0.0982
   46MOL   H23219222   5.679   5.503   4.602  1.7863  0.7318  1.9544
   46MOL   C23319223   5.335   5.390   4.356  0.0267  0.5612  0.2068
   46MOL   C23419224   5.266   5.319   4.232 -0.3948 -0.5551 -0.2799
   46MOL   C23519225   5.217   5.405   4.114 -0.3786 -0.2902 -0.1814
   46MOL   C23619226   5.109   5.515   4.121  0.0787  0.0519 -0.5138
   46MOL   C23719227   5.044   5.535   3.984 -0.1787  0.5118  0.5970
   46MOL   C23819228   4.992   5.467   4.218  0.3760 -0.2725  0.3281
   46MOL   C23919229   5.167   5.648   4.158 -0.4389  0.1627 -0.2593
   46MOL   H24019230   5.442   5.398   4.336  0.4262 -1.5310  1.2804
   46MOL   H24119231   5.293   5.489   4.370  0.1012  0.9706 -2.1837
   46MOL   H24219232   5.178   5.272   4.276 -1.7977  1.9009 -0.3639
   46MOL   H24319233   5.305   5.441   4.061  0.1483 -0.6569  0.4283
   46MOL   H24419234   5.166   5.341   4.042 -3.5160  0.5998  1.1926
   46MOL   H24519235   5.002   5.439   3.955  1.8205 -0.4607  0.8272
   46MOL   H24619236   5.114   5.565   3.906  0.3062  1.9531  1.5685
   46MOL   H24719237   4.970   5.615   3.989 -0.7792  0.0130 -0.3673
   46MOL   H24819238   5.035   5.421   4.307  0.5787  0.0584  0.4029
   46MOL   H24919239   4.923   5.546   4.246  3.2231  2.5300 -0.2827
   46MOL   H25019240   4.933   5.386   4.177 -0.4422  0.1083  0.7460
   46MOL   H25119241   5.204   5.644   4.260 -2.3955  1.2916  0.5160
   46MOL   H25219242   5.255   5.679   4.101  0.2827  1.6417  1.6282
   46MOL   H25319243   5.094   5.727   4.144  1.9808  2.2332 -1.6740
   46MOL   C25419244   5.371   5.211   4.178 -0.4517 -0.4491 -0.4350
   46MOL   C25519245   5.302   5.096   4.101  0.2559 -0.0381 -0.2522
   46MOL   C25619246   5.238   4.990   4.197 -0.6038 -0.2912  0.0043
   46MOL   C25719247   5.104   4.918   4.157 -0.5775 -0.6761  0.1248
   46MOL   C25819248   5.073   4.815   4.267  0.1974 -0.4266 -0.0295
   46MOL   C25919249   5.111   4.856   4.019  0.2089 -0.2607 -0.9375
   46MOL   C26019250   4.985   5.016   4.168 -0.3360 -0.1742 -0.4201
   46MOL   H26119251   5.430   5.169   4.260 -1.2008  0.4938  0.6045
   46MOL   H26219252   5.438   5.271   4.118 -0.2614  0.2446  0.4609
   46MOL   H26319253   5.220   5.145   4.048  0.6347  2.2279  1.2017
   46MOL   H26419254   5.321   4.923   4.218  0.9575  0.8061 -2.4585
   46MOL   H26519255   5.222   5.056   4.283 -2.0526  2.7009 -2.4767
   46MOL   H26619256   5.032   4.857   4.359 -0.8225 -3.0291  0.7541
   46MOL   H26719257   5.166   4.764   4.292  0.6130  0.8433  1.0504
   46MOL   H26819258   5.004   4.741   4.226  1.0695 -0.9031 -0.6483
   46MOL   H26919259   5.186   4.778   4.023 -0.5763 -0.9505  0.4998
   46MOL   H27019260   5.148   4.930   3.948 -1.4891  0.7910 -0.7684
   46MOL   H27119261   5.019   4.802   3.996 -0.1217  0.6207 -1.7396
   46MOL   H27219262   4.889   4.968   4.147 -0.9846 -0.7371  3.4544
   46MOL   H27319263   4.988   5.072   4.262  0.7226 -0.2184 -0.4310
   46MOL   H27419264   4.984   5.088   4.086 -2.4572  0.6321  0.2623
   46MOL   C27519265   5.405   5.045   3.995 -0.1142  0.5720 -0.4439
   46MOL   C27619266   5.429   5.140   3.875 -0.9486  0.0379 -0.1286
   46MOL   C27719267   5.572   5.122   3.799 -0.5339 -0.0157 -0.4578
   46MOL   C27819268   5.705   5.167   3.865 -0.4283 -0.1421  0.0417
   46MOL   C27919269   5.732   5.109   4.008  0.6368  0.1654  0.2711
   46MOL   C28019270   5.820   5.129   3.763 -0.1982  0.0856 -0.1069
   46MOL   C28119271   5.701   5.318   3.892  0.6079  0.4391 -0.0625
   46MOL   H28219272   5.499   5.013   4.040 -0.0033  0.7929 -0.5169
   46MOL   H28319273   5.364   4.953   3.954 -0.4556  0.3430  0.3905
   46MOL   H28419274   5.426   5.238   3.923  1.0984 -0.4212  1.0032
   46MOL   H28519275   5.569   5.171   3.702 -1.7899  0.6286 -0.0935
   46MOL   H28619276   5.569   5.016   3.775 -1.1657 -0.3199  0.9051
   46MOL   H28719277   5.838   5.097   4.027  0.5595 -0.3677  0.3675
   46MOL   H28819278   5.686   5.168   4.086  2.4574 -0.6354  1.9799
   46MOL   H28919279   5.699   5.005   4.011  0.6677  0.1824  1.3360
   46MOL   H29019280   5.921   5.160   3.788  1.2274 -0.9674 -4.2982
   46MOL   H29119281   5.786   5.177   3.671 -1.4525 -1.1287 -0.2897
   46MOL   H29219282   5.822   5.026   3.730 -0.1036  0.4822 -1.3573
   46MOL   H29319283   5.615   5.344   3.954 -0.1087  2.0618 -1.7108
   46MOL   H29419284   5.687   5.372   3.798  3.0605 -0.3573 -0.9161
   46MOL   H29519285   5.788   5.354   3.946 -1.1137  2.0879  1.7319
   46MOL   C29619286   5.310   5.153   3.781 -0.8800  0.9240  0.7684
   46MOL   C29719287   5.323   5.258   3.663 -0.0065 -0.0638 -0.2601
   46MOL   C29819288   5.359   5.394   3.725  0.4368 -0.0286  0.0932
   46MOL   C29919289   5.396   5.513   3.627  0.1365  0.4825  1.1644
   46MOL   C30019290   5.271   5.603   3.580  0.4431  0.6537 -0.2202
   46MOL   C30119291   5.484   5.611   3.705  0.5071  0.5983  0.3647
   46MOL   C30219292   5.482   5.477   3.504  0.1941 -0.4819 -0.2281
   46MOL   H30319293   5.226   5.176   3.847  0.6006  1.5360  2.4604
   46MOL   H30419294   5.300   5.054   3.734  2.4523  1.0113 -0.2551
   46MOL   H30519295   5.403   5.229   3.595  0.4157 -0.2352  0.3099
   46MOL   H30619296   5.452   5.388   3.782  0.3663  4.2348  0.8513
   46MOL   H30719297   5.278   5.427   3.790 -0.9074 -0.2963 -1.4145
   46MOL   H30819298   5.233   5.656   3.667  0.1595  1.0585 -0.5835
   46MOL   H30919299   5.300   5.686   3.515  2.2921  0.5034  0.4032
   46MOL   H31019300   5.182   5.557   3.536  1.4426  0.1069 -1.7248
   46MOL   H31119301   5.435   5.636   3.799  0.4298  2.0175 -0.0462
   46MOL   H31219302   5.585   5.574   3.726  0.9529  1.2962 -0.5530
   46MOL   H31319303   5.496   5.704   3.651  1.7540  0.2326 -0.0161
   46MOL   H31419304   5.448   5.396   3.439  1.1315 -0.8694 -0.2380
   46MOL   H31519305   5.502   5.566   3.445  2.5641 -1.0962 -0.3900
   46MOL   H31619306   5.576   5.427   3.527  0.1396  0.3309  1.8687
   46MOL   C31719307   5.193   5.258   3.570  0.1984  0.0553  0.0256
   46MOL   C31819308   5.172   5.126   3.488 -0.4642  0.0439  0.3084
   46MOL   C31919309   5.032   5.110   3.430 -0.3162 -0.1770  0.0171
   46MOL   C32019310   4.943   5.011   3.509 -0.3881  0.5011 -0.0182
   46MOL   C32119311   4.941   5.047   3.661  0.4271 -0.1595  0.7757
   46MOL   C32219312   4.995   4.866   3.481 -0.7865 -0.2588 -0.1308
   46MOL   C32319313   4.796   5.037   3.469  0.5454 -0.1844  0.3017
   46MOL   H32419314   5.108   5.281   3.635  0.0753 -0.1666 -0.0544
   46MOL   H32519315   5.191   5.342   3.501  0.6752  0.2872  0.2949
   46MOL   H32619316   5.203   5.044   3.552 -3.3514 -0.4905  1.0971
   46MOL   H32719317   5.040   5.076   3.327 -2.0578  0.8225 -0.4662
   46MOL   H32819318   4.979   5.206   3.426 -1.3122 -0.6526  1.2545
   46MOL   H32919319   4.945   5.149   3.702  0.5508  0.0674  0.2028
   46MOL   H33019320   5.024   4.990   3.702  0.3690 -1.5137 -0.9489
   46MOL   H33119321   4.860   5.001   3.717  1.6148 -0.2023  2.4979
   46MOL   H33219322   4.924   4.794   3.522  0.3769 -1.1135  0.4103
   46MOL   H33319323   5.004   4.846   3.374 -0.3074 -1.2262  0.0907
   46MOL   H33419324   5.086   4.850   3.539 -0.8488 -2.6794 -0.6579
   46MOL   H33519325   4.731   4.971   3.528  0.2471  1.2378  1.5946
   46MOL   H33619326   4.780   5.001   3.368  0.1878 -0.4654  0.4551
   46MOL   H33719327   4.760   5.139   3.482  0.1015 -0.3504  0.3886
   46MOL   C33819328   5.275   5.126   3.368 -0.5495 -0.0463  0.5208
   46MOL   C33919329   5.333   4.991   3.331 -0.4365  0.2730  0.4591
   46MOL   C34019330   5.453   4.958   3.427  0.7584 -0.0461 -0.9813
   46MOL   C34119331   5.514   4.806   3.448 -0.2276 -0.2679 -0.0712
   46MOL   C34219332   5.408   4.712   3.489 -0.4171 -0.0255 -0.4900
   46MOL   C34319333   5.599   4.757   3.325 -0.3796  0.4365  0.4534
   46MOL   C34419334   5.615   4.824   3.567  0.1710  0.0935  0.1400
   46MOL   H34519335   5.356   5.197   3.386  1.9167 -2.1396 -1.8355
   46MOL   H34619336   5.232   5.174   3.280 -0.3306  0.2736  0.5854
   46MOL   H34719337   5.253   4.918   3.346 -1.8081  1.3786 -1.2130
   46MOL   H34819338   5.430   4.999   3.526  0.2086  1.5390 -1.7545
   46MOL   H34919339   5.535   5.021   3.393  2.3466 -0.7242  1.4089
   46MOL   H35019340   5.355   4.725   3.583 -0.5853 -0.7494 -0.4760
   46MOL   H35119341   5.330   4.698   3.414  1.0760  1.6555 -2.4265
   46MOL   H35219342   5.452   4.612   3.484  0.5635  0.3761 -0.0526
   46MOL   H35319343   5.640   4.659   3.350 -0.2409  0.7825  1.6226
   46MOL   H35419344   5.559   4.753   3.224 -2.3632  0.0033  1.2253
   46MOL   H35519345   5.686   4.823   3.323  1.1116 -1.4325  1.5845
   46MOL   H35619346   5.671   4.731   3.575  0.7499  0.2421 -1.9610
   46MOL   H35719347   5.684   4.907   3.559 -1.0455  1.5135  3.3298
   46MOL   H35819348   5.573   4.838   3.667  0.2623 -0.6410  0.2856
   46MOL   C35919349   5.381   4.994   3.178  0.1078  0.0157  0.3215
   46MOL   C36019350   5.277   5.028   3.072 -1.4199  0.1946 -0.2692
   46MOL   C36119351   5.143   4.943   3.070 -0.3893 -0.0580  0.2253
   46MOL   C36219352   5.027   4.990   2.980 -0.7639  0.0030 -0.5528
   46MOL   C36319353   4.909   4.904   3.034 -0.2002  0.1286 -0.2860
   46MOL   C36419354   5.048   4.939   2.832  0.0964 -0.2749 -0.2151
   46MOL   C36519355   4.997   5.138   2.987  0.4754 -0.2852 -0.5288
   46MOL   H36619356   5.419   4.898   3.145 -0.5104  0.3021 -1.2358
   46MOL   H36719357   5.463   5.065   3.172  0.1717 -0.1111 -0.2597
   46MOL   H36819358   5.249   5.134   3.068 -2.1826  0.0493  1.0414
   46MOL   H36919359   5.180   4.842   3.059  0.8151  0.4378 -0.3729
   46MOL   H37019360   5.100   4.951   3.170 -2.5221  1.0784 -0.7481
   46MOL   H37119361   4.829   4.899   2.959  0.1373  2.0983 -0.7888
   46MOL   H37219362   4.930   4.801   3.064  2.0756  0.6771  0.0183
   46MOL   H37319363   4.864   4.956   3.118 -0.8599  1.5016 -1.4667
   46MOL   H37419364   5.079   5.018   2.763 -1.1058  1.1914  0.8731
   46MOL   H37519365   4.953   4.905   2.790 -1.4100  0.7802  2.2183
   46MOL   H37619366   5.121   4.859   2.828  1.0034  0.4688  0.9597
   46MOL   H37719367   4.903   5.163   2.939  0.7912 -2.0937 -2.1238
   46MOL   H37819368   5.068   5.199   2.931 -0.1255  0.3734 -0.5811
   46MOL   H37919369   4.991   5.176   3.089 -0.7027  1.6611 -1.2974
   46MOL   C38019370   5.347   5.020   2.925 -0.3693 -0.3710  0.0552
   46MOL   C38119371   5.491   5.083   2.914  0.3996 -0.3487 -0.0772
   46MOL   C38219372   5.485   5.236   2.936 -0.3596 -0.7076  1.6843
   46MOL   C38319373   5.605   5.297   3.012  0.0877  0.1339 -0.9445
   46MOL   C38419374   5.749   5.259   2.965  0.3373  0.9270  0.4078
   46MOL   C38519375   5.614   5.277   3.165  0.5961 -0.8657 -0.0842
   46MOL   C38619376   5.597   5.444   2.984 -0.5965  0.7798 -0.5438
   46MOL   H38719377   5.285   5.076   2.854 -1.1828  0.3764  1.3365
   46MOL   H38819378   5.346   4.915   2.896  2.9661 -0.1567 -1.0350
   46MOL   H38919379   5.566   5.042   2.981  1.2144 -3.2539 -2.6493
   46MOL   H39019380   5.481   5.288   2.839 -2.9468 -3.9764 -0.0614
   46MOL   H39119381   5.394   5.267   2.989  1.3615  1.5844  3.4213
   46MOL   H39219382   5.779   5.283   2.863 -0.6397 -0.2491 -0.1714
   46MOL   H39319383   5.825   5.297   3.033  1.5654 -0.1052 -0.3704
   46MOL   H39419384   5.768   5.152   2.972  1.6244  1.1790  0.8221
   46MOL   H39519385   5.681   5.355   3.200 -1.4115  0.4785  0.8984
   46MOL   H39619386   5.663   5.183   3.188 -1.7823 -2.4519 -1.2829
   46MOL   H39719387   5.520   5.296   3.218  2.0661  1.5759  1.7501
   46MOL   H39819388   5.670   5.499   3.044 -0.2787 -0.8900  0.6282
   46MOL   H39919389   5.494   5.476   3.002 -0.5736 -0.1965  1.4010
   46MOL   H40019390   5.634   5.472   2.885  1.6032  1.4167  0.4212
   46MOL   C40119391   5.558   5.051   2.781 -0.2837  0.3586  0.5685
   46MOL   C40219392   5.580   4.901   2.741  0.0008  0.1751  0.3601
   46MOL   C40319393   5.647   4.813   2.853 -0.2303  0.3649  0.8669
   46MOL   C40419394   5.616   4.657   2.846 -0.5418  0.2476  0.3031
   46MOL   C40519395   5.649   4.605   2.707 -0.7633  0.4521 -0.4848
   46MOL   C40619396   5.473   4.609   2.890 -0.1034 -1.0038  0.0989
   46MOL   C40719397   5.724   4.596   2.935  0.2993 -0.5018 -0.4736
   46MOL   H40819398   5.496   5.088   2.699  0.9000  0.2194 -0.4144
   46MOL   H40919399   5.644   5.114   2.757  0.8174 -2.0174 -2.0272
   46MOL   H41019400   5.484   4.858   2.714 -1.3087  0.2027  4.6238
   46MOL   H41119401   5.625   4.842   2.956  0.0164  1.0883  0.7219
   46MOL   H41219402   5.751   4.843   2.837 -0.2135  0.6850  1.5307
   46MOL   H41319403   5.643   4.496   2.711  0.3975  0.3558 -1.1684
   46MOL   H41419404   5.752   4.632   2.683 -0.9854  0.9718 -0.8703
   46MOL   H41519405   5.591   4.649   2.626  0.2862 -0.3311 -1.6808
   46MOL   H41619406   5.468   4.505   2.920 -0.4364 -1.2506 -0.7907
   46MOL   H41719407   5.403   4.636   2.810 -1.7509 -2.1359  1.1314
   46MOL   H41819408   5.435   4.665   2.975 -0.2946 -1.0512  0.0471
   46MOL   H41919409   5.733   4.629   3.039 -1.4703  3.5035 -1.5013
   46MOL   H42019410   5.709   4.488   2.934 -0.4507 -0.3885 -1.0460
   46MOL   H42119411   5.822   4.612   2.890 -0.7686 -1.3984 -3.1912
   46MOL   H42219412   5.649   4.904   2.657  1.3125  1.1693  1.4530
   47MOL     C119413   3.185   5.564   0.669  0.0179  0.2786 -0.0268
   47MOL     C219414   3.124   5.448   0.760  0.4206 -0.2278 -0.6146
   47MOL     C319415   2.993   5.483   0.832  0.0243 -0.1874 -0.5328
   47MOL     C419416   2.855   5.451   0.756 -0.3280  0.5810  0.6149
   47MOL     C519417   2.846   5.509   0.615  0.6650  0.2308 -0.0798
   47MOL     C619418   2.837   5.293   0.738 -0.2823 -0.4884 -0.3159
   47MOL     C719419   2.744   5.518   0.840  0.2180 -0.2077  0.1323
   47MOL     H819420   3.141   5.581   0.571 -0.5935 -0.4788  0.1166
   47MOL     H919421   3.183   5.661   0.719 -1.0035 -0.6399  1.7377
   47MOL    H1019422   3.109   5.363   0.693  0.1631  1.3553 -2.5862
   47MOL    H1119423   3.004   5.589   0.859 -1.3908 -0.5294  1.5078
   47MOL    H1219424   2.996   5.438   0.931  2.0371 -0.5110 -0.7118
   47MOL    H1319425   2.747   5.524   0.572 -0.4237 -0.6566  2.0277
   47MOL    H1419426   2.904   5.443   0.551  1.0571  2.7344 -2.3950
   47MOL    H1519427   2.899   5.604   0.608 -1.1113  1.0658 -3.0184
   47MOL    H1619428   2.752   5.273   0.672  0.6643  1.4148 -2.1563
   47MOL    H1719429   2.925   5.249   0.692  1.0771 -0.6134  2.3334
   47MOL    H1819430   2.826   5.245   0.835 -2.2566 -1.2347 -0.8664
   47MOL    H1919431   2.649   5.484   0.799  0.3877  0.5002 -0.8734
   47MOL    H2019432   2.734   5.626   0.846  0.8614 -0.0228 -1.7417
   47MOL    H2119433   2.741   5.482   0.943 -2.4146  0.4708  0.3287
   47MOL    H2219434   3.291   5.544   0.655 -0.0686  0.1127 -0.4592
   47MOL    C2319435   3.236   5.400   0.852 -0.0340  0.3948 -0.1930
   47MOL    C2419436   3.219   5.257   0.911 -0.7340  0.4552  0.5524
   47MOL    C2519437   3.312   5.243   1.036 -0.8727 -0.5548  0.0761
   47MOL    C2619438   3.253   5.246   1.184 -0.3806 -0.4661  0.2788
   47MOL    C2719439   3.362   5.233   1.286 -0.2926  0.1523  0.5809
   47MOL    C2819440   3.194   5.389   1.217  0.2061 -0.5467  0.0495
   47MOL    C2919441   3.143   5.132   1.209 -0.1387 -0.8007 -0.0295
   47MOL    H3019442   3.330   5.404   0.796 -1.3469  1.5452 -2.3706
   47MOL    H3119443   3.241   5.469   0.936  1.7619  0.3107 -0.2111
   47MOL    H3219444   3.124   5.235   0.960 -0.9031 -0.2485 -0.0853
   47MOL    H3319445   3.392   5.316   1.025 -1.2481 -0.3048 -1.0854
   47MOL    H3419446   3.366   5.150   1.016 -3.2560 -2.3454  1.5358
   47MOL    H3519447   3.444   5.304   1.270  0.4192  0.2244  4.2002
   47MOL    H3619448   3.342   5.245   1.392  2.1520 -0.1806  1.1186
   47MOL    H3719449   3.418   5.141   1.273  1.3780  1.2019  0.1900
   47MOL    H3819450   3.108   5.402   1.151 -0.9167  1.9686  1.9181
   47MOL    H3919451   3.159   5.410   1.318  0.8164  0.5707  0.0387
   47MOL    H4019452   3.263   5.470   1.191 -0.0922  0.2985  1.7825
   47MOL    H4119453   3.114   5.105   1.310  0.0599  0.0079  0.2485
   47MOL    H4219454   3.173   5.038   1.164 -0.1470 -0.3172 -1.0800
   47MOL    H4319455   3.045   5.150   1.164  0.4756  0.9053 -0.7619
   47MOL    C4419456   3.243   5.148   0.804  0.3252 -0.2642  0.2876
   47MOL    C4519457   3.184   5.008   0.828 -0.3816 -0.1494  0.2327
   47MOL    C4619458   3.262   4.909   0.738 -0.7032 -0.0018 -0.7847
   47MOL    C4719459   3.368   4.815   0.809 -0.2770  0.1595  0.0462
   47MOL    C4819460   3.445   4.737   0.702  0.4581  0.1100  0.2479
   47MOL    C4919461   3.298   4.719   0.903  0.4436  0.3696 -0.3203
   47MOL    C5019462   3.463   4.893   0.894  0.2079 -0.2208  0.1733
   47MOL    H5119463   3.217   5.178   0.703  0.1100 -1.6144 -0.0753
   47MOL    H5219464   3.351   5.148   0.792  0.4098  0.4917  1.0219
   47MOL    H5319465   3.192   4.998   0.936 -2.7827  1.9112  0.6720
   47MOL    H5419466   3.300   4.949   0.644 -1.6833 -2.3988 -2.2670
   47MOL    H5519467   3.192   4.839   0.691 -2.6845  0.6629  1.0995
   47MOL    H5619468   3.495   4.805   0.634  0.5166  0.7314  0.9025
   47MOL    H5719469   3.378   4.668   0.650  0.2148  0.2161  0.4143
   47MOL    H5819470   3.520   4.673   0.747  1.1799  1.5327  1.1127
   47MOL    H5919471   3.220   4.661   0.854  1.1729 -1.7871  0.9564
   47MOL    H6019472   3.378   4.647   0.924  2.1839  2.3360  0.0174
   47MOL    H6119473   3.243   4.776   0.977 -1.8550 -0.8345 -1.0731
   47MOL    H6219474   3.414   4.960   0.965  1.8399  0.9350  0.2231
   47MOL    H6319475   3.529   4.834   0.957  0.4728  0.4650  0.5372
   47MOL    H6419476   3.520   4.958   0.828  1.2382  0.8047  2.0410
   47MOL    C6519477   3.030   4.997   0.799 -0.2336  0.1679 -0.2958
   47MOL    C6619478   2.951   4.875   0.858 -0.1347  0.2417  0.1370
   47MOL    C6719479   2.819   4.848   0.788 -0.0144  0.0153  0.6638
   47MOL    C6819480   2.815   4.739   0.677  0.2548  0.1272  0.8112
   47MOL    C6919481   2.860   4.600   0.725  0.5213  0.1448  0.1564
   47MOL    C7019482   2.669   4.719   0.628  0.3764 -0.6922  0.2545
   47MOL    C7119483   2.898   4.785   0.553  1.0814 -0.4456 -0.4595
   47MOL    H7219484   2.986   5.093   0.827  1.6625  0.8248  0.5040
   47MOL    H7319485   3.016   5.000   0.691 -2.7658  1.3361  0.0183
   47MOL    H7419486   3.018   4.788   0.854 -2.1913 -1.3413 -0.5885
   47MOL    H7519487   2.785   4.945   0.751 -1.0298 -0.7193 -0.3813
   47MOL    H7619488   2.747   4.812   0.861  1.3978  0.7683  2.4780
   47MOL    H7719489   2.963   4.595   0.759  0.3142 -2.2293  0.5286
   47MOL    H7819490   2.786   4.554   0.791  2.1417  0.9976  2.6479
   47MOL    H7919491   2.853   4.530   0.642 -3.4842 -0.2093  0.6804
   47MOL    H8019492   2.627   4.818   0.607  1.0888 -0.6086 -0.8240
   47MOL    H8119493   2.601   4.685   0.706 -1.5395 -1.0810 -1.5421
   47MOL    H8219494   2.663   4.654   0.540  0.4205 -1.3846  0.7625
   47MOL    H8319495   2.899   4.710   0.474  1.7621 -0.7130 -0.1953
   47MOL    H8419496   3.001   4.800   0.585  0.6911  0.4891  0.3798
   47MOL    H8519497   2.855   4.875   0.510  0.2671  0.0311  1.2850
   47MOL    C8619498   2.939   4.891   1.016  0.3966  0.4487 -0.0055
   47MOL    C8719499   2.886   4.771   1.105 -0.8332  0.1198 -0.3534
   47MOL    C8819500   2.839   4.841   1.238 -0.0777 -0.3335 -0.0371
   47MOL    C8919501   2.686   4.887   1.243 -0.4513  0.1946 -0.0423
   47MOL    C9019502   2.679   4.975   1.364  0.3211  0.8269  0.6625
   47MOL    C9119503   2.607   4.757   1.264 -0.7467 -0.5187 -0.4462
   47MOL    C9219504   2.630   4.951   1.112 -0.1877  0.0665  0.1534
   47MOL    H9319505   2.878   4.980   1.033 -2.3533 -1.2949 -0.2639
   47MOL    H9419506   3.037   4.911   1.058  0.2642 -0.3201  0.6779
   47MOL    H9519507   2.799   4.721   1.062 -1.1580  2.5778 -2.7105
   47MOL    H9619508   2.903   4.929   1.245  0.2771 -0.5423 -0.6578
   47MOL    H9719509   2.870   4.783   1.325  2.6745  1.6960  0.4018
   47MOL    H9819510   2.574   4.992   1.388 -0.0087  0.1522 -0.2820
   47MOL    H9919511   2.739   5.061   1.334  1.2089 -0.2312 -0.6732
   47MOL   H10019512   2.713   4.927   1.457 -0.8322 -0.8363  0.2420
   47MOL   H10119513   2.502   4.782   1.280 -0.6087  0.1260 -0.5416
   47MOL   H10219514   2.611   4.683   1.184  1.0760 -2.2378  1.1781
   47MOL   H10319515   2.644   4.723   1.361 -1.8874  3.4527  1.4845
   47MOL   H10419516   2.635   4.877   1.032 -1.1519 -1.7447  1.7324
   47MOL   H10519517   2.524   4.974   1.119  0.1403  1.2319  1.5327
   47MOL   H10619518   2.690   5.039   1.090 -1.6610  0.7816 -1.0807
   47MOL   C10719519   3.005   4.681   1.139  0.1359 -0.7364  0.2869
   47MOL   C10819520   2.965   4.537   1.180 -0.1847  0.4756 -0.1858
   47MOL   C10919521   2.899   4.457   1.055 -0.5913 -0.4031 -0.4807
   47MOL   C11019522   2.804   4.339   1.087  0.1818 -0.0324 -0.4050
   47MOL   C11119523   2.773   4.275   0.955  0.1833  0.1717  0.5738
   47MOL   C11219524   2.664   4.385   1.137  0.0623 -0.2644  0.3363
   47MOL   C11319525   2.865   4.239   1.179 -0.7301 -0.3903 -0.6044
   47MOL   H11419526   3.073   4.733   1.205 -0.9959  2.0184 -0.6593
   47MOL   H11519527   3.058   4.674   1.044 -0.6621  0.1436 -0.2330
   47MOL   H11619528   2.888   4.537   1.257 -1.1894 -0.9929 -1.1502
   47MOL   H11719529   2.838   4.525   0.996  1.3867  0.6490 -1.3924
   47MOL   H11819530   2.981   4.426   0.989  0.4515 -1.3607  1.2292
   47MOL   H11919531   2.702   4.192   0.960  0.6040 -0.2237 -0.0057
   47MOL   H12019532   2.745   4.344   0.875 -3.4000 -3.6322 -1.6943
   47MOL   H12119533   2.858   4.225   0.909 -1.4632 -1.7314 -0.5220
   47MOL   H12219534   2.628   4.469   1.079  2.4208  0.1142 -0.6528
   47MOL   H12319535   2.682   4.413   1.241 -0.2796 -0.5360  0.4673
   47MOL   H12419536   2.585   4.311   1.130 -0.5768  0.6543 -3.2454
   47MOL   H12519537   2.813   4.146   1.200  0.1387 -0.9037 -0.7459
   47MOL   H12619538   2.860   4.295   1.272 -0.1101 -1.7382  0.2374
   47MOL   H12719539   2.964   4.205   1.151 -1.3011 -0.5140 -2.5575
   47MOL   C12819540   3.084   4.462   1.249 -0.1047  0.5904  0.1119
   47MOL   C12919541   3.122   4.498   1.392 -0.2168 -0.5164  0.6191
   47MOL   C13019542   3.027   4.445   1.499  0.0974 -0.0294 -0.6594
   47MOL   C13119543   2.992   4.534   1.621 -0.3584 -0.0091  0.3336
   47MOL   C13219544   2.901   4.662   1.589 -0.3990  0.1108  0.5039
   47MOL   C13319545   3.118   4.563   1.704 -0.5568  0.1514  0.3895
   47MOL   C13419546   2.905   4.460   1.722 -0.1019  0.4347 -0.2778
   47MOL   H13519547   3.175   4.473   1.190  1.2098 -1.2076  1.7315
   47MOL   H13619548   3.063   4.355   1.257 -0.0752  0.5685 -0.0941
   47MOL   H13719549   3.126   4.607   1.392  0.0116 -0.5270  0.2106
   47MOL   H13819550   2.934   4.423   1.447  0.1327 -1.5342 -0.1167
   47MOL   H13919551   3.063   4.349   1.537  1.9038  1.6269  1.9418
   47MOL   H14019552   2.948   4.725   1.513  1.4804  0.4778  1.9275
   47MOL   H14119553   2.894   4.720   1.681  0.1916  3.6739 -1.6253
   47MOL   H14219554   2.800   4.634   1.559 -0.0356 -0.6264 -0.0489
   47MOL   H14319555   3.195   4.616   1.648 -1.3611 -0.8782 -1.7417
   47MOL   H14419556   3.161   4.470   1.740  0.2207  0.1141 -0.6178
   47MOL   H14519557   3.098   4.624   1.792 -1.3121  1.4859 -0.6726
   47MOL   H14619558   2.878   4.512   1.814  1.5263 -1.6833  1.4781
   47MOL   H14719559   2.813   4.437   1.669  1.0583 -2.2159 -1.2356
   47MOL   H14819560   2.948   4.362   1.745 -0.3679  0.2834 -0.4293
   47MOL   C14919561   3.266   4.461   1.427 -0.2210  0.1366  0.0956
   47MOL   C15019562   3.382   4.550   1.367 -0.4568 -0.0586 -1.0126
   47MOL   C15119563   3.393   4.683   1.445 -0.2019  0.4175  0.2361
   47MOL   C15219564   3.434   4.805   1.375 -0.3712  0.3853  0.1081
   47MOL   C15319565   3.460   4.909   1.486  0.2835  0.0128 -0.3840
   47MOL   C15419566   3.314   4.852   1.290  0.2289 -0.6318 -0.3403
   47MOL   C15519567   3.562   4.790   1.286 -0.0549 -0.6385 -0.3374
   47MOL   H15619568   3.267   4.360   1.385 -3.0806  0.3778 -0.6679
   47MOL   H15719569   3.293   4.450   1.532  1.0159 -0.7342 -0.3027
   47MOL   H15819570   3.344   4.567   1.266  2.1737  0.3374 -1.9680
   47MOL   H15919571   3.458   4.663   1.531  0.3226  0.0239 -0.2470
   47MOL   H16019572   3.297   4.708   1.489  0.4338  1.3198  1.1290
   47MOL   H16119573   3.383   4.924   1.562  1.8027  3.9417  0.4713
   47MOL   H16219574   3.556   4.904   1.539  0.0352 -2.0733 -0.0771
   47MOL   H16319575   3.474   5.007   1.441  0.6946  0.6689  1.1185
   47MOL   H16419576   3.279   4.772   1.225  3.2766 -1.4311 -1.0251
   47MOL   H16519577   3.345   4.937   1.228 -1.2121 -0.6614 -1.1400
   47MOL   H16619578   3.235   4.896   1.352  0.5004  1.1512 -1.2178
   47MOL   H16719579   3.550   4.725   1.200  0.0584 -1.5314  0.3173
   47MOL   H16819580   3.601   4.882   1.242 -1.2222 -0.1398 -0.3522
   47MOL   H16919581   3.632   4.743   1.356 -1.8060 -2.1920  0.4165
   47MOL   C17019582   3.520   4.483   1.361 -0.0224 -0.2663 -0.2704
   47MOL   C17119583   3.534   4.367   1.258  0.2415  0.1623 -0.1188
   47MOL   C17219584   3.647   4.269   1.299 -0.2525 -0.3792  0.2647
   47MOL   C17319585   3.610   4.140   1.376  0.4131  0.7584 -0.4923
   47MOL   C17419586   3.741   4.066   1.412 -0.2909 -0.2400  0.3161
   47MOL   C17519587   3.527   4.040   1.291 -1.0179 -0.4815  0.2854
   47MOL   C17619588   3.536   4.173   1.516  0.0643  0.3399 -0.4624
   47MOL   H17719589   3.561   4.447   1.456  0.5677  2.1179  0.4068
   47MOL   H17819590   3.607   4.541   1.331 -0.1910 -0.6322 -1.4954
   47MOL   H17919591   3.445   4.305   1.264 -1.3658  2.2835 -1.2534
   47MOL   H18019592   3.709   4.245   1.212 -0.7440 -1.7136  0.2703
   47MOL   H18119593   3.713   4.316   1.372 -0.1087  0.4093 -0.3587
   47MOL   H18219594   3.737   3.961   1.439 -1.5188 -0.2553  0.0958
   47MOL   H18319595   3.797   4.066   1.319  0.4607 -3.0465  0.7413
   47MOL   H18419596   3.820   4.102   1.477 -0.8659  0.5392  0.5935
   47MOL   H18519597   3.515   3.950   1.351  1.5206 -0.9051  0.1745
   47MOL   H18619598   3.443   4.094   1.246 -1.4328  0.4272  2.0678
   47MOL   H18719599   3.593   4.016   1.209 -0.0275  0.1115  0.9026
   47MOL   H18819600   3.606   4.229   1.578 -0.4219 -0.1065  0.5018
   47MOL   H18919601   3.443   4.230   1.520 -0.3745 -0.4374  0.7956
   47MOL   H19019602   3.517   4.076   1.561  0.9985  0.1402 -0.4865
   47MOL   C19119603   3.553   4.424   1.110  0.3423 -0.8144 -0.3446
   47MOL   C19219604   3.543   4.317   0.997  0.0772  0.0301 -0.0070
   47MOL   C19319605   3.614   4.364   0.867 -0.2039 -0.6924  0.5287
   47MOL   C19419606   3.766   4.333   0.849 -0.0876 -0.2109  0.2685
   47MOL   C19519607   3.791   4.186   0.824  0.1620 -0.0872 -0.9185
   47MOL   C19619608   3.864   4.375   0.957  0.1086 -0.1346  0.7759
   47MOL   C19719609   3.805   4.420   0.728  0.0950  0.0060 -0.2369
   47MOL   H19819610   3.486   4.509   1.096  1.4031  0.6007  2.8452
   47MOL   H19919611   3.654   4.462   1.118  1.3639 -3.4364 -0.1572
   47MOL   H20019612   3.595   4.230   1.036  0.2353  0.2113  0.1920
   47MOL   H20119613   3.597   4.471   0.852  0.5969 -0.5673  0.4624
   47MOL   H20219614   3.562   4.313   0.785 -0.7766 -0.1376  0.5456
   47MOL   H20319615   3.745   4.133   0.908 -0.9036 -1.1049 -2.1270
   47MOL   H20419616   3.756   4.150   0.727 -0.1351 -0.4891 -0.6633
   47MOL   H20519617   3.897   4.167   0.802  0.0816 -1.7229 -0.0029
   47MOL   H20619618   3.834   4.474   0.990  0.6923  0.4855 -0.5516
   47MOL   H20719619   3.854   4.305   1.040 -1.6401 -2.0990 -1.0309
   47MOL   H20819620   3.966   4.369   0.921  0.0053  1.7884  0.1309
   47MOL   H20919621   3.729   4.397   0.654 -0.5541  1.3010  0.0086
   47MOL   H21019622   3.789   4.523   0.759  1.8439  0.1839  0.1278
   47MOL   H21119623   3.901   4.386   0.689  0.0998  0.6809 -0.8413
   47MOL   C21219624   3.392   4.282   0.973 -0.0822 -0.3233  0.7018
   47MOL   C21319625   3.357   4.162   0.878 -0.2951 -0.8761  0.3455
   47MOL   C21419626   3.214   4.173   0.832 -0.4006 -0.3355  0.1975
   47MOL   C21519627   3.190   4.248   0.696 -0.5317 -0.4954 -0.3731
   47MOL   C21619628   3.037   4.246   0.674 -0.0297 -0.4266  0.2734
   47MOL   C21719629   3.235   4.401   0.707 -0.1303  1.3759 -0.3035
   47MOL   C21819630   3.262   4.183   0.573 -0.5737  0.8697  0.4152
   47MOL   H21919631   3.337   4.264   1.066 -1.4932  1.9674  0.3527
   47MOL   H22019632   3.346   4.373   0.935  3.2069  0.7365 -0.8863
   47MOL   H22119633   3.418   4.147   0.789 -1.1889  1.6152 -0.7323
   47MOL   H22219634   3.163   4.233   0.907 -0.3487  0.1074 -0.1210
   47MOL   H22319635   3.160   4.078   0.833 -2.8328  1.0203  0.7259
   47MOL   H22419636   3.020   4.293   0.578  0.5506 -2.1706 -0.7008
   47MOL   H22519637   2.977   4.297   0.749  0.4441  1.0587 -0.3346
   47MOL   H22619638   2.999   4.144   0.665 -1.0972  0.0913 -1.2809
   47MOL   H22719639   3.198   4.452   0.619  0.0003  2.4184  0.2397
   47MOL   H22819640   3.187   4.449   0.792 -0.4557 -2.7214  1.9561
   47MOL   H22919641   3.344   4.405   0.711 -0.0658 -0.0512 -0.2848
   47MOL   H23019642   3.240   4.078   0.554  1.2663  0.8164 -1.7495
   47MOL   H23119643   3.371   4.195   0.579 -0.4648 -0.0949  0.4846
   47MOL   H23219644   3.237   4.230   0.477  0.5378  1.8993  0.6134
   47MOL   C23319645   3.393   4.035   0.957 -0.3168  0.0982  0.7310
   47MOL   C23419646   3.407   3.901   0.870 -0.2280 -0.7091  0.0573
   47MOL   C23519647   3.536   3.892   0.778 -0.0458  0.7122 -0.8372
   47MOL   C23619648   3.533   3.796   0.652  0.1206 -0.3137 -0.0218
   47MOL   C23719649   3.416   3.826   0.556  0.4683 -0.2807 -0.5391
   47MOL   C23819650   3.667   3.830   0.575 -0.5644  0.3677 -0.0583
   47MOL   C23919651   3.540   3.644   0.687 -0.0918  0.8439  0.6579
   47MOL   H24019652   3.320   4.020   1.037 -0.7171 -2.6146 -0.0694
   47MOL   H24119653   3.487   4.054   1.009  0.4272 -0.1333 -0.5159
   47MOL   H24219654   3.323   3.907   0.801  1.3039 -0.6435 -1.8523
   47MOL   H24319655   3.579   3.990   0.758  1.2765 -0.2038 -2.4982
   47MOL   H24419656   3.604   3.848   0.851  0.3946 -0.3662 -1.8715
   47MOL   H24519657   3.319   3.789   0.590  0.5899  0.6305  0.8755
   47MOL   H24619658   3.429   3.769   0.464 -0.7569 -0.7729 -0.4084
   47MOL   H24719659   3.422   3.934   0.545  0.9465 -0.3218 -0.7104
   47MOL   H24819660   3.695   3.935   0.562  1.5458  0.0382  1.5669
   47MOL   H24919661   3.747   3.782   0.632 -2.3795 -2.3983  0.2588
   47MOL   H25019662   3.679   3.792   0.474  1.3250  0.7053  0.0286
   47MOL   H25119663   3.545   3.584   0.596  1.5431 -1.6117  2.3229
   47MOL   H25219664   3.625   3.627   0.753 -0.6147  1.0361  1.3992
   47MOL   H25319665   3.450   3.613   0.740 -1.2970  0.8240 -1.3358
   47MOL   C25419666   3.397   3.785   0.974  0.3589  0.8957  0.1923
   47MOL   C25519667   3.257   3.700   0.973  0.5656 -0.0998 -0.5618
   47MOL   C25619668   3.131   3.790   0.991 -0.2446  0.1375 -0.3988
   47MOL   C25719669   3.001   3.760   0.913  0.6685 -0.4025  0.6010
   47MOL   C25819670   2.896   3.863   0.958  0.4768 -0.6234 -0.1393
   47MOL   C25919671   2.951   3.617   0.950 -0.5353  0.4249 -0.2803
   47MOL   C26019672   3.020   3.766   0.762 -0.2690 -0.3133  0.1513
   47MOL   H26119673   3.397   3.823   1.076  0.2601 -1.2376  1.0186
   47MOL   H26219674   3.481   3.716   0.972 -1.5835 -1.6678  2.4151
   47MOL   H26319675   3.248   3.641   0.881  2.0725 -2.6069  0.8328
   47MOL   H26419676   3.112   3.796   1.098  1.0455 -0.9290 -0.0811
   47MOL   H26519677   3.164   3.892   0.974 -0.2504  0.5919  2.1113
   47MOL   H26619678   2.862   3.844   1.060 -1.1304  0.2309 -0.5009
   47MOL   H26719679   2.806   3.856   0.896  1.3812  1.0359 -1.6925
   47MOL   H26819680   2.934   3.964   0.945 -0.9926 -0.3237 -2.2643
   47MOL   H26919681   2.942   3.591   1.055 -0.6131 -0.5607 -0.5247
   47MOL   H27019682   3.007   3.533   0.908 -0.5709  0.3773 -0.2329
   47MOL   H27119683   2.854   3.611   0.902 -1.0954 -1.5428  1.0276
   47MOL   H27219684   3.080   3.686   0.720 -1.1682 -0.8109 -0.2017
   47MOL   H27319685   2.924   3.767   0.710 -0.3467 -0.3903  0.2940
   47MOL   H27419686   3.063   3.864   0.742  0.9999 -0.4136  2.3038
   47MOL   C27519687   3.266   3.595   1.091 -0.0189 -0.5121  0.1729
   47MOL   C27619688   3.376   3.479   1.064  0.4028 -0.9831  0.9839
   47MOL   C27719689   3.399   3.392   1.186 -0.0387  0.1653 -0.0839
   47MOL   C27819690   3.514   3.437   1.283  0.2168  0.5203 -0.2056
   47MOL   C27919691   3.655   3.416   1.221 -0.4239 -0.3934  0.3759
   47MOL   C28019692   3.506   3.587   1.319 -0.7052 -0.0936  0.3338
   47MOL   C28119693   3.496   3.359   1.412 -0.1670 -0.4187  0.1315
   47MOL   H28219694   3.301   3.655   1.175  1.6533 -0.8668 -0.2573
   47MOL   H28319695   3.166   3.556   1.111 -0.3852  1.2359  1.9989
   47MOL   H28419696   3.474   3.522   1.043 -0.6285  2.2223  2.3368
   47MOL   H28519697   3.419   3.292   1.147  0.0961  0.5528 -1.0161
   47MOL   H28619698   3.302   3.378   1.234 -0.6170  0.7570 -1.0638
   47MOL   H28719699   3.725   3.469   1.286  0.5068 -0.3427 -0.6466
   47MOL   H28819700   3.672   3.309   1.218 -0.9278 -0.4736  0.3681
   47MOL   H28919701   3.659   3.456   1.120 -1.9892 -1.7122 -0.2314
   47MOL   H29019702   3.581   3.614   1.393  0.3438  1.4902 -1.2989
   47MOL   H29119703   3.420   3.603   1.385 -1.3717  1.6907 -0.9275
   47MOL   H29219704   3.520   3.657   1.237 -2.5654  0.9620  0.8885
   47MOL   H29319705   3.506   3.251   1.403  1.1446 -0.3536  0.7391
   47MOL   H29419706   3.395   3.377   1.448 -0.2875  1.3548 -1.0156
   47MOL   H29519707   3.547   3.406   1.496  0.5691 -0.7641 -0.1207
   47MOL   C29619708   3.342   3.397   0.937 -0.6363 -0.1642  0.3272
   47MOL   C29719709   3.416   3.269   0.885  0.3624 -0.2821  0.0433
   47MOL   C29819710   3.563   3.314   0.860 -0.2776  0.1714  0.6803
   47MOL   C29919711   3.673   3.211   0.828  0.0836  0.0093  0.3331
   47MOL   C30019712   3.809   3.272   0.877 -0.3983 -0.9636  0.1434
   47MOL   C30119713   3.657   3.082   0.912  0.2376 -0.1950  0.0424
   47MOL   C30219714   3.688   3.170   0.679  0.1578 -0.3316 -0.4662
   47MOL   H30319715   3.372   3.468   0.860 -2.0565  0.1377  0.0491
   47MOL   H30419716   3.234   3.388   0.935 -0.5091 -2.3978  1.7325
   47MOL   H30519717   3.409   3.191   0.961  1.5363  0.5731  1.0619
   47MOL   H30619718   3.589   3.360   0.955  0.9031  2.9238 -0.9267
   47MOL   H30719719   3.568   3.390   0.781 -0.7059  1.2371  1.6626
   47MOL   H30819720   3.897   3.219   0.841  2.4472  3.0311  0.9399
   47MOL   H30919721   3.830   3.371   0.836  1.0591 -1.3205 -0.0042
   47MOL   H31019722   3.820   3.278   0.986 -0.8166 -1.0477  0.1927
   47MOL   H31119723   3.736   3.007   0.908  1.9440  1.6204 -1.5461
   47MOL   H31219724   3.652   3.107   1.018  3.0518  0.7031  0.0165
   47MOL   H31319725   3.565   3.029   0.888  0.4664 -0.1240 -0.9964
   47MOL   H31419726   3.611   3.102   0.642  0.1065 -2.6938  3.7460
   47MOL   H31519727   3.693   3.258   0.615 -0.6048  1.2787  1.6461
   47MOL   H31619728   3.783   3.116   0.673  0.9181  0.7209  1.6659
   47MOL   C31719729   3.348   3.202   0.769  0.1782 -0.3866  0.3644
   47MOL   C31819730   3.200   3.151   0.789  0.3503  0.2952  0.2866
   47MOL   C31919731   3.137   3.108   0.658 -0.0756  0.0453 -0.2418
   47MOL   C32019732   3.033   3.199   0.588 -0.0755  0.2470 -0.4186
   47MOL   C32119733   3.106   3.322   0.545 -0.5161 -0.2120 -0.3314
   47MOL   C32219734   2.914   3.240   0.677  0.0739  0.2733  0.5746
   47MOL   C32319735   2.974   3.119   0.469 -0.8812  0.1547  0.4434
   47MOL   H32419736   3.351   3.272   0.685  0.4212 -1.3343 -0.4339
   47MOL   H32519737   3.411   3.120   0.734  0.3031 -0.4734  0.7974
   47MOL   H32619738   3.135   3.231   0.824  0.7822  0.6889  0.2055
   47MOL   H32719739   3.082   3.015   0.676 -0.4126  0.2418 -0.2401
   47MOL   H32819740   3.214   3.087   0.584 -0.3534 -0.5613 -0.3661
   47MOL   H32919741   3.144   3.377   0.631  0.9293  0.7489 -1.5502
   47MOL   H33019742   3.039   3.388   0.490 -1.9558 -0.9449  0.4956
   47MOL   H33119743   3.189   3.310   0.477 -0.9678  2.0895 -1.3420
   47MOL   H33219744   2.945   3.315   0.749  1.1649  0.1821  0.2090
   47MOL   H33319745   2.836   3.272   0.608  0.0841 -0.5963  0.1533
   47MOL   H33419746   2.870   3.152   0.724  1.9965 -0.5423  0.8572
   47MOL   H33519747   3.063   3.103   0.408 -0.0756  3.0315  0.8067
   47MOL   H33619748   2.894   3.167   0.414  0.4286  0.5559 -1.1538
   47MOL   H33719749   2.926   3.026   0.501  0.0328 -0.4953 -0.0241
   47MOL   C33819750   3.205   3.032   0.890  0.1220  0.3739 -0.1697
   47MOL   C33919751   3.073   2.971   0.939  0.7465  0.5236 -1.0554
   47MOL   C34019752   3.077   2.956   1.094 -0.0753 -0.2856 -0.1626
   47MOL   C34119753   3.033   3.080   1.188 -0.5702  0.4944  0.1419
   47MOL   C34219754   3.081   3.051   1.331  0.0372  0.7271 -0.0794
   47MOL   C34319755   3.087   3.211   1.145  0.6559  0.4462  0.7084
   47MOL   C34419756   2.880   3.096   1.184 -0.1035 -0.2925  0.3443
   47MOL   H34519757   3.257   3.070   0.978  1.1754 -0.0746 -0.5960
   47MOL   H34619758   3.264   2.950   0.849 -0.1333  0.5801 -0.9664
   47MOL   H34719759   3.007   3.043   0.891  0.4899 -0.0993 -1.6547
   47MOL   H34819760   3.173   2.912   1.120  0.2479  0.8096  0.5470
   47MOL   H34919761   3.002   2.881   1.118  1.1560 -2.0206 -1.6237
   47MOL   H35019762   3.060   2.948   1.360  1.0005  0.5007 -0.1555
   47MOL   H35119763   3.190   3.055   1.332  0.2291 -1.5583  4.6666
   47MOL   H35219764   3.038   3.121   1.404  1.3244  0.7429  0.6794
   47MOL   H35319765   3.067   3.284   1.223 -0.7643  2.3347 -1.3573
   47MOL   H35419766   3.195   3.209   1.127  0.3446  1.9439 -1.4894
   47MOL   H35519767   3.044   3.243   1.050  0.1928  2.2413  1.5080
   47MOL   H35619768   2.834   3.105   1.086 -0.6608  0.0888  0.6358
   47MOL   H35719769   2.835   3.013   1.238 -0.6969 -2.3526 -3.1649
   47MOL   H35819770   2.853   3.192   1.228  3.5490  1.4846 -1.0835
   47MOL   C35919771   3.043   2.834   0.879 -0.3935 -0.7182  0.0087
   47MOL   C36019772   2.895   2.786   0.893  0.3518 -0.3454 -0.1351
   47MOL   C36119773   2.897   2.636   0.893 -0.0821 -0.3809 -0.0268
   47MOL   C36219774   2.879   2.549   1.027 -0.7503 -0.4330 -0.0520
   47MOL   C36319775   2.739   2.580   1.088 -1.1586  0.1413 -0.7044
   47MOL   C36419776   2.991   2.567   1.130  0.4670 -0.0148  0.7738
   47MOL   C36519777   2.870   2.399   0.983 -0.1232  0.3861  0.0863
   47MOL   H36619778   3.111   2.767   0.931 -0.9044 -0.4156  1.0852
   47MOL   H36719779   3.069   2.814   0.775  2.7777  1.1987  0.3706
   47MOL   H36819780   2.852   2.822   0.987  0.1920 -0.2254 -0.2541
   47MOL   H36919781   2.820   2.605   0.822 -0.2714  1.0698 -0.4759
   47MOL   H37019782   2.986   2.605   0.839  0.7194 -0.5341  1.3717
   47MOL   H37119783   2.732   2.685   1.117  0.7769 -0.3085  1.5056
   47MOL   H37219784   2.670   2.570   1.005 -0.8445  3.2891 -1.4180
   47MOL   H37319785   2.705   2.523   1.175 -1.1771  0.3989 -0.5401
   47MOL   H37419786   3.084   2.595   1.079 -1.8094  2.0286 -2.4928
   47MOL   H37519787   3.003   2.483   1.198  1.5242 -0.6754 -0.2022
   47MOL   H37619788   2.962   2.647   1.197  0.8760 -0.6768  1.7495
   47MOL   H37719789   2.910   2.331   1.058 -0.8090 -0.5627 -0.3912
   47MOL   H37819790   2.931   2.386   0.893 -0.0397  2.9096 -0.2633
   47MOL   H37919791   2.770   2.368   0.953  0.2773 -0.9208  0.0557
   47MOL   C38019792   2.810   2.845   0.778 -0.5090 -0.5051 -0.0858
   47MOL   C38119793   2.657   2.829   0.774  0.5772 -0.0057 -0.0764
   47MOL   C38219794   2.597   2.836   0.635  0.3329 -0.4887 -0.1562
   47MOL   C38319795   2.544   2.709   0.556  0.4274  0.0813 -0.1351
   47MOL   C38419796   2.492   2.758   0.419 -0.3855  0.4973 -0.0470
   47MOL   C38519797   2.439   2.630   0.633 -0.4446  0.5389 -0.6327
   47MOL   C38619798   2.665   2.618   0.541 -0.3162 -0.2532  0.2301
   47MOL   H38719799   2.855   2.803   0.688  1.4258  0.9230  0.1850
   47MOL   H38819800   2.830   2.952   0.780  0.2767 -0.6633  1.1037
   47MOL   H38919801   2.652   2.723   0.800  0.3875  0.3819  1.4918
   47MOL   H39019802   2.513   2.903   0.651 -1.1895 -2.2262 -0.6893
   47MOL   H39119803   2.663   2.892   0.568 -1.5096  1.3577 -0.4531
   47MOL   H39219804   2.460   2.676   0.355 -0.3327  0.9607 -0.6666
   47MOL   H39319805   2.407   2.824   0.431 -1.0341 -0.4773  0.8306
   47MOL   H39419806   2.572   2.800   0.358 -1.5279  0.5214 -1.5550
   47MOL   H39519807   2.341   2.675   0.646  0.5037  2.2536  0.6450
   47MOL   H39619808   2.479   2.609   0.733  0.1815 -0.2794 -1.0406
   47MOL   H39719809   2.428   2.531   0.587  3.3073 -0.1107 -0.3092
   47MOL   H39819810   2.683   2.575   0.639 -0.9942 -0.5871  0.2144
   47MOL   H39919811   2.757   2.665   0.507 -1.9218  1.1778 -2.2953
   47MOL   H40019812   2.650   2.539   0.467 -1.0604  0.7171 -0.6658
   47MOL   C40119813   2.594   2.916   0.877  0.0348  0.6091 -0.5093
   47MOL   C40219814   2.622   3.073   0.861  0.0614 -0.0125 -0.1859
   47MOL   C40319815   2.526   3.149   0.952  0.5294  0.0945 -0.0565
   47MOL   C40419816   2.544   3.303   0.971 -0.3199  0.4226  0.0711
   47MOL   C40519817   2.434   3.356   1.068 -0.5907 -0.7635  0.0191
   47MOL   C40619818   2.519   3.365   0.839  0.5031 -0.0182  0.5630
   47MOL   C40719819   2.686   3.351   1.015  0.1966 -0.4048  0.6272
   47MOL   H40819820   2.487   2.906   0.894  0.2113 -0.3346  0.0751
   47MOL   H40919821   2.624   2.890   0.978  0.9615 -1.1183 -1.2147
   47MOL   H41019822   2.727   3.102   0.875 -0.3949  0.7950  1.7627
   47MOL   H41119823   2.537   3.099   1.049  0.5460  0.3332  0.0655
   47MOL   H41219824   2.428   3.123   0.912  0.2597 -0.1134  0.7269
   47MOL   H41319825   2.436   3.303   1.163 -1.2430 -0.5741  0.1381
   47MOL   H41419826   2.332   3.343   1.030 -0.9758  1.1276  0.3567
   47MOL   H41519827   2.434   3.465   1.062 -2.0893 -0.5940  2.5040
   47MOL   H41619828   2.574   3.326   0.753  0.1125 -1.4589  0.9559
   47MOL   H41719829   2.544   3.471   0.846  0.3937 -0.0687  1.8808
   47MOL   H41819830   2.414   3.370   0.814  1.0210  1.2112 -1.5048
   47MOL   H41919831   2.756   3.317   0.938 -1.3403 -2.1278 -0.0424
   47MOL   H42019832   2.687   3.460   1.026  0.5485 -0.4439  0.9984
   47MOL   H42119833   2.714   3.320   1.115  0.6413  4.1715  2.0262
   47MOL   H42219834   2.596   3.103   0.759 -2.9801  0.5811  0.7154
   48MOL     C119835   0.928   0.724   1.703 -0.6674 -0.4500  0.4303
   48MOL     C219836   0.963   0.598   1.614  0.0008  0.1169  0.1244
   48MOL     C319837   0.906   0.473   1.688  0.8767 -0.4079  0.2439
   48MOL     C419838   0.774   0.411   1.633  0.5624 -0.0079  0.1776
   48MOL     C519839   0.658   0.509   1.628  0.2839  0.1954 -0.4089
   48MOL     C619840   0.797   0.346   1.500 -1.0209 -0.0708 -0.2683
   48MOL     C719841   0.722   0.308   1.739  0.2733  0.0094 -0.1963
   48MOL     H819842   0.994   0.737   1.789  0.4695  0.8342 -0.6063
   48MOL     H919843   0.953   0.811   1.641 -0.4920  0.6771  2.0470
   48MOL    H1019844   0.911   0.612   1.520 -1.4024 -3.6856  0.2269
   48MOL    H1119845   0.891   0.502   1.792  1.3388  2.4743 -0.4646
   48MOL    H1219846   0.978   0.391   1.695 -0.2552 -1.5983 -1.5107
   48MOL    H1319847   0.657   0.562   1.532  1.3259 -1.7214 -1.5244
   48MOL    H1419848   0.665   0.578   1.712 -0.1198 -0.7944  0.4511
   48MOL    H1519849   0.568   0.448   1.620 -1.2228  2.5266 -2.0496
   48MOL    H1619850   0.834   0.410   1.420 -3.1050  1.1308 -0.2965
   48MOL    H1719851   0.877   0.272   1.509 -0.7777  0.1893 -0.2978
   48MOL    H1819852   0.723   0.278   1.456  2.6170 -2.2823 -3.3334
   48MOL    H1919853   0.792   0.230   1.771 -0.7048 -0.1531  1.6195
   48MOL    H2019854   0.628   0.261   1.710  0.6116  0.1894 -1.6203
   48MOL    H2119855   0.705   0.362   1.832 -1.0445 -1.2656  0.3333
   48MOL    H2219856   0.830   0.712   1.749 -0.2018 -0.0982  1.5165
   48MOL    C2319857   1.114   0.582   1.581 -0.3410 -0.2298 -0.4761
   48MOL    C2419858   1.142   0.497   1.458 -0.2642 -0.5739  1.1988
   48MOL    C2519859   1.277   0.433   1.467 -0.0247  0.3277  0.8727
   48MOL    C2619860   1.310   0.294   1.396 -0.6528  0.1497  0.1363
   48MOL    C2719861   1.312   0.308   1.237 -0.0325  0.1087  0.4932
   48MOL    C2819862   1.452   0.252   1.443  0.0614 -0.1682  0.0448
   48MOL    C2919863   1.209   0.188   1.446  0.6580 -0.2288 -0.0055
   48MOL    H3019864   1.170   0.675   1.568  2.6159 -1.8222  0.5238
   48MOL    H3119865   1.156   0.543   1.673 -0.7269  3.3297  1.3136
   48MOL    H3219866   1.076   0.413   1.481  1.1543 -1.5612  1.6812
   48MOL    H3319867   1.300   0.417   1.572  0.7146  0.3848  0.7240
   48MOL    H3419868   1.359   0.500   1.440 -0.0387 -0.2172 -0.5605
   48MOL    H3519869   1.210   0.303   1.197 -0.1650 -0.9542  0.9298
   48MOL    H3619870   1.346   0.407   1.208 -1.7263  1.2998  2.4025
   48MOL    H3719871   1.357   0.229   1.177 -0.3610  0.6410 -0.4607
   48MOL    H3819872   1.530   0.327   1.429 -0.0140 -0.3943 -1.8053
   48MOL    H3919873   1.463   0.215   1.544  2.4407  0.4135  0.0236
   48MOL    H4019874   1.483   0.173   1.375 -0.3074  2.5881 -3.5216
   48MOL    H4119875   1.251   0.088   1.437  0.2546 -0.1951 -2.4599
   48MOL    H4219876   1.122   0.186   1.381 -0.1124 -0.1121  1.0087
   48MOL    H4319877   1.180   0.204   1.550  0.4209 -0.1314 -0.0877
   48MOL    C4419878   1.093   0.557   1.324 -0.2428  0.0281 -0.1612
   48MOL    C4519879   1.108   0.707   1.292 -0.4462 -0.1495  0.0099
   48MOL    C4619880   1.029   0.731   1.156 -1.3185  0.7371 -0.8576
   48MOL    C4719881   0.891   0.804   1.171  0.1223  0.2689  0.6835
   48MOL    C4819882   0.905   0.949   1.223  0.6436  0.8423 -0.4689
   48MOL    C4919883   0.800   0.726   1.270 -0.3157 -0.0826  0.4671
   48MOL    C5019884   0.827   0.797   1.035 -0.3988 -0.2494  0.8677
   48MOL    H5119885   1.141   0.497   1.248  0.8051  1.1567 -0.4115
   48MOL    H5219886   0.990   0.524   1.312  0.0393 -0.0093 -2.7873
   48MOL    H5319887   1.061   0.755   1.377 -0.0182  2.7402 -1.3348
   48MOL    H5419888   1.021   0.637   1.102  4.4003  1.6495 -3.6247
   48MOL    H5519889   1.094   0.797   1.098  0.9015 -1.2458 -0.7176
   48MOL    H5619890   0.980   0.994   1.158 -0.0206  0.9980 -1.1392
   48MOL    H5719891   0.950   0.952   1.322 -2.4011  1.4570  0.9395
   48MOL    H5819892   0.812   1.006   1.228  1.3009  2.0506 -1.7045
   48MOL    H5919893   0.772   0.623   1.249  0.1623 -0.5066  1.8720
   48MOL    H6019894   0.833   0.735   1.374 -0.2312 -3.2265  0.7389
   48MOL    H6119895   0.705   0.780   1.269  0.0708  0.5864 -2.3936
   48MOL    H6219896   0.804   0.693   1.015 -2.6122  0.2537  0.6166
   48MOL    H6319897   0.735   0.857   1.030 -0.0358  0.3715  1.4681
   48MOL    H6419898   0.888   0.830   0.951  2.3007 -0.2184  2.7942
   48MOL    C6519899   1.262   0.744   1.281 -0.0719  0.4718  0.3855
   48MOL    C6619900   1.301   0.888   1.285  0.8801  0.3634 -0.1055
   48MOL    C6719901   1.427   0.936   1.211  0.0323 -0.2505  0.2900
   48MOL    C6819902   1.432   0.943   1.061  0.4966 -0.0363  0.1502
   48MOL    C6919903   1.320   1.044   1.010 -0.1538  0.2062  0.5842
   48MOL    C7019904   1.566   1.006   1.022  0.3850 -0.0651  0.1036
   48MOL    C7119905   1.421   0.806   0.991  0.2949 -1.1861  0.2864
   48MOL    H7219906   1.326   0.691   1.352  2.1802 -0.0013 -1.9151
   48MOL    H7319907   1.282   0.700   1.183 -0.0234 -1.1563  1.1190
   48MOL    H7419908   1.219   0.950   1.247  1.2257  1.1196  0.3674
   48MOL    H7519909   1.511   0.877   1.245  1.0982  1.1775  0.1684
   48MOL    H7619910   1.460   1.028   1.258  1.3617 -1.3268  1.4836
   48MOL    H7719911   1.330   1.074   0.905 -1.6626  0.6694  0.5639
   48MOL    H7819912   1.222   1.006   1.037  0.3158  1.5942  4.4938
   48MOL    H7919913   1.334   1.142   1.056  0.6503 -0.0526  0.8834
   48MOL    H8019914   1.646   0.934   1.043  0.2511  0.4580  2.6073
   48MOL    H8119915   1.593   1.096   1.077  0.5367  0.6017 -1.0687
   48MOL    H8219916   1.564   1.045   0.921  2.5847  0.3650  0.1940
   48MOL    H8319917   1.451   0.815   0.887  0.2905  1.5826  0.4858
   48MOL    H8419918   1.316   0.777   0.991 -0.3798  0.9731 -3.4465
   48MOL    H8519919   1.483   0.732   1.042  2.4944  0.4630  0.0768
   48MOL    C8619920   1.309   0.928   1.438  0.5121  0.5431  0.7331
   48MOL    C8719921   1.303   1.078   1.471 -0.0482  0.3799 -0.4345
   48MOL    C8819922   1.371   1.108   1.608 -0.6177  0.2960  0.4705
   48MOL    C8919923   1.528   1.094   1.634  0.1522 -0.3543  0.1237
   48MOL    C9019924   1.551   0.974   1.732  0.1935 -0.3163 -0.2753
   48MOL    C9119925   1.576   1.224   1.708 -0.1939 -0.3097  0.0393
   48MOL    C9219926   1.611   1.078   1.506  0.2472 -0.2750  0.7459
   48MOL    H9319927   1.400   0.881   1.476  1.0772  1.1577  0.1353
   48MOL    H9419928   1.227   0.887   1.497  0.6449  1.9477  1.9207
   48MOL    H9519929   1.358   1.136   1.397  3.7379 -0.4117  1.5984
   48MOL    H9619930   1.313   1.061   1.688 -1.0301 -1.8586 -1.0578
   48MOL    H9719931   1.356   1.215   1.626 -0.7948 -0.1886  3.4265
   48MOL    H9819932   1.657   0.948   1.739  1.4526  4.3963 -0.2225
   48MOL    H9919933   1.494   0.887   1.700 -1.8050  1.0745 -0.6053
   48MOL   H10019934   1.515   0.995   1.833 -1.9510 -1.8192 -0.6837
   48MOL   H10119935   1.511   1.272   1.782 -1.0478  1.7758 -2.0166
   48MOL   H10219936   1.677   1.218   1.746 -0.4264 -0.4428  0.6402
   48MOL   H10319937   1.590   1.300   1.631 -1.4858 -1.6892 -1.6073
   48MOL   H10419938   1.715   1.096   1.533  0.9780 -0.8844 -1.4820
   48MOL   H10519939   1.601   0.984   1.451  1.8708 -1.7833  2.9465
   48MOL   H10619940   1.581   1.159   1.440 -0.6084 -0.7767  0.5130
   48MOL   C10719941   1.160   1.128   1.480  0.2517  0.5356  0.2877
   48MOL   C10819942   1.124   1.284   1.445  0.5050  1.0191  0.6702
   48MOL   C10919943   1.179   1.328   1.305 -0.2263 -0.3193 -0.0886
   48MOL   C11019944   1.262   1.459   1.291 -0.3786 -0.4821 -0.4735
   48MOL   C11119945   1.227   1.576   1.384  0.3977 -0.5286  0.0810
   48MOL   C11219946   1.255   1.503   1.146 -0.8821  0.4701 -0.1249
   48MOL   C11319947   1.409   1.427   1.320  0.1400 -0.6917 -0.1355
   48MOL   H11419948   1.107   1.097   1.570 -1.1093 -0.4842 -0.8481
   48MOL   H11519949   1.110   1.077   1.398 -0.5537 -0.6836  1.5189
   48MOL   H11619950   1.184   1.335   1.520  3.3069  1.3562 -1.7016
   48MOL   H11719951   1.246   1.255   1.261  1.4713  0.9111  0.4073
   48MOL   H11819952   1.090   1.352   1.246 -0.6700 -0.7333  0.4057
   48MOL   H11919953   1.132   1.617   1.351  0.3401  0.7376  1.7431
   48MOL   H12019954   1.216   1.534   1.484 -3.2395  0.3913  0.1262
   48MOL   H12119955   1.307   1.651   1.386  0.3782 -0.5315  1.9671
   48MOL   H12219956   1.263   1.422   1.074  0.4251  0.8589 -0.4135
   48MOL   H12319957   1.315   1.588   1.116 -2.6965  1.7799 -0.1657
   48MOL   H12419958   1.155   1.542   1.125 -1.5545 -1.0690  0.1229
   48MOL   H12519959   1.466   1.520   1.311 -1.3640  0.3195  0.6233
   48MOL   H12619960   1.454   1.353   1.253  0.3365 -0.3764 -0.3519
   48MOL   H12719961   1.429   1.390   1.421  0.1060 -2.3997 -0.7487
   48MOL   C12819962   0.974   1.307   1.466 -0.4323  0.2144 -0.4919
   48MOL   C12919963   0.922   1.447   1.479 -0.8325 -0.5453 -0.2384
   48MOL   C13019964   0.771   1.454   1.449 -0.6859 -0.0897  0.2805
   48MOL   C13119965   0.736   1.509   1.312  0.5855 -0.4212 -0.7376
   48MOL   C13219966   0.782   1.418   1.195  0.2415  0.5455  0.4558
   48MOL   C13319967   0.781   1.655   1.291 -0.2039  0.5762  0.6414
   48MOL   C13419968   0.584   1.514   1.301 -0.5474 -0.6686 -0.3376
   48MOL   H13519969   0.940   1.244   1.548 -0.0597 -1.9711 -1.9743
   48MOL   H13619970   0.911   1.258   1.392 -2.2443  2.5132 -0.5299
   48MOL   H13719971   0.967   1.505   1.398 -0.9896 -0.1475 -0.0405
   48MOL   H13819972   0.728   1.356   1.469 -1.2482 -0.3950 -2.2433
   48MOL   H13919973   0.726   1.519   1.525  1.2126  0.8011  0.6625
   48MOL   H14019974   0.739   1.318   1.202 -1.4524  1.2070 -0.1513
   48MOL   H14119975   0.890   1.407   1.187  0.0760  0.6230 -2.3576
   48MOL   H14219976   0.743   1.451   1.099  0.6774  0.3326  0.2059
   48MOL   H14319977   0.888   1.658   1.272 -0.2810 -0.1570  0.0622
   48MOL   H14419978   0.747   1.711   1.378  0.4448 -0.2469  1.4229
   48MOL   H14519979   0.736   1.706   1.205 -0.5671  0.1282  0.5671
   48MOL   H14619980   0.552   1.412   1.323 -2.5822 -0.0553 -0.3636
   48MOL   H14719981   0.541   1.578   1.378  1.4195 -2.7386  2.6220
   48MOL   H14819982   0.550   1.539   1.201  1.5439 -0.6210 -1.0657
   48MOL   C14919983   0.955   1.513   1.613 -0.4443  0.2132  0.1412
   48MOL   C15019984   0.901   1.659   1.653  0.4648 -0.0147 -0.9488
   48MOL   C15119985   0.839   1.669   1.790  0.1883 -0.7142 -0.1213
   48MOL   C15219986   0.704   1.605   1.821  0.7554  0.0561 -0.4250
   48MOL   C15319987   0.658   1.632   1.970  0.0555  0.1990  0.0539
   48MOL   C15419988   0.702   1.445   1.818  0.3429 -0.2511  0.2831
   48MOL   C15519989   0.589   1.672   1.742 -0.6491  0.0529 -0.4988
   48MOL   H15619990   1.051   1.491   1.660  0.2850 -1.2049 -1.9059
   48MOL   H15719991   0.911   1.440   1.680 -0.2802 -0.1386 -0.1325
   48MOL   H15819992   0.832   1.689   1.574 -1.1347 -1.0969  0.0102
   48MOL   H15919993   0.826   1.770   1.826  1.5324  0.6760 -3.3561
   48MOL   H16019994   0.914   1.635   1.863  0.1786  1.4030  0.8966
   48MOL   H16119995   0.558   1.592   1.987  1.2878 -1.4116  3.9686
   48MOL   H16219996   0.726   1.594   2.045  1.2096 -0.1594 -1.1494
   48MOL   H16319997   0.645   1.739   1.985  0.0122  0.1966  0.0353
   48MOL   H16419998   0.796   1.406   1.856  1.9033  2.2154 -0.9110
   48MOL   H16519999   0.682   1.412   1.716  0.3561  0.3121  0.0938
   48MOL   H16620000   0.619   1.400   1.872 -0.0164  0.7992  0.6313
   48MOL   H16720001   0.615   1.679   1.636 -1.3781  1.6607 -0.5855
   48MOL   H16820002   0.490   1.625   1.741 -1.7639  2.2560  0.6930
   48MOL   H16920003   0.580   1.778   1.763 -3.3531 -0.4854  1.2899
   48MOL   C17020004   1.028   1.745   1.628 -0.2066 -0.4446 -0.2491
   48MOL   C17120005   1.015   1.899   1.641 -0.1906 -0.9545 -0.4130
   48MOL   C17220006   0.935   1.961   1.525  0.0236 -0.6579  0.1487
   48MOL   C17320007   0.858   2.100   1.544 -0.5652 -0.6228  0.3642
   48MOL   C17420008   0.800   2.135   1.402  0.3105 -0.4540 -0.4804
   48MOL   C17520009   0.938   2.222   1.588 -0.3534 -0.4117 -0.2368
   48MOL   C17620010   0.739   2.081   1.636  0.5561  0.1343 -0.1825
   48MOL   H17720011   1.066   1.712   1.531  2.1387  0.0222  0.5077
   48MOL   H17820012   1.092   1.715   1.711 -0.6638  1.8748  0.9762
   48MOL   H17920013   0.970   1.931   1.735 -1.1881 -1.0014 -0.8731
   48MOL   H18020014   0.993   1.971   1.434  1.1073 -0.5277  0.8464
   48MOL   H18120015   0.857   1.892   1.491  1.6434 -2.4815  0.0320
   48MOL   H18220016   0.870   2.134   1.318  0.3967  1.0400 -0.4314
   48MOL   H18320017   0.723   2.066   1.369 -0.6027  0.9189 -1.2487
   48MOL   H18420018   0.762   2.236   1.404  1.2638 -0.0905 -0.2499
   48MOL   H18520019   0.879   2.313   1.599  0.6587  0.3884 -1.3378
   48MOL   H18620020   0.990   2.225   1.684 -3.0749  1.3401  1.2626
   48MOL   H18720021   1.011   2.250   1.513 -0.8106 -0.0860 -0.5656
   48MOL   H18820022   0.674   2.166   1.617 -1.6757 -1.9605 -2.2878
   48MOL   H18920023   0.675   1.995   1.616 -0.9250  1.6627 -2.2171
   48MOL   H19020024   0.762   2.071   1.742 -0.9664 -3.1119 -0.0985
   48MOL   C19120025   1.157   1.969   1.626 -0.7080 -0.6959 -0.7572
   48MOL   C19220026   1.250   1.954   1.752  0.0184 -0.5871 -0.1488
   48MOL   C19320027   1.199   2.034   1.877  0.4350  0.1585  0.2165
   48MOL   C19420028   1.215   1.973   2.024 -1.3272 -0.0106  0.1474
   48MOL   C19520029   1.167   2.066   2.139  0.3994 -0.3638  1.7409
   48MOL   C19620030   1.364   1.932   2.040  0.2875  0.2095  0.2730
   48MOL   C19720031   1.135   1.844   2.027  0.2644 -0.3776 -0.2379
   48MOL   H19820032   1.202   1.920   1.539  0.5332  0.0609 -0.5520
   48MOL   H19920033   1.161   2.075   1.599  0.9362 -0.8829 -1.3345
   48MOL   H20020034   1.268   1.851   1.782  1.1415  0.1036  1.6487
   48MOL   H20120035   1.094   2.055   1.857 -0.0355 -2.3718 -0.1449
   48MOL   H20220036   1.243   2.134   1.879  0.0243  0.4318 -2.5019
   48MOL   H20320037   1.063   2.096   2.126  1.3404  2.1829 -0.3688
   48MOL   H20420038   1.189   2.020   2.235  0.5207 -1.1105  1.3628
   48MOL   H20520039   1.214   2.164   2.141  0.9145 -0.5519  0.1215
   48MOL   H20620040   1.387   1.838   1.990  1.7812  1.5004 -1.5123
   48MOL   H20720041   1.429   2.003   1.989 -0.6127  1.2177  0.5130
   48MOL   H20820042   1.387   1.934   2.146  0.6800 -2.1458  0.2591
   48MOL   H20920043   1.033   1.858   1.992  0.2065 -1.6840 -0.6419
   48MOL   H21020044   1.175   1.767   1.961 -0.2852 -0.8648 -0.0089
   48MOL   H21120045   1.134   1.802   2.128  2.5364 -1.4549 -0.6252
   48MOL   C21220046   1.390   1.999   1.705  0.3081  0.1560  0.0695
   48MOL   C21320047   1.481   1.895   1.626  0.2285 -0.1231 -0.6486
   48MOL   C21420048   1.569   1.801   1.719 -0.2828 -0.1408  0.5746
   48MOL   C21520049   1.553   1.648   1.698 -0.2154  0.3677 -0.1497
   48MOL   C21620050   1.648   1.588   1.814  0.2999  0.8287 -0.3544
   48MOL   C21720051   1.413   1.587   1.723  0.3227  0.2199 -0.1122
   48MOL   C21820052   1.604   1.591   1.558 -0.2753  0.1678  0.3607
   48MOL   H21920053   1.377   2.094   1.653 -1.7252  0.4115  0.9819
   48MOL   H22020054   1.449   2.021   1.794  3.3201 -2.1550 -1.2738
   48MOL   H22120055   1.410   1.836   1.570  0.6714 -0.5240 -0.7895
   48MOL   H22220056   1.545   1.826   1.822 -1.3264  1.8084 -0.1156
   48MOL   H22320057   1.676   1.817   1.703 -0.8093  1.1157 -2.0650
   48MOL   H22420058   1.746   1.629   1.789 -0.1223  2.2311  0.2687
   48MOL   H22520059   1.648   1.479   1.812 -1.7073  0.8129 -0.2732
   48MOL   H22620060   1.614   1.619   1.912 -0.4036 -2.4263  0.4852
   48MOL   H22720061   1.412   1.479   1.710 -1.4792  0.2623 -0.4362
   48MOL   H22820062   1.369   1.608   1.820 -2.1531 -1.3798 -0.8540
   48MOL   H22920063   1.352   1.634   1.645  0.8860  0.4375 -0.4266
   48MOL   H23020064   1.601   1.483   1.540 -0.2880  0.0807  0.8922
   48MOL   H23120065   1.703   1.634   1.543 -0.5906  0.2042 -1.7880
   48MOL   H23220066   1.546   1.635   1.477 -1.9763  0.2306  1.5716
   48MOL   C23320067   1.574   1.965   1.531 -0.3589 -0.9700 -0.7262
   48MOL   C23420068   1.518   2.023   1.404  0.4030 -0.3004  0.3349
   48MOL   C23520069   1.578   2.157   1.361  0.0557 -0.3149  0.1748
   48MOL   C23620070   1.557   2.290   1.432 -0.4921 -0.1938 -0.9170
   48MOL   C23720071   1.412   2.326   1.446 -0.2431 -0.2360  0.0449
   48MOL   C23820072   1.623   2.300   1.574  0.4832  0.5747 -0.4319
   48MOL   C23920073   1.627   2.403   1.351  0.1022  0.3093  0.0856
   48MOL   H24020074   1.654   1.898   1.499 -1.0304 -1.0384 -2.3159
   48MOL   H24120075   1.628   2.034   1.595  3.2387 -0.5509 -4.0529
   48MOL   H24220076   1.411   2.037   1.421  0.1907  0.1733 -1.2476
   48MOL   H24320077   1.682   2.132   1.378 -0.2087  0.1080  2.6488
   48MOL   H24420078   1.575   2.175   1.254  2.4476 -1.2566 -0.0718
   48MOL   H24520079   1.353   2.262   1.511 -2.7809 -0.2985 -2.2050
   48MOL   H24620080   1.361   2.323   1.350 -0.2538 -0.0676  0.0458
   48MOL   H24720081   1.393   2.423   1.491  1.5261  0.2714 -0.2586
   48MOL   H24820082   1.554   2.259   1.647  0.4247  2.0954  0.3889
   48MOL   H24920083   1.726   2.263   1.582 -0.2826 -1.3411  0.9766
   48MOL   H25020084   1.622   2.407   1.596 -0.0043  0.5947 -0.5440
   48MOL   H25120085   1.734   2.389   1.364 -0.0484 -0.9666 -0.0165
   48MOL   H25220086   1.598   2.395   1.246 -0.7182  2.8017  0.0737
   48MOL   H25320087   1.597   2.503   1.384  1.9208  1.3571 -1.3225
   48MOL   C25420088   1.531   1.914   1.292  0.2359  0.6728  0.0091
   48MOL   C25520089   1.441   1.934   1.168 -0.6995  0.2879  0.3957
   48MOL   C25620090   1.286   1.908   1.198  0.0487 -0.2671  0.2590
   48MOL   C25720091   1.183   1.984   1.110  0.3521 -0.2720  0.0780
   48MOL   C25820092   1.175   2.129   1.160  0.0043  0.1486 -0.0017
   48MOL   C25920093   1.037   1.932   1.125 -0.1253  0.2149 -0.4270
   48MOL   C26020094   1.207   1.974   0.957 -0.0204 -0.2357 -0.2354
   48MOL   H26120095   1.489   1.824   1.335  1.0078  1.0460  1.5705
   48MOL   H26220096   1.632   1.881   1.271  0.0489 -2.8410  4.0483
   48MOL   H26320097   1.457   2.037   1.136 -0.2316  0.0946  0.0047
   48MOL   H26420098   1.265   1.803   1.178  0.7140 -0.1876 -0.9466
   48MOL   H26520099   1.270   1.922   1.305 -0.8180  2.9482 -0.2591
   48MOL   H26620100   1.146   2.144   1.264  1.5802  0.1266  0.4483
   48MOL   H26720101   1.115   2.189   1.091  0.1518  0.2269 -0.0621
   48MOL   H26820102   1.271   2.180   1.164 -0.2340  0.5733  0.3334
   48MOL   H26920103   1.030   1.828   1.092 -1.9944  0.4442 -0.8626
   48MOL   H27020104   0.965   1.987   1.063  0.3083  0.0226 -1.1112
   48MOL   H27120105   1.001   1.929   1.228  1.5718  0.8546  0.1828
   48MOL   H27220106   1.298   2.030   0.933  0.5488 -0.1768  2.0010
   48MOL   H27320107   1.216   1.867   0.938 -0.1118 -0.9462  3.4082
   48MOL   H27420108   1.122   2.014   0.902 -1.6254 -2.0752  0.8807
   48MOL   C27520109   1.499   1.841   1.056 -0.2447  0.4876  0.6735
   48MOL   C27620110   1.590   1.910   0.949 -1.1572 -0.2139 -0.0012
   48MOL   C27720111   1.701   1.999   1.008 -0.3516  0.1344  0.4312
   48MOL   C27820112   1.734   2.137   0.951 -0.7328  0.2924 -0.4080
   48MOL   C27920113   1.610   2.243   0.940  0.3681  0.6509 -0.4312
   48MOL   C28020114   1.843   2.211   1.044  0.0892  0.0599 -0.3911
   48MOL   C28120115   1.798   2.128   0.813 -0.5061 -0.0485 -0.3291
   48MOL   H28220116   1.549   1.754   1.096 -1.1729 -1.3029 -1.9470
   48MOL   H28320117   1.415   1.795   1.004  1.2789 -0.0817 -1.3373
   48MOL   H28420118   1.533   1.979   0.886  0.6273 -0.8078 -2.3215
   48MOL   H28520119   1.793   1.941   0.999 -0.8924 -0.8620  1.1600
   48MOL   H28620120   1.682   2.011   1.115 -4.8395  0.1038 -0.2713
   48MOL   H28720121   1.563   2.244   1.039  1.7487  0.9672  0.2367
   48MOL   H28820122   1.633   2.349   0.932 -1.6829  1.1392 -0.1920
   48MOL   H28920123   1.519   2.221   0.884 -1.0406  0.9244  1.6863
   48MOL   H29020124   1.935   2.153   1.046 -0.8702 -1.4815  1.2097
   48MOL   H29120125   1.800   2.197   1.143  2.0139  0.9086  0.5787
   48MOL   H29220126   1.854   2.317   1.022 -0.3098 -0.2006 -1.9312
   48MOL   H29320127   1.891   2.073   0.826  0.4089  1.7123  0.7365
   48MOL   H29420128   1.816   2.229   0.774 -0.3902 -0.3943 -1.1838
   48MOL   H29520129   1.742   2.072   0.739  0.1377 -1.2704  0.1026
   48MOL   C29620130   1.645   1.797   0.851  0.3698  0.1875  0.4059
   48MOL   C29720131   1.546   1.723   0.760 -0.2764 -0.3298  0.1104
   48MOL   C29820132   1.586   1.584   0.722  0.0273  0.0966  0.2959
   48MOL   C29920133   1.542   1.460   0.807 -0.4741  0.2237  0.0768
   48MOL   C30020134   1.573   1.478   0.959 -0.0518  0.0732 -0.1945
   48MOL   C30120135   1.388   1.439   0.786 -0.4220  0.8471  0.5951
   48MOL   C30220136   1.609   1.332   0.755 -0.4529 -0.0089  0.2803
   48MOL   H30320137   1.700   1.723   0.909  1.3943  0.8332  0.2794
   48MOL   H30420138   1.721   1.841   0.787 -1.1476  1.3506 -0.6258
   48MOL   H30520139   1.455   1.712   0.818 -0.2374 -2.1673 -0.1435
   48MOL   H30620140   1.694   1.589   0.715 -0.1237  0.3705 -2.3692
   48MOL   H30720141   1.562   1.563   0.617 -0.3744  2.0962 -0.0436
   48MOL   H30820142   1.550   1.385   1.012 -0.2015  1.0197  1.4165
   48MOL   H30920143   1.680   1.485   0.975 -0.0388 -4.0604  2.0733
   48MOL   H31020144   1.526   1.557   1.017 -1.4043 -2.2365  1.9852
   48MOL   H31120145   1.361   1.417   0.683  1.0626 -2.0329  0.7673
   48MOL   H31220146   1.339   1.358   0.841 -0.3829 -0.2427 -0.9442
   48MOL   H31320147   1.341   1.532   0.818 -0.6649  0.5396  1.1318
   48MOL   H31420148   1.712   1.338   0.721 -0.3894  0.7562  0.6080
   48MOL   H31520149   1.595   1.240   0.812 -1.2012 -0.6475 -0.9105
   48MOL   H31620150   1.564   1.300   0.661  2.7120  0.6544 -1.5335
   48MOL   C31720151   1.519   1.817   0.645  0.4669 -0.9247 -0.1060
   48MOL   C31820152   1.405   1.780   0.543 -0.2924 -0.2045  1.2331
   48MOL   C31920153   1.272   1.797   0.611 -0.2630  0.6868 -0.2683
   48MOL   C32020154   1.131   1.753   0.556 -0.3355 -0.4752 -0.1739
   48MOL   C32120155   1.072   1.833   0.429  0.6380  0.1515 -0.2605
   48MOL   C32220156   1.033   1.778   0.672  0.0291  0.5673 -0.2858
   48MOL   C32320157   1.139   1.603   0.523 -0.3121  0.5345  0.0031
   48MOL   H32420158   1.508   1.923   0.669 -1.9456 -1.3503  0.7547
   48MOL   H32520159   1.610   1.810   0.585 -0.1957 -1.8545 -1.0078
   48MOL   H32620160   1.426   1.682   0.500  1.4982  0.9337 -0.5592
   48MOL   H32720161   1.259   1.904   0.627  3.5126  1.1636  0.0623
   48MOL   H32820162   1.281   1.753   0.710  2.3460  1.3803 -0.1532
   48MOL   H32920163   1.104   1.937   0.431  0.1747  0.2893 -0.1047
   48MOL   H33020164   0.964   1.821   0.420  0.8180 -2.2827  0.4091
   48MOL   H33120165   1.113   1.799   0.334  0.4052  0.7734 -0.5836
   48MOL   H33220166   1.066   1.725   0.762  0.4447  0.5086 -0.4697
   48MOL   H33320167   1.027   1.885   0.693  1.5238  0.6578 -0.2594
   48MOL   H33420168   0.931   1.750   0.647 -0.0637 -0.0343  0.7412
   48MOL   H33520169   1.183   1.531   0.592 -2.6547 -0.6549  0.3370
   48MOL   H33620170   1.199   1.595   0.432 -0.5587 -1.1316 -0.0300
   48MOL   H33720171   1.035   1.571   0.511  0.1053 -1.3925  1.2719
   48MOL   C33820172   1.405   1.873   0.421 -0.6047 -0.7269 -0.4204
   48MOL   C33920173   1.538   1.900   0.344  0.2165 -0.4393  0.7244
   48MOL   C34020174   1.552   2.059   0.364 -0.2859 -0.2570 -0.1847
   48MOL   C34120175   1.691   2.127   0.340 -0.2491  0.1705  0.1577
   48MOL   C34220176   1.801   2.024   0.360  0.3695  0.1503 -0.3938
   48MOL   C34320177   1.710   2.183   0.204 -0.3017 -0.3758 -0.2494
   48MOL   C34420178   1.711   2.247   0.437 -0.4768 -0.8554  0.4355
   48MOL   H34520179   1.354   1.969   0.435  0.4680 -0.1181 -0.6553
   48MOL   H34620180   1.340   1.816   0.355 -2.2912  1.8280 -1.0648
   48MOL   H34720181   1.624   1.845   0.381  1.1980 -0.4934 -1.5760
   48MOL   H34820182   1.527   2.079   0.468  2.4628 -1.5997  0.7725
   48MOL   H34920183   1.475   2.111   0.306  1.6415 -0.4351 -3.0130
   48MOL   H35020184   1.813   1.954   0.278  0.8295  0.4794 -0.6053
   48MOL   H35120185   1.889   2.088   0.358 -1.2748  2.5438  0.9763
   48MOL   H35220186   1.801   1.979   0.460 -1.0206  1.1027  0.0562
   48MOL   H35320187   1.773   2.271   0.202  0.8287 -1.1648  0.2831
   48MOL   H35420188   1.729   2.116   0.120 -1.5787 -1.9917  0.6985
   48MOL   H35520189   1.615   2.228   0.174  0.0434  0.7019  0.2536
   48MOL   H35620190   1.635   2.325   0.426  1.2558  0.6522 -1.2703
   48MOL   H35720191   1.700   2.207   0.538  0.4828  1.0493  1.3341
   48MOL   H35820192   1.810   2.290   0.420 -1.5004  2.2632  1.9075
   48MOL   C35920193   1.515   1.877   0.188 -1.1095 -0.1419 -0.4637
   48MOL   C36020194   1.576   1.746   0.139  0.3147 -0.0966  0.2430
   48MOL   C36120195   1.577   1.736   7.750  0.8323 -0.5006 -0.0463
   48MOL   C36220196   1.719   1.730   7.679 -0.4355 -0.7759 -0.0206
   48MOL   C36320197   1.803   1.855   7.712  0.6128 -0.1135 -0.0921
   48MOL   C36420198   1.681   1.716   7.528 -0.4666 -0.1594  0.1102
   48MOL   C36520199   1.810   1.606   7.702  0.9226 -0.4938 -0.1061
   48MOL   H36620200   1.564   1.957   0.133  0.7309 -1.0836 -0.2256
   48MOL   H36720201   1.414   1.901   0.155 -0.8289  0.9285 -0.5547
   48MOL   H36820202   1.676   1.734   0.179  0.5702 -2.4757 -1.0007
   48MOL   H36920203   1.508   1.663   7.707  1.5672  0.0514 -2.2578
   48MOL   H37020204   1.521   1.815   7.700  0.6003  0.2040  1.3049
   48MOL   H37120205   1.892   1.864   7.650 -0.6199 -0.6591 -1.9818
   48MOL   H37220206   1.737   1.938   7.688  3.1765  1.6970 -1.0772
   48MOL   H37320207   1.843   1.853   0.048  2.5980  0.1798 -0.8332
   48MOL   H37420208   1.637   1.617   7.516 -2.0720  0.4167  1.0673
   48MOL   H37520209   1.760   1.729   7.454  0.6858  0.3748  1.4152
   48MOL   H37620210   1.596   1.777   7.496  0.4651  0.9427 -0.3043
   48MOL   H37720211   1.756   1.512   7.688 -1.2850  1.0270 -1.9275
   48MOL   H37820212   1.840   1.602   0.042  1.7886  1.4161 -0.2584
   48MOL   H37920213   1.893   1.623   7.633  1.6333 -1.4961  0.4702
   48MOL   C38020214   1.482   1.629   0.183  0.5913  0.5892 -0.0163
   48MOL   C38120215   1.555   1.494   0.198  0.0679 -0.2093  0.0917
   48MOL   C38220216   1.457   1.377   0.187 -1.1776  0.1411  0.0109
   48MOL   C38320217   1.423   1.319   0.044 -0.4859  0.4103 -0.0124
   48MOL   C38420218   1.359   1.417   7.708  0.5452  0.8146 -0.0475
   48MOL   C38520219   1.315   1.202   0.072  0.1812  0.1669  0.0042
   48MOL   C38620220   1.544   1.251   7.748 -0.7272 -0.2557  0.1112
   48MOL   H38720221   1.397   1.633   0.116  0.2880 -0.6704  0.2883
   48MOL   H38820222   1.439   1.642   0.282  1.5356  0.7098  0.3852
   48MOL   H38920223   1.620   1.492   0.110  0.5903 -1.2694  0.5028
   48MOL   H39020224   1.501   1.296   0.245  1.6675  1.4399 -0.2339
   48MOL   H39120225   1.362   1.418   0.219 -2.1129  0.1114 -2.5982
   48MOL   H39220226   1.297   1.362   7.636  1.2936  0.8124 -0.6912
   48MOL   H39320227   1.282   1.473   7.762  0.0318  0.9566 -0.9211
   48MOL   H39420228   1.439   1.472   7.659  0.2125  0.9467 -0.4417
   48MOL   H39520229   1.356   1.127   0.140 -0.3817  0.3738  0.5768
   48MOL   H39620230   1.287   1.146   7.749 -0.1719 -0.3083  0.4099
   48MOL   H39720231   1.229   1.238   0.128  1.0270  1.2216  0.6568
   48MOL   H39820232   1.615   1.331   7.723 -1.6533  0.0929 -1.4611
   48MOL   H39920233   1.518   1.197   7.657  2.7176 -1.4970 -0.2120
   48MOL   H40020234   1.586   1.176   0.050 -4.3157 -2.0269  0.4653
   48MOL   C40120235   1.641   1.485   0.326  0.4845  0.2205 -0.0174
   48MOL   C40220236   1.748   1.366   0.338 -1.0322 -0.7394 -0.3941
   48MOL   C40320237   1.885   1.417   0.374  0.1502  0.2898  0.1038
   48MOL   C40420238   2.001   1.322   0.393  0.5723  0.1015  0.1577
   48MOL   C40520239   2.015   1.226   0.272 -0.1512  0.4019 -0.0512
   48MOL   C40620240   1.988   1.234   0.525 -0.3475  0.1707 -0.3622
   48MOL   C40720241   2.127   1.412   0.404  0.3914  0.1622 -0.3735
   48MOL   H40820242   1.681   1.583   0.350 -0.7021  0.5886  0.5219
   48MOL   H40920243   1.563   1.483   0.402  0.3624 -0.5703 -0.1526
   48MOL   H41020244   1.719   1.299   0.418  1.8616 -0.9912  0.4638
   48MOL   H41120245   1.871   1.468   0.469 -0.3897  0.0135  0.1728
   48MOL   H41220246   1.924   1.501   0.316  1.3537 -1.0656 -1.1036
   48MOL   H41320247   1.993   1.279   0.179  0.2372 -1.7354 -1.3963
   48MOL   H41420248   1.937   1.153   0.295  0.9053 -1.0813 -1.0523
   48MOL   H41520249   2.111   1.173   0.268 -1.0465 -1.2739  0.1751
   48MOL   H41620250   1.905   1.163   0.522  0.9813 -1.4571 -0.0141
   48MOL   H41720251   1.967   1.288   0.617  0.8613 -1.6322  0.9993
   48MOL   H41820252   2.078   1.172   0.536  0.5397  1.5629  0.3659
   48MOL   H41920253   2.133   1.451   0.302  0.3693  1.6442  0.1798
   48MOL   H42020254   2.117   1.499   0.469  1.0245 -1.4942  2.0247
   48MOL   H42120255   2.217   1.363   0.440  0.2778  1.0498  1.1369
   48MOL   H42220256   1.759   1.321   0.239  2.0259  0.2860 -0.5666
   49MOL     C120257   6.318   0.437   2.464  0.2044  0.0594 -0.3046
   49MOL     C220258   6.374   0.577   2.429 -0.0309  0.4374 -0.7628
   49MOL     C320259   6.529   0.573   2.424  0.0386 -0.1122  0.3871
   49MOL     C420260   6.615   0.659   2.328  0.5767  0.3379  0.1047
   49MOL     C520261   6.602   0.814   2.358 -0.7111  0.3269 -0.2380
   49MOL     C620262   6.763   0.614   2.354 -0.5567  0.6151  0.1333
   49MOL     C720263   6.567   0.630   2.184  0.2198 -0.3332 -1.3165
   49MOL     H820264   6.372   0.359   2.411  0.0240 -0.6783  0.5901
   49MOL     H920265   6.347   0.415   2.567  0.2899  1.0523 -0.1078
   49MOL    H1020266   6.338   0.597   2.328  0.9849  3.3591 -0.5813
   49MOL    H1120267   6.558   0.473   2.391 -1.8677 -0.8923  0.9952
   49MOL    H1220268   6.565   0.588   2.525  1.9186 -0.8926 -0.1509
   49MOL    H1320269   6.603   0.852   2.460  1.9639 -0.4160  0.0534
   49MOL    H1420270   6.496   0.829   2.338 -0.4360  5.3932  1.3494
   49MOL    H1520271   6.656   0.869   2.281  1.3780 -0.5544  0.5511
   49MOL    H1620272   6.779   0.567   2.451 -2.5745  0.0504  0.2025
   49MOL    H1720273   6.789   0.543   2.274 -0.4567 -0.8507  1.4407
   49MOL    H1820274   6.837   0.693   2.343 -0.2357  0.3451  0.3243
   49MOL    H1920275   6.463   0.656   2.166  0.8245  2.3045 -1.1747
   49MOL    H2020276   6.578   0.523   2.167  4.2282 -0.1376 -0.5268
   49MOL    H2120277   6.625   0.687   2.112  1.9530  0.1665  0.4311
   49MOL    H2220278   6.210   0.435   2.449  0.0577  1.6940  0.3588
   49MOL    C2320279   6.308   0.684   2.525 -0.6152  0.0061 -0.2557
   49MOL    C2420280   6.164   0.731   2.487  0.7014  0.5665 -0.1645
   49MOL    C2520281   6.159   0.808   2.353 -0.7844 -0.5887 -0.1711
   49MOL    C2620282   6.054   0.764   2.242 -0.3000 -0.3192  0.2424
   49MOL    C2720283   6.072   0.856   2.119  0.3287  0.0523 -0.0426
   49MOL    C2820284   6.093   0.621   2.190 -0.2617 -0.1663  0.3042
   49MOL    C2920285   5.908   0.772   2.299  0.0173  0.0483  0.4891
   49MOL    H3020286   6.313   0.629   2.619 -0.1744  0.4862  0.0086
   49MOL    H3120287   6.375   0.770   2.533  0.7148 -1.0326 -0.2481
   49MOL    H3220288   6.105   0.640   2.484  0.2818  0.8266  0.1649
   49MOL    H3320289   6.257   0.797   2.308 -1.6233  0.7765 -2.3920
   49MOL    H3420290   6.140   0.912   2.380 -1.1273  0.4707 -4.2314
   49MOL    H3520291   6.024   0.953   2.136  0.5773 -0.0133  1.0699
   49MOL    H3620292   6.176   0.871   2.092  0.4431 -0.2921  0.2117
   49MOL    H3720293   6.027   0.808   2.031  0.4318 -1.3153  0.6398
   49MOL    H3820294   6.034   0.591   2.103 -1.5137 -2.0971  1.7857
   49MOL    H3920295   6.197   0.629   2.156  0.5452 -2.4498  2.1479
   49MOL    H4020296   6.086   0.544   2.266 -0.6944 -0.0337  0.4005
   49MOL    H4120297   5.885   0.685   2.361  1.5956  0.0101  1.0380
   49MOL    H4220298   5.846   0.747   2.213 -0.5520  0.3618  0.8020
   49MOL    H4320299   5.873   0.866   2.342 -2.6466 -0.7636  0.2195
   49MOL    C4420300   6.095   0.815   2.597 -0.1887 -0.1655 -0.3910
   49MOL    C4520301   6.097   0.744   2.735  0.3577 -0.4799 -0.1866
   49MOL    C4620302   5.961   0.776   2.820  0.0034  0.2801  0.5128
   49MOL    C4720303   5.831   0.686   2.804  0.1554 -0.2162  0.2390
   49MOL    C4820304   5.723   0.741   2.896 -0.3936 -0.3924  0.4137
   49MOL    C4920305   5.854   0.544   2.845  0.7029 -0.2887  0.3796
   49MOL    C5020306   5.785   0.693   2.657  0.0529  0.4388  0.2808
   49MOL    H5120307   6.146   0.911   2.592  1.6793 -1.2155 -2.0697
   49MOL    H5220308   5.996   0.850   2.566  0.2334  0.0786 -1.4873
   49MOL    H5320309   6.123   0.639   2.726  1.0566 -0.3550  0.3872
   49MOL    H5420310   5.936   0.881   2.811 -0.1850  0.1156 -1.1974
   49MOL    H5520311   5.999   0.773   2.922  1.1100 -2.0108  0.0626
   49MOL    H5620312   5.630   0.687   2.879 -0.7291  0.6902 -1.3194
   49MOL    H5720313   5.705   0.846   2.873  0.7625 -0.2403  0.1434
   49MOL    H5820314   5.752   0.724   3.000  0.4144  0.0553  0.2709
   49MOL    H5920315   5.765   0.493   2.882  0.1166 -0.8013 -1.6314
   49MOL    H6020316   5.905   0.490   2.765  1.2044  1.6931 -0.6704
   49MOL    H6120317   5.921   0.552   2.930  0.9402  2.9249 -0.0427
   49MOL    H6220318   5.699   0.634   2.628  0.7854 -0.1904 -0.6538
   49MOL    H6320319   5.777   0.795   2.619  0.4100  0.8786  1.3745
   49MOL    H6420320   5.858   0.653   2.586  0.1978 -0.9913  1.2244
   49MOL    C6520321   6.214   0.802   2.816 -0.1853  0.8118  1.5449
   49MOL    C6620322   6.241   0.736   2.955  0.4325 -0.4275 -0.5713
   49MOL    C6720323   6.292   0.843   3.054 -0.3605  0.0012  0.0823
   49MOL    C6820324   6.195   0.929   3.150  0.1483  0.3984  0.2992
   49MOL    C6920325   6.102   0.835   3.230  0.1275  0.1501  0.3064
   49MOL    C7020326   6.264   1.021   3.257 -0.8022 -0.8888 -0.1404
   49MOL    C7120327   6.110   1.024   3.068 -0.6733  0.2565 -0.1526
   49MOL    H7220328   6.302   0.824   2.756 -2.3152  1.0916 -1.5711
   49MOL    H7320329   6.174   0.901   2.836 -1.0162  0.4546  1.6801
   49MOL    H7420330   6.154   0.681   2.990  0.2300  0.2467  0.0193
   49MOL    H7520331   6.353   0.916   3.002  1.6788 -0.5471  1.6669
   49MOL    H7620332   6.361   0.799   3.125  1.5015  1.5156 -0.7497
   49MOL    H7720333   6.162   0.776   3.300  1.4304 -0.2482 -1.1116
   49MOL    H7820334   6.025   0.886   3.288  0.6902 -0.1249  1.3114
   49MOL    H7920335   6.038   0.763   3.178  0.3417  0.0319  0.2075
   49MOL    H8020336   6.334   1.092   3.212 -2.5949  1.6344  0.9496
   49MOL    H8120337   6.318   0.957   3.327 -2.7207 -1.7764  0.5531
   49MOL    H8220338   6.187   1.070   3.317  0.5005  1.8049 -0.6001
   49MOL    H8320339   6.179   1.096   3.024  1.4691 -1.6368  0.0340
   49MOL    H8420340   6.048   1.066   3.147  0.4504 -1.6247  1.7837
   49MOL    H8520341   6.042   0.981   2.993 -1.2314 -0.1818  0.5938
   49MOL    C8620342   6.348   0.634   2.923 -0.7428  0.8099  0.0100
   49MOL    C8720343   6.377   0.527   3.025  0.8314  0.4142  0.0549
   49MOL    C8820344   6.516   0.465   2.993  0.4373  0.2615  0.0783
   49MOL    C8920345   6.639   0.520   3.070  0.5221 -0.4339 -0.3546
   49MOL    C9020346   6.762   0.453   3.004  0.0442  0.5272 -0.2009
   49MOL    C9120347   6.623   0.475   3.221  0.3409 -0.5343 -0.0964
   49MOL    C9220348   6.649   0.670   3.086  0.2416 -0.0301  0.4842
   49MOL    H9320349   6.443   0.684   2.905 -1.2141  0.6384 -3.1400
   49MOL    H9420350   6.329   0.585   2.828  1.3307 -0.8361  0.4147
   49MOL    H9520351   6.379   0.577   3.122 -0.1106  2.0388 -0.7569
   49MOL    H9620352   6.533   0.468   2.885  0.8520  3.2230  0.1915
   49MOL    H9720353   6.504   0.357   3.000 -1.8427  0.3166 -2.2222
   49MOL    H9820354   6.852   0.482   3.059  0.9004 -0.8483 -0.8813
   49MOL    H9920355   6.779   0.487   2.902  3.6534  2.1790  0.8823
   49MOL   H10020356   6.762   0.345   3.010  2.2330  0.6048  1.6723
   49MOL   H10120357   6.700   0.507   3.291  0.3854  0.5867 -0.6495
   49MOL   H10220358   6.525   0.500   3.262  0.1415 -0.4001 -0.6482
   49MOL   H10320359   6.613   0.367   3.213  2.3475 -0.7411 -0.0009
   49MOL   H10420360   6.564   0.715   3.136  0.3405  0.0493  0.5811
   49MOL   H10520361   6.743   0.691   3.137  0.7203 -1.4508  0.1918
   49MOL   H10620362   6.639   0.720   2.989 -2.2928 -3.1637 -0.9364
   49MOL   C10720363   6.259   0.421   3.040 -0.2564 -0.2365 -0.1505
   49MOL   C10820364   6.248   0.340   3.181 -0.8320 -0.7134 -0.2169
   49MOL   C10920365   6.183   0.437   3.282 -0.0995 -0.8994 -0.4357
   49MOL   C11020366   6.198   0.419   3.423  0.1620  0.1388 -0.3348
   49MOL   C11120367   6.087   0.507   3.497  0.2129 -0.6820 -0.3623
   49MOL   C11220368   6.329   0.474   3.470 -0.1838  0.4494 -0.2457
   49MOL   C11320369   6.194   0.270   3.465  0.4652 -0.3339 -0.3747
   49MOL   H11420370   6.263   0.346   2.962 -1.0376  1.1928 -1.5850
   49MOL   H11520371   6.165   0.470   3.015 -0.9248  0.4836  3.4155
   49MOL   H11620372   6.346   0.309   3.220 -0.2728 -0.6608 -1.5511
   49MOL   H11720373   6.212   0.540   3.260 -2.6999 -0.2227 -0.7916
   49MOL   H11820374   6.079   0.447   3.254 -0.9370 -0.4849  2.6121
   49MOL   H11920375   6.103   0.609   3.463  1.6908 -0.3651  1.2254
   49MOL   H12020376   5.983   0.479   3.478  0.0334 -1.3916  1.6417
   49MOL   H12120377   6.113   0.523   3.601 -0.1281  0.7215 -0.4771
   49MOL   H12220378   6.420   0.428   3.432 -0.2277  0.0460  0.1378
   49MOL   H12320379   6.329   0.464   3.579  1.7802 -2.9198 -0.4881
   49MOL   H12420380   6.348   0.576   3.437  1.0633 -0.0247 -1.0249
   49MOL   H12520381   6.090   0.237   3.463  0.3225  0.1374 -1.0374
   49MOL   H12620382   6.235   0.261   3.565 -0.4243 -0.4678 -0.0177
   49MOL   H12720383   6.242   0.196   3.401 -0.5614 -0.4640 -1.0014
   49MOL   C12820384   6.172   0.207   3.147  0.2783  0.3651  0.2269
   49MOL   C12920385   6.256   0.088   3.098 -0.1079  0.3675 -0.3879
   49MOL   C13020386   6.347   0.034   3.211  0.4001 -0.9489 -0.1821
   49MOL   C13120387   6.490   7.746   3.168  0.4009  0.5697 -0.8530
   49MOL   C13220388   6.566   7.727   3.303 -0.3359  0.3901 -0.4639
   49MOL   C13320389   6.579   0.076   3.083  0.2190  0.1051  0.2796
   49MOL   C13420390   6.484   7.608   3.098 -0.7455  0.1349  0.5477
   49MOL   H13520391   6.089   0.235   3.083 -1.3377  0.3126  2.2658
   49MOL   H13620392   6.113   0.179   3.234  1.0616  1.1021  1.0109
   49MOL   H13720393   6.326   0.121   3.021 -1.5929  1.9074 -1.1270
   49MOL   H13820394   6.380   0.112   3.280 -0.2872 -0.2292 -0.6661
   49MOL   H13920395   6.290   7.721   3.260 -1.3288  0.4488  0.1267
   49MOL   H14020396   6.650   7.661   3.283  0.0063  1.4547 -2.5660
   49MOL   H14120397   6.506   7.673   3.377 -0.2775  1.3959  0.3331
   49MOL   H14220398   6.587   0.059   3.347 -1.0677  0.2180  0.2880
   49MOL   H14320399   6.681   0.036   3.078 -0.0632 -0.5484 -0.3583
   49MOL   H14420400   6.598   0.176   3.120  0.2847  0.2324 -0.0971
   49MOL   H14520401   6.532   0.079   2.985 -0.5954 -3.1973  0.5254
   49MOL   H14620402   6.429   7.610   3.004  1.3876  2.0158 -0.6944
   49MOL   H14720403   6.588   7.579   3.086 -0.9144  0.1640 -1.0854
   49MOL   H14820404   6.428   7.538   3.161 -0.1119 -0.6341  0.2550
   49MOL   C14920405   6.153   7.742   3.059  0.8671  0.0435 -0.0272
   49MOL   C15020406   6.075   7.749   2.930  0.1515 -0.1601  0.4570
   49MOL   C15120407   6.168   0.017   2.809  0.4636  0.1760  0.1312
   49MOL   C15220408   6.094   0.100   2.694  0.5096 -0.1517  0.1590
   49MOL   C15320409   5.964   0.033   2.641 -0.6249 -0.4150 -0.0934
   49MOL   C15420410   6.200   0.110   2.587  0.3038 -0.2464 -0.6022
   49MOL   C15520411   6.055   0.240   2.740  0.0875  0.5739 -0.2129
   49MOL   H15620412   6.083   7.721   3.140 -0.0856 -2.8778 -1.5499
   49MOL   H15720413   6.206   7.648   3.048 -1.6821 -1.1871 -2.5454
   49MOL   H15820414   6.005   0.066   2.941 -0.5632 -0.6946 -0.0469
   49MOL   H15920415   6.196   7.684   2.775  0.6079  0.9292 -1.9940
   49MOL   H16020416   6.263   0.062   2.836  1.1660 -1.4477  0.4241
   49MOL   H16120417   5.912   0.105   2.578  1.1538 -0.9131 -2.1695
   49MOL   H16220418   5.969   7.702   2.591  0.0826 -0.6749  0.4716
   49MOL   H16320419   5.894   0.024   2.725 -0.3356  0.6829  0.2641
   49MOL   H16420420   6.281   0.180   2.609 -0.0979  0.4523 -1.3023
   49MOL   H16520421   6.153   0.146   2.495 -0.6529 -2.1248 -0.8703
   49MOL   H16620422   6.244   0.013   2.565  1.0835 -0.1761  0.6083
   49MOL   H16720423   6.139   0.297   2.780 -0.1882  0.5875  0.3540
   49MOL   H16820424   6.023   0.301   2.655 -0.1563 -0.7551 -1.0831
   49MOL   H16920425   5.986   0.243   2.825  0.3066  1.2915 -0.0544
   49MOL   C17020426   6.000   7.618   2.898 -0.3031  0.5212 -0.3904
   49MOL   C17120427   5.872   7.603   2.988  0.2803  0.5529 -0.2803
   49MOL   C17220428   5.846   7.444   3.005  0.1309 -0.3306 -0.7857
   49MOL   C17320429   5.895   7.386   3.141 -0.6227 -0.3117 -0.2957
   49MOL   C17420430   5.874   7.235   3.151  0.4736  0.5169  0.5317
   49MOL   C17520431   5.817   7.441   3.261 -0.1834  0.1512 -0.9542
   49MOL   C17620432   6.047   7.405   3.172 -0.4570  0.2605  0.2241
   49MOL   H17720433   6.076   7.541   2.908  1.4995  2.0917 -1.7234
   49MOL   H17820434   5.983   7.613   2.790  0.5575 -2.6638 -0.4196
   49MOL   H17920435   5.904   7.636   3.088 -0.5732 -1.1140  0.5527
   49MOL   H18020436   5.739   7.429   3.000  0.2043 -1.6637  1.1470
   49MOL   H18120437   5.888   7.396   2.916  0.5799 -0.1701 -0.6623
   49MOL   H18220438   5.889   7.201   3.253 -1.6264 -2.5179 -0.1086
   49MOL   H18320439   5.772   7.213   3.121  0.5779  0.3681  0.2858
   49MOL   H18420440   5.930   7.173   3.081 -0.9951  0.5819 -0.7334
   49MOL   H18520441   5.712   7.416   3.249 -0.1254 -0.1419 -0.8676
   49MOL   H18620442   5.844   7.414   3.363 -0.3876  2.5164 -0.2551
   49MOL   H18720443   5.827   7.549   3.263  1.9669 -0.0301  0.8269
   49MOL   H18820444   6.107   7.338   3.110  0.6172  1.1349  0.3030
   49MOL   H18920445   6.081   7.509   3.172 -1.8483  0.7307  0.1797
   49MOL   H19020446   6.058   7.390   3.279 -1.5201  0.9103  0.4254
   49MOL   C19120447   5.749   7.681   2.947  0.0120  0.0667  0.2227
   49MOL   C19220448   5.660   7.756   3.053  0.6205 -0.1787  0.4092
   49MOL   C19320449   5.751   0.085   3.147 -0.5168 -0.3970  0.6477
   49MOL   C19420450   5.703   0.225   3.180 -0.5221 -0.2259 -0.2090
   49MOL   C19520451   5.594   0.225   3.298 -0.2678  0.3199 -0.1060
   49MOL   C19620452   5.648   0.307   3.062  0.8281  0.6668 -0.2279
   49MOL   C19720453   5.824   0.297   3.239  0.3289  0.6419 -0.5203
   49MOL   H19820454   5.785   0.007   2.900 -3.1391  1.1152 -0.2182
   49MOL   H19920455   5.684   7.637   2.872 -1.0101 -0.2692  1.2856
   49MOL   H20020456   5.594   0.049   2.990  1.9622 -0.2965 -1.1284
   49MOL   H20120457   5.852   0.101   3.109  0.3356 -2.3517  2.0227
   49MOL   H20220458   5.775   0.035   3.240  3.3018 -0.4696 -0.2918
   49MOL   H20320459   5.515   0.151   3.286  0.0864  0.0796 -0.9903
   49MOL   H20420460   5.633   0.217   3.400 -1.0727 -0.3023  0.1568
   49MOL   H20520461   5.552   0.326   3.304 -1.4159 -0.1894  0.7048
   49MOL   H20620462   5.728   0.298   2.989  0.3005  0.4282 -0.7834
   49MOL   H20720463   5.551   0.270   3.027  0.6262  0.9170  0.0728
   49MOL   H20820464   5.634   0.412   3.086 -1.3508  0.6085 -1.1135
   49MOL   H20920465   5.793   0.390   3.287  0.8111  1.0237 -0.9541
   49MOL   H21020466   5.863   0.239   3.323  3.2117 -0.2198 -2.4002
   49MOL   H21120467   5.892   0.329   3.161 -0.1787  1.8499 -0.4830
   49MOL   C21220468   5.576   7.653   3.134  0.5797 -0.1111 -0.0400
   49MOL   C21320469   5.443   7.621   3.058 -0.1262  0.0821 -0.5064
   49MOL   C21420470   5.348   7.751   3.083  0.7310  0.1904 -0.0880
   49MOL   C21520471   5.250   0.041   2.977 -0.1439 -0.3244 -0.1254
   49MOL   C21620472   5.330   0.064   2.841  0.2782 -0.1322 -0.3001
   49MOL   C21720473   5.136   7.708   2.960  0.1446  0.3008 -0.2910
   49MOL   C21820474   5.190   0.173   3.012 -0.3623  0.3484 -0.9368
   49MOL   H21920475   5.627   7.557   3.147 -1.2415 -1.2688 -1.3348
   49MOL   H22020476   5.542   7.688   3.232  3.1798 -1.3973  1.3984
   49MOL   H22120477   5.468   7.617   2.952 -0.8055 -1.8695 -0.6169
   49MOL   H22220478   5.413   0.067   3.115 -1.6144  1.8113  0.6873
   49MOL   H22320479   5.284   7.736   3.170 -1.2073  0.9737 -1.3197
   49MOL   H22420480   5.411   0.137   2.849 -1.3429  1.5399  1.4345
   49MOL   H22520481   5.264   0.090   2.758 -0.1422  0.6043  0.2565
   49MOL   H22620482   5.372   7.733   2.814 -0.2790 -0.4226 -0.1312
   49MOL   H22720483   5.051   7.754   2.910  0.2025  2.0845  1.2250
   49MOL   H22820484   5.156   7.609   2.919  0.4608  0.0393  0.4862
   49MOL   H22920485   5.092   7.693   3.059 -0.4178  0.7309 -0.4742
   49MOL   H23020486   5.162   0.176   3.118  2.7957 -0.3062 -0.0365
   49MOL   H23120487   5.096   0.197   2.962 -1.1521 -0.9502 -0.1111
   49MOL   H23220488   5.264   0.253   3.008  0.8709 -0.4387  3.2942
   49MOL   C23320489   5.370   7.497   3.104 -0.6438 -0.5532 -0.3081
   49MOL   C23420490   5.406   7.359   3.027  0.2843 -0.5192  0.2747
   49MOL   C23520491   5.338   7.224   3.087 -0.8634 -0.0533  0.2496
   49MOL   C23620492   5.358   7.176   3.233  0.2108  0.0273  0.1174
   49MOL   C23720493   5.502   7.217   3.273  0.3313 -0.2567 -0.4390
   49MOL   C23820494   5.257   7.242   3.325  0.0719  0.1331  0.3227
   49MOL   C23920495   5.347   7.021   3.241  0.6672 -0.3744  0.7225
   49MOL   H24020496   5.262   7.513   3.101 -0.5605  0.4034  1.4365
   49MOL   H24120497   5.397   7.487   3.209  0.5158  1.2363 -0.4226
   49MOL   H24220498   5.514   7.344   3.027  0.2061 -1.2377 -2.0117
   49MOL   H24320499   5.233   7.245   3.069 -1.1460  2.7629  4.5372
   49MOL   H24420500   5.374   7.138   3.030  0.0353  0.4076  0.0995
   49MOL   H24520501   5.509   7.179   3.375 -0.1577 -2.3283 -1.1484
   49MOL   H24620502   5.526   7.323   3.277  1.0138 -0.3554 -1.5258
   49MOL   H24720503   5.580   7.168   3.214 -0.6011 -0.3806 -1.5764
   49MOL   H24820504   5.159   7.193   3.328 -1.0651  2.1625 -2.0777
   49MOL   H24920505   5.283   7.239   3.430  0.2188  0.3343  0.2904
   49MOL   H25020506   5.249   7.348   3.304 -0.7171 -0.4034 -2.2540
   49MOL   H25120507   5.437   6.985   3.190 -0.3225 -1.9451  0.0547
   49MOL   H25220508   5.332   6.980   3.341 -2.2522  0.4025  0.6310
   49MOL   H25320509   5.263   6.987   3.181  1.0033  0.8627 -0.4731
   49MOL   C25420510   5.357   7.377   2.885 -0.6414  0.1407  0.4399
   49MOL   C25520511   5.389   7.265   2.782 -0.6872  0.0698  0.4170
   49MOL   C25620512   5.542   7.247   2.759 -0.7661 -0.2119 -0.0168
   49MOL   C25720513   5.615   7.109   2.747 -0.0169 -0.0887  0.0227
   49MOL   C25820514   5.550   7.023   2.642 -0.2672 -0.3137  0.5626
   49MOL   C25920515   5.601   7.035   2.880  0.0597  0.1276 -0.1514
   49MOL   C26020516   5.762   7.141   2.715 -0.0497  0.2565  0.4451
   49MOL   H26120517   5.398   7.467   2.839 -0.6595  1.1081  2.2674
   49MOL   H26220518   5.250   7.400   2.889 -0.8189 -0.6856  0.4375
   49MOL   H26320519   5.364   7.165   2.818  2.5485 -1.0093 -0.1917
   49MOL   H26420520   5.571   7.305   2.671  0.8569 -0.3036  0.4393
   49MOL   H26520521   5.601   7.303   2.831 -1.7838 -1.8119  2.0977
   49MOL   H26620522   5.565   7.064   2.543 -0.5881  0.2478  0.7393
   49MOL   H26720523   5.441   7.024   2.646 -0.2982  1.4292 -0.1521
   49MOL   H26820524   5.586   6.921   2.645 -2.0950 -1.0006  0.0317
   49MOL   H26920525   5.634   7.104   2.957 -0.1557 -0.2647  0.2958
   49MOL   H27020526   5.672   6.953   2.873  1.5673  1.1530  2.4765
   49MOL   H27120527   5.499   6.997   2.886 -0.6974  1.9528 -1.1121
   49MOL   H27220528   5.810   7.199   2.794 -1.9204  0.5356  1.4091
   49MOL   H27320529   5.814   7.047   2.700 -0.6664 -0.2319  1.3021
   49MOL   H27420530   5.762   7.188   2.616  0.8357  0.4445  0.5323
   49MOL   C27520531   5.313   7.288   2.643  1.6369  0.9635  0.2503
   49MOL   C27620532   5.154   7.309   2.644  0.5865  0.2006 -0.5221
   49MOL   C27720533   5.090   7.376   2.515  0.0396 -0.2018 -0.7433
   49MOL   C27820534   5.079   7.529   2.503 -0.0938 -0.2183 -0.1473
   49MOL   C27920535   5.218   7.591   2.503  0.2879 -0.0605 -0.3014
   49MOL   C28020536   4.995   7.562   2.379 -0.3647 -0.0154 -0.7364
   49MOL   C28120537   5.007   7.581   2.624 -0.5398  0.0544  0.4288
   49MOL   H28220538   5.370   7.363   2.588  2.0715 -0.8192 -1.7948
   49MOL   H28320539   5.322   7.197   2.584  2.4332  1.4008 -0.3131
   49MOL   H28420540   5.132   7.365   2.735  0.7619  0.1135 -0.4261
   49MOL   H28520541   4.995   7.324   2.502  0.1016 -0.6638  0.5630
   49MOL   H28620542   5.159   7.347   2.436  0.8787  0.8100 -0.3967
   49MOL   H28720543   5.298   7.543   2.447  1.3035 -1.8206  2.5685
   49MOL   H28820544   5.215   7.694   2.467 -0.8049  1.0453  2.8369
   49MOL   H28920545   5.272   7.603   2.597 -0.7671  0.7755  0.2030
   49MOL   H29020546   4.894   7.520   2.370 -0.6923  0.2055  1.5243
   49MOL   H29120547   5.044   7.517   2.293  1.5053  1.7753 -0.6277
   49MOL   H29220548   4.983   7.668   2.359 -2.0097  0.0921  0.6759
   49MOL   H29320549   4.906   7.543   2.637 -1.1106  1.3769 -0.1061
   49MOL   H29420550   4.977   7.685   2.611 -0.8401 -0.2625 -1.5728
   49MOL   H29520551   5.062   7.575   2.719 -0.8801  0.2700  0.6393
   49MOL   C29620552   5.097   7.168   2.655  0.2433 -0.3507  0.2836
   49MOL   C29720553   4.959   7.154   2.737 -0.5586 -0.1309 -0.0710
   49MOL   C29820554   4.981   7.192   2.890  0.5090  0.0455  0.1696
   49MOL   C29920555   4.871   7.271   2.973 -0.3920  0.0426  0.1702
   49MOL   C30020556   4.859   7.419   2.925 -0.1426 -0.0031  0.5938
   49MOL   C30120557   4.731   7.206   2.969  0.3046 -0.6148  0.9877
   49MOL   C30220558   4.919   7.277   3.126 -0.0067  0.1921 -0.2823
   49MOL   H30320559   5.170   7.104   2.705  1.6845  2.5395  2.0108
   49MOL   H30420560   5.087   7.130   2.553  0.3118 -0.1745  0.2120
   49MOL   H30520561   4.884   7.214   2.685  1.7545  1.4672 -1.6710
   49MOL   H30620562   5.079   7.239   2.896  1.2048 -0.9606 -2.5112
   49MOL   H30720563   5.010   7.108   2.953 -0.3499  0.4237  1.0886
   49MOL   H30820564   4.821   7.425   2.823 -0.1534 -0.0188  0.5966
   49MOL   H30920565   4.786   7.479   2.979 -0.9197 -0.7023  0.3400
   49MOL   H31020566   4.953   7.473   2.933  1.4189 -2.4361 -0.9703
   49MOL   H31120567   4.721   7.100   2.992 -1.1205 -0.8441 -0.6225
   49MOL   H31220568   4.666   7.265   3.033 -0.1375 -0.7766  0.6884
   49MOL   H31320569   4.705   7.224   2.865  1.2594 -1.4827  0.5839
   49MOL   H31420570   4.831   7.307   3.183 -0.6722  1.0123 -1.7021
   49MOL   H31520571   4.947   7.183   3.174  1.7030 -0.2828 -2.1674
   49MOL   H31620572   4.993   7.355   3.142  0.5743 -0.3578 -0.2878
   49MOL   C31720573   4.908   7.009   2.726  0.9391 -1.2168 -0.3279
   49MOL   C31820574   4.833   6.975   2.593  0.0013 -0.3505 -0.0508
   49MOL   C31920575   4.833   6.819   2.591  0.0179 -0.1383  0.0960
   49MOL   C32020576   4.952   6.744   2.526  0.5623  0.0344  0.1362
   49MOL   C32120577   4.931   6.751   2.372 -0.4765 -1.1209  1.0171
   49MOL   C32220578   4.935   6.598   2.575  0.5803  0.8340 -0.5106
   49MOL   C32320579   5.093   6.797   2.557 -0.5448 -0.3648  0.0156
   49MOL   H32420580   4.998   6.952   2.747  0.2750 -1.6667  1.3547
   49MOL   H32520581   4.839   7.003   2.810 -0.0587 -0.1523 -1.0411
   49MOL   H32620582   4.906   7.013   2.521  1.6050  2.0053  2.6858
   49MOL   H32720583   4.737   6.784   2.553  0.7506 -0.1512 -1.7932
   49MOL   H32820584   4.835   6.792   2.697  0.5277 -2.6901 -0.5081
   49MOL   H32920585   4.999   6.687   2.316 -0.7051  0.8344 -1.5736
   49MOL   H33020586   4.960   6.850   2.337  0.6235 -2.4792 -2.0916
   49MOL   H33120587   4.832   6.725   2.334  0.3597 -1.1424 -1.2438
   49MOL   H33220588   4.839   6.550   2.555  1.3619  0.2206 -2.9930
   49MOL   H33320589   5.007   6.529   2.529 -1.5202 -1.6955 -0.1281
   49MOL   H33420590   4.945   6.595   2.683 -0.7739  1.0983 -0.3698
   49MOL   H33520591   5.110   6.904   2.548 -0.9324 -0.2963  0.0928
   49MOL   H33620592   5.160   6.756   2.481  0.9748  1.4819  0.3237
   49MOL   H33720593   5.121   6.772   2.659 -0.8253  2.8440  0.9200
   49MOL   C33820594   4.687   7.025   2.573  0.6440  0.2535 -0.2191
   49MOL   C33920595   4.643   7.042   2.427 -0.4474  0.2607  0.2791
   49MOL   C34020596   4.715   7.162   2.348  0.0983  0.0042  0.5689
   49MOL   C34120597   4.757   7.155   2.200 -0.7147 -0.2410  0.2992
   49MOL   C34220598   4.841   7.281   2.170 -0.0339  0.5930  0.1475
   49MOL   C34320599   4.857   7.037   2.162  0.2360 -0.2135 -0.2868
   49MOL   C34420600   4.626   7.154   2.113  0.2514  0.7917  0.3112
   49MOL   H34520601   4.675   7.120   2.625 -0.4838  1.1357 -2.0596
   49MOL   H34620602   4.623   6.958   2.632  0.2759  1.4093  0.7052
   49MOL   H34720603   4.672   6.949   2.378  2.0253  0.3193  1.5078
   49MOL   H34820604   4.795   7.198   2.412  1.7302  0.0338 -1.4319
   49MOL   H34920605   4.655   7.247   2.379 -2.2502 -1.2501 -0.3749
   49MOL   H35020606   4.868   7.282   2.065  1.3209  0.1832  0.4826
   49MOL   H35120607   4.782   7.369   2.198 -0.7127  0.6492 -1.4377
   49MOL   H35220608   4.931   7.279   2.231 -1.1790  0.8073  1.8712
   49MOL   H35320609   4.956   7.044   2.206  0.9178  0.0214 -1.8360
   49MOL   H35420610   4.806   6.943   2.185 -0.5173  0.7435  2.1523
   49MOL   H35520611   4.865   7.041   2.054  3.0402 -1.3464 -0.1583
   49MOL   H35620612   4.573   7.059   2.109  1.5182  0.0953 -0.3527
   49MOL   H35720613   4.555   7.236   2.117 -1.4581 -0.5799 -1.3808
   49MOL   H35820614   4.652   7.178   2.010  0.3373 -1.3197 -0.1869
   49MOL   C35920615   4.486   7.037   2.430  0.5654 -0.6286 -0.0531
   49MOL   C36020616   4.408   6.907   2.464 -0.2287  0.2452 -0.1748
   49MOL   C36120617   4.390   6.821   2.331 -0.3906 -0.5890 -0.3948
   49MOL   C36220618   4.372   6.664   2.355 -0.2087  0.1376 -0.9451
   49MOL   C36320619   4.505   6.602   2.409  0.5622  0.2245  0.7650
   49MOL   C36420620   4.332   6.602   2.219 -0.8113 -0.1734 -0.2646
   49MOL   C36520621   4.257   6.629   2.450  0.2669 -0.3053 -0.1001
   49MOL   H36620622   4.465   7.058   2.325 -1.0385 -0.3942  0.2931
   49MOL   H36720623   4.462   7.129   2.483 -0.8783 -1.1727  0.2793
   49MOL   H36820624   4.465   6.836   2.523  2.1099  1.0985 -1.3306
   49MOL   H36920625   4.310   6.849   2.263 -0.2887 -0.1254 -0.3222
   49MOL   H37020626   4.478   6.843   2.271  0.0477 -1.7582 -0.2041
   49MOL   H37120627   4.515   6.627   2.515 -3.7210  2.9760  0.6177
   49MOL   H37220628   4.497   6.493   2.410 -1.6843  0.3741  1.0650
   49MOL   H37320629   4.593   6.619   2.347 -0.0413 -0.8019 -0.3920
   49MOL   H37420630   4.331   6.494   2.227  0.1901 -0.2252 -0.6573
   49MOL   H37520631   4.411   6.629   2.148 -0.1008 -2.0715 -0.2216
   49MOL   H37620632   4.233   6.635   2.187 -0.7011 -0.3524 -0.7821
   49MOL   H37720633   4.162   6.674   2.422 -1.1319 -2.5157  0.8974
   49MOL   H37820634   4.279   6.668   2.549  0.1403  1.4938 -0.7598
   49MOL   H37920635   4.237   6.522   2.447  1.7439 -0.5609 -2.4064
   49MOL   C38020636   4.273   6.934   2.531 -0.1782 -0.3089  0.3073
   49MOL   C38120637   4.284   6.977   2.682  0.6129 -0.2598 -0.2171
   49MOL   C38220638   4.274   6.855   2.781 -0.1216 -0.0498 -0.4538
   49MOL   C38320639   4.342   6.870   2.922 -0.2987  0.7181 -0.0503
   49MOL   C38420640   4.298   6.744   3.004 -0.1224  0.0461  0.5107
   49MOL   C38520641   4.292   6.996   2.999 -0.2814  0.1525  0.5073
   49MOL   C38620642   4.492   6.864   2.901 -0.7446 -0.5060 -0.2338
   49MOL   H38720643   4.193   6.866   2.502 -1.6425  1.0829  1.0263
   49MOL   H38820644   4.240   7.025   2.481  1.9441  0.7250  0.7361
   49MOL   H38920645   4.375   7.035   2.692 -0.5330  1.4839  0.3469
   49MOL   H39020646   4.170   6.823   2.793  0.0431 -0.1415  0.8769
   49MOL   H39120647   4.327   6.771   2.736  0.2535  0.2741 -0.6120
   49MOL   H39220648   4.195   6.710   2.991 -0.2346 -0.0612  1.6332
   49MOL   H39320649   4.360   6.660   2.974  0.8488  0.8992  0.1257
   49MOL   H39420650   4.325   6.770   3.106 -0.6974 -0.2350  0.7366
   49MOL   H39520651   4.185   6.983   3.014 -0.0374 -1.5471  0.9001
   49MOL   H39620652   4.318   7.086   2.944  0.5617 -0.4623 -0.1196
   49MOL   H39720653   4.339   7.004   3.097  1.5900 -0.8851 -0.2707
   49MOL   H39820654   4.538   6.875   2.999  0.2404 -0.4550 -0.7031
   49MOL   H39920655   4.532   6.937   2.831 -1.9074 -0.5885 -1.0001
   49MOL   H40020656   4.527   6.767   2.866  1.1354  0.1899 -0.3392
   49MOL   C40120657   4.177   7.081   2.704  0.2292  0.2432 -0.0316
   49MOL   C40220658   4.229   7.224   2.661  0.0199 -0.0064 -0.1221
   49MOL   C40320659   4.117   7.330   2.686  0.0506 -0.4591 -0.5546
   49MOL   C40420660   4.147   7.470   2.640  0.3035 -0.0060  0.0448
   49MOL   C40520661   4.287   7.521   2.687  1.1994  0.1111 -0.0067
   49MOL   C40620662   4.034   7.568   2.689 -0.1063 -0.3796 -0.0164
   49MOL   C40720663   4.138   7.469   2.489 -0.5549  0.6007 -0.5858
   49MOL   H40820664   4.082   7.048   2.662  1.7305 -0.7351 -2.7648
   49MOL   H40920665   4.147   7.091   2.808  0.5707  0.2670  0.0642
   49MOL   H41020666   4.322   7.256   2.707 -0.5750  2.6459 -0.7008
   49MOL   H41120667   4.112   7.329   2.794  1.2512 -4.1159 -0.4560
   49MOL   H41220668   4.028   7.287   2.640 -0.4459  0.6612 -0.6361
   49MOL   H41320669   4.302   7.627   2.665  0.9009 -0.1998 -1.7645
   49MOL   H41420670   4.369   7.471   2.635  0.6691 -0.1797 -0.5635
   49MOL   H41520671   4.298   7.503   2.794 -1.4090 -1.1657  0.0832
   49MOL   H41620672   4.008   7.554   2.794  0.3457  0.9810  0.2892
   49MOL   H41720673   3.937   7.550   2.643  0.1587 -2.4235  0.1737
   49MOL   H41820674   4.054   7.675   2.684 -0.8131 -0.2807 -0.7202
   49MOL   H41920675   4.126   7.568   2.445  1.5498 -0.3045 -3.3858
   49MOL   H42020676   4.227   7.415   2.455 -1.5299 -0.7352 -1.0443
   49MOL   H42120677   4.047   7.422   2.453 -0.0532 -0.1968 -0.8350
   49MOL   H42220678   4.245   7.224   2.553  1.4580  0.1889  0.0812
   50MOL     C120679   3.058   0.112   2.152  0.8152 -0.3996  0.0242
   50MOL     C220680   3.150   0.023   2.065 -0.3444  0.4084  0.1192
   50MOL     C320681   3.111   7.643   2.098 -0.8533 -0.1575  0.6894
   50MOL     C420682   3.064   7.545   1.990 -0.1625 -0.8419 -0.5697
   50MOL     C520683   3.160   7.551   1.869 -0.5402  0.1800  0.8300
   50MOL     C620684   3.057   7.400   2.034 -0.4265  0.1823 -0.4635
   50MOL     C720685   2.921   7.581   1.948 -0.7410 -0.2553  0.4086
   50MOL     H820686   3.081   0.092   2.257 -1.6536 -0.3722  0.5899
   50MOL     H920687   3.078   0.218   2.135 -0.9355 -0.2680 -1.4151
   50MOL    H1020688   3.125   0.045   1.962 -1.3471  1.1281  0.4996
   50MOL    H1120689   3.030   7.636   2.170  0.8671  0.4659  2.7412
   50MOL    H1220690   3.196   7.593   2.144 -0.7727  0.0875  0.8052
   50MOL    H1320691   3.147   7.463   1.805  0.9810 -0.6520  1.6089
   50MOL    H1420692   3.263   7.554   1.904 -0.3464  2.0329  0.1177
   50MOL    H1520693   3.153   7.640   1.807  0.6696 -0.0804  0.2787
   50MOL    H1620694   3.152   7.349   2.045  0.6774  2.2919  0.1455
   50MOL    H1720695   3.002   7.392   2.128  0.0648  0.4903 -0.1468
   50MOL    H1820696   3.008   7.343   1.955  2.3275 -2.8519 -0.0915
   50MOL    H1920697   2.923   7.686   1.917  0.2656 -0.2455  0.5030
   50MOL    H2020698   2.849   7.566   2.029 -0.3570 -0.6135  0.6796
   50MOL    H2120699   2.892   7.513   1.869 -0.2056  1.5380 -1.3655
   50MOL    H2220700   2.950   0.103   2.141  0.6179  1.4365  0.2341
   50MOL    C2320701   3.303   0.043   2.088  0.4976 -0.4239  0.3655
   50MOL    C2420702   3.362   0.169   2.006 -0.8296  0.2580  0.0009
   50MOL    C2520703   3.345   0.168   1.851  0.1526  0.0856  0.2008
   50MOL    C2620704   3.273   0.287   1.785 -0.6001 -0.0852 -0.6304
   50MOL    C2720705   3.121   0.300   1.822  1.2776  0.5587 -0.4209
   50MOL    C2820706   3.346   0.415   1.827 -0.2773  0.1080 -0.6599
   50MOL    C2920707   3.281   0.272   1.632 -0.2139  0.2309  0.6505
   50MOL    H3020708   3.331   0.041   2.193 -2.4607  0.5671  1.2162
   50MOL    H3120709   3.367   7.723   2.067 -0.0335 -0.3345 -1.7193
   50MOL    H3220710   3.298   0.251   2.039 -1.0417  0.6160 -1.2771
   50MOL    H3320711   3.290   0.079   1.821  0.2532 -0.5490  1.8496
   50MOL    H3420712   3.439   0.148   1.800 -0.8076 -1.3479 -1.0756
   50MOL    H3520713   3.065   0.210   1.796 -0.8760  2.0752 -1.2567
   50MOL    H3620714   3.113   0.326   1.927  0.1249 -1.0777 -0.0763
   50MOL    H3720715   3.079   0.387   1.771 -1.0669  0.8658  1.9305
   50MOL    H3820716   3.294   0.495   1.772  1.0249  0.4920 -1.3646
   50MOL    H3920717   3.321   0.449   1.927 -1.6419 -4.6099  0.7143
   50MOL    H4020718   3.454   0.415   1.812 -0.2233 -0.4801 -0.2670
   50MOL    H4120719   3.261   0.364   1.578  3.0486 -0.6374 -2.2328
   50MOL    H4220720   3.210   0.203   1.587  0.9929  0.5214 -1.7638
   50MOL    H4320721   3.381   0.239   1.602 -1.4657 -1.9142 -1.2475
   50MOL    C4420722   3.507   0.187   2.045  0.0756 -0.8222  0.2820
   50MOL    C4520723   3.536   0.249   2.186 -0.5019  0.3572 -0.2272
   50MOL    C4620724   3.500   0.398   2.205  0.2266 -0.3779 -0.2633
   50MOL    C4720725   3.410   0.430   2.326 -0.4470 -0.7922 -0.0632
   50MOL    C4820726   3.467   0.385   2.462  0.7114 -0.6028  0.2503
   50MOL    C4920727   3.270   0.373   2.317  0.1275 -0.3561 -0.6428
   50MOL    C5020728   3.402   0.576   2.330 -0.1253  0.2495  0.0915
   50MOL    H5120729   3.561   0.093   2.027  1.2046 -0.1126 -0.1095
   50MOL    H5220730   3.559   0.243   1.967  0.7292  0.7665  1.8259
   50MOL    H5320731   3.473   0.181   2.243  2.4958 -3.2437 -1.0259
   50MOL    H5420732   3.451   0.425   2.111 -0.7140 -1.9081 -0.2381
   50MOL    H5520733   3.587   0.463   2.207  0.1520 -0.3079  1.6237
   50MOL    H5620734   3.571   0.406   2.483  0.2957  2.5860 -0.5091
   50MOL    H5720735   3.454   0.278   2.480  2.0963 -0.9416 -0.7135
   50MOL    H5820736   3.413   0.439   2.540  1.6538 -0.7851  1.0287
   50MOL    H5920737   3.217   0.377   2.222 -1.9479  3.9635  0.5602
   50MOL    H6020738   3.266   0.269   2.348 -0.1902 -0.1025  0.1641
   50MOL    H6120739   3.206   0.432   2.382  0.4884 -0.8660  0.1870
   50MOL    H6220740   3.496   0.626   2.352  0.5353 -0.8838 -0.1975
   50MOL    H6320741   3.369   0.620   2.236  1.1848  2.9837  0.8473
   50MOL    H6420742   3.335   0.624   2.402  0.3298  0.1656  0.5705
   50MOL    C6520743   3.689   0.229   2.218  0.1118  0.3782 -0.6183
   50MOL    C6620744   3.760   0.087   2.246 -0.1183  0.2448 -0.1683
   50MOL    C6720745   3.694   0.021   2.369  0.0385  0.0850  0.7802
   50MOL    C6820746   3.677   7.631   2.362  0.0257  0.0832 -0.1057
   50MOL    C6920747   3.805   7.552   2.308  0.1085  0.1608  0.3599
   50MOL    C7020748   3.635   7.567   2.498 -0.4491  0.0397 -0.2775
   50MOL    C7120749   3.558   7.590   2.263 -0.8570 -0.5742  0.3837
   50MOL    H7220750   3.739   0.293   2.145 -0.3649  1.1511 -0.2728
   50MOL    H7320751   3.704   0.276   2.315  0.2237 -0.8722 -0.0187
   50MOL    H7420752   3.751   0.032   2.152 -4.0695 -0.1124  0.3054
   50MOL    H7520753   3.592   0.057   2.381 -0.6418 -1.4885 -0.2609
   50MOL    H7620754   3.741   0.055   2.462  0.5287 -0.1236  0.6143
   50MOL    H7720755   3.819   7.452   2.348  1.3808  0.0088 -0.4256
   50MOL    H7820756   3.811   7.552   2.199  0.1662 -0.5279  0.3619
   50MOL    H7920757   3.892   7.610   2.342 -0.2406  0.2145  1.1696
   50MOL    H8020758   3.711   7.583   2.575 -1.0437  2.6981 -0.1711
   50MOL    H8120759   3.618   7.465   2.466  1.2224  0.3676 -2.3418
   50MOL    H8220760   3.546   7.617   2.536  0.7128  3.1027 -1.3474
   50MOL    H8320761   3.557   7.482   2.250 -0.0752 -0.4364 -0.9696
   50MOL    H8420762   3.566   7.654   2.175  1.1356 -0.7544  0.4092
   50MOL    H8520763   3.465   7.616   2.312 -1.8115 -1.6821 -0.8034
   50MOL    C8620764   3.907   0.122   2.279  0.6106  0.5213 -0.0488
   50MOL    C8720765   4.004   0.128   2.160  0.2760 -0.7767  0.3094
   50MOL    C8820766   4.038   7.757   2.106 -0.3438  0.0334 -0.6158
   50MOL    C8920767   4.036   7.745   1.956 -0.1127  0.0213  0.7623
   50MOL    C9020768   4.096   7.605   1.921 -0.1590  0.0870  0.0145
   50MOL    C9120769   4.124   0.076   1.879 -0.2566  0.3803  0.2215
   50MOL    C9220770   3.895   7.746   1.904  0.1325  0.3053 -0.4320
   50MOL    H9320771   3.951   0.058   2.355 -0.9390 -1.0109 -0.4046
   50MOL    H9420772   3.902   0.223   2.320  0.4794  0.9234 -1.0538
   50MOL    H9520773   3.943   0.184   2.089  1.3493  0.6829  0.5200
   50MOL    H9620774   3.974   7.675   2.140  0.5228 -0.2112  0.4505
   50MOL    H9720775   4.140   7.730   2.136  0.1074  2.0926 -0.2688
   50MOL    H9820776   4.089   7.584   1.814 -1.8659  1.1968 -0.1157
   50MOL    H9920777   4.042   7.520   1.962  1.2231 -1.9059 -2.2027
   50MOL   H10020778   4.203   7.602   1.938 -0.0734  0.6425 -0.3960
   50MOL   H10120779   4.229   0.064   1.908 -0.0316  0.2713 -0.6111
   50MOL   H10220780   4.122   0.065   1.771  1.0486  0.4160  0.1815
   50MOL   H10320781   4.085   0.177   1.895 -0.0805  0.5975 -0.6693
   50MOL   H10420782   3.835   0.068   1.931  0.9557  0.1338  2.1759
   50MOL   H10520783   3.893   7.718   1.799 -0.8959  0.8737 -0.5824
   50MOL   H10620784   3.833   7.674   1.957 -0.1100  0.8187 -0.0125
   50MOL   C10720785   4.132   0.207   2.194 -0.6952  0.1534  0.0292
   50MOL   C10820786   4.119   0.359   2.213 -0.6378  1.1284  0.0356
   50MOL   C10920787   4.220   0.408   2.312 -0.6233 -0.9479 -0.6813
   50MOL   C11020788   4.173   0.432   2.463 -0.0474  0.3142 -0.2206
   50MOL   C11120789   4.135   0.306   2.549  0.3817  0.3272 -0.5490
   50MOL   C11220790   4.061   0.530   2.480  0.1750  0.1770 -0.4603
   50MOL   C11320791   4.285   0.503   2.530 -0.7774 -0.3924 -0.3650
   50MOL   H11420792   4.213   0.175   2.130 -1.0900  0.2899 -0.5428
   50MOL   H11520793   4.160   0.155   2.286  1.3632 -0.5879 -0.9882
   50MOL   H11620794   4.022   0.384   2.257 -2.4723 -1.4050 -2.4410
   50MOL   H11720795   4.309   0.344   2.308 -2.3457 -3.6382  1.9071
   50MOL   H11820796   4.253   0.507   2.281  2.0811 -1.3412  0.7407
   50MOL   H11920797   4.046   0.251   2.518  1.0880 -0.9092 -0.3967
   50MOL   H12020798   4.213   0.232   2.566  0.8410  1.1236  0.8956
   50MOL   H12120799   4.108   0.338   2.650  1.1797  0.2968 -0.3239
   50MOL   H12220800   4.033   0.533   2.585 -2.5892  0.9682 -1.1898
   50MOL   H12320801   3.968   0.513   2.427 -0.5965  1.2263  0.5256
   50MOL   H12420802   4.099   0.625   2.442  0.2802 -0.7197 -2.6620
   50MOL   H12520803   4.279   0.532   2.635  0.8155  0.6001 -0.5195
   50MOL   H12620804   4.301   0.600   2.483  2.5108  0.1079  1.5799
   50MOL   H12720805   4.373   0.438   2.530  0.2887  1.0265 -0.9922
   50MOL   C12820806   4.136   0.412   2.068  1.1818 -0.4513  0.9007
   50MOL   C12920807   4.124   0.569   2.052  0.7396  0.1797  0.0373
   50MOL   C13020808   4.118   0.613   1.899 -0.2522 -0.1668  0.0052
   50MOL   C13120809   4.230   0.590   1.788  0.1253 -0.1475 -0.3893
   50MOL   C13220810   4.370   0.623   1.844 -0.0348  0.1660 -0.3571
   50MOL   C13320811   4.205   0.677   1.662 -0.4249  0.5108  0.0060
   50MOL   C13420812   4.217   0.435   1.742  0.3469  0.0862  0.1424
   50MOL   H13520813   4.058   0.361   2.012  0.3807  1.1195  0.5442
   50MOL   H13620814   4.230   0.371   2.033  0.5549 -0.6454 -0.5690
   50MOL   H13720815   4.217   0.611   2.092  0.6095  0.8032 -0.3045
   50MOL   H13820816   4.021   0.585   1.859 -0.0480 -0.9061  0.0153
   50MOL   H13920817   4.109   0.722   1.898  0.6282 -0.0839  0.2389
   50MOL   H14020818   4.410   0.559   1.922  1.8469  3.7597  1.7720
   50MOL   H14120819   4.383   0.718   1.897  0.0477 -0.4554  0.7653
   50MOL   H14220820   4.449   0.622   1.769  1.7159  1.0205  1.4232
   50MOL   H14320821   4.115   0.647   1.608  0.0982 -2.0072  0.4686
   50MOL   H14420822   4.283   0.666   1.588  0.6297  3.4429  0.6381
   50MOL   H14520823   4.190   0.784   1.679  1.9481  0.8667 -0.0061
   50MOL   H14620824   4.255   0.374   1.824 -1.0842  0.7509  1.3348
   50MOL   H14720825   4.116   0.405   1.716 -1.1400  0.1784  5.1553
   50MOL   H14820826   4.273   0.421   1.650  1.3509  2.0488  0.4134
   50MOL   C14920827   4.001   0.623   2.127 -0.7022 -0.6612  0.1419
   50MOL   C15020828   3.983   0.774   2.132  0.3227 -0.3641  0.7774
   50MOL   C15120829   3.838   0.817   2.187 -0.6394  0.1734  0.4793
   50MOL   C15220830   3.728   0.838   2.075 -0.1210  0.0391 -0.3529
   50MOL   C15320831   3.599   0.877   2.149  0.0135 -0.1341  0.6798
   50MOL   C15420832   3.705   0.720   1.980  0.0813 -0.0445 -0.0380
   50MOL   C15520833   3.773   0.959   1.990 -0.0071 -0.3258 -0.0823
   50MOL   H15620834   3.994   0.579   2.226  1.2246 -0.6971  0.2839
   50MOL   H15720835   3.907   0.592   2.081  0.4332 -1.9743 -1.3883
   50MOL   H15820836   3.985   0.823   2.034  1.3567 -1.6103  0.1694
   50MOL   H15920837   3.841   0.900   2.258 -1.7709 -0.0394  0.7766
   50MOL   H16020838   3.799   0.732   2.243  0.9122  0.1193  1.5095
   50MOL   H16120839   3.512   0.865   2.085 -0.9881  0.7057  1.8639
   50MOL   H16220840   3.573   0.802   2.223 -1.0376 -0.3959  0.0567
   50MOL   H16320841   3.607   0.974   2.199 -0.5159  0.4479 -0.3355
   50MOL   H16420842   3.691   0.625   2.033 -0.6003  0.7163  1.1890
   50MOL   H16520843   3.790   0.716   1.912 -1.2717  2.3013 -1.9598
   50MOL   H16620844   3.623   0.717   1.909  0.5576 -2.2599 -0.5240
   50MOL   H16720845   3.691   1.011   1.940 -0.4846 -1.2018 -0.2166
   50MOL   H16820846   3.820   1.034   2.054  2.3566 -0.6996 -1.3576
   50MOL   H16920847   3.843   0.930   1.913 -0.4362  0.7717 -0.8907
   50MOL   C17020848   4.101   0.837   2.216  0.2957  0.2166 -0.0594
   50MOL   C17120849   4.142   0.988   2.196  0.2703  0.0664 -0.4356
   50MOL   C17220850   4.231   1.010   2.067 -0.3585 -0.1269 -0.3910
   50MOL   C17320851   4.229   1.143   1.990  0.1775  0.3604 -0.0716
   50MOL   C17420852   4.081   1.178   1.948 -0.7697  0.9506  0.1604
   50MOL   C17520853   4.308   1.131   1.857 -0.6497  0.1372  0.4697
   50MOL   C17620854   4.291   1.258   2.070 -0.5006  0.4573 -0.2613
   50MOL   H17720855   4.195   0.782   2.210 -1.6604 -3.2107 -0.0482
   50MOL   H17820856   4.063   0.833   2.318 -2.5583  2.7048 -0.9382
   50MOL   H17920857   4.052   1.045   2.172  0.5904  1.0029  0.5130
   50MOL   H18020858   4.334   0.979   2.088 -1.5541 -1.7600  3.4978
   50MOL   H18120859   4.200   0.934   1.995 -0.2203  0.3246 -0.9382
   50MOL   H18220860   4.026   1.211   2.036  1.0925  1.2474  1.2562
   50MOL   H18320861   4.088   1.264   1.880  0.5001  0.7398  0.0084
   50MOL   H18420862   4.023   1.099   1.901 -3.8722  2.9419  0.5381
   50MOL   H18520863   4.405   1.083   1.869 -0.2949  0.1873 -1.9245
   50MOL   H18620864   4.262   1.071   1.778 -0.7128  0.8815 -0.0662
   50MOL   H18720865   4.329   1.231   1.818 -3.9032  1.3720  1.7117
   50MOL   H18820866   4.393   1.240   2.103 -0.9660 -1.2539  0.3068
   50MOL   H18920867   4.293   1.350   2.012  0.8655  1.5413  1.4459
   50MOL   H19020868   4.220   1.280   2.149  0.2986  2.2410 -0.0215
   50MOL   C19120869   4.215   1.036   2.322  0.0344  0.2522  0.0020
   50MOL   C19220870   4.135   1.124   2.425  0.9026 -0.2717 -0.0030
   50MOL   C19320871   4.216   1.158   2.551 -0.1890  0.3827  0.5299
   50MOL   C19420872   4.308   1.282   2.560 -0.6285  0.2419 -0.6401
   50MOL   C19520873   4.362   1.311   2.700  0.6743  0.0853 -0.0876
   50MOL   C19620874   4.236   1.415   2.512 -0.2823  0.7076  0.7479
   50MOL   C19720875   4.432   1.268   2.460  0.5970  0.1259  0.7362
   50MOL   H19820876   4.255   0.950   2.376 -1.4423 -0.8496 -0.6433
   50MOL   H19920877   4.307   1.088   2.296  1.0516 -0.4159  2.1500
   50MOL   H20020878   4.105   1.211   2.366  1.3387 -1.9905 -2.8595
   50MOL   H20120879   4.281   1.074   2.575  1.1532  0.9835 -0.9177
   50MOL   H20220880   4.143   1.157   2.632 -0.9380 -1.6132 -0.1429
   50MOL   H20320881   4.276   1.324   2.766 -0.6010 -0.0888 -1.6955
   50MOL   H20420882   4.424   1.234   2.746 -1.6005 -1.6748  0.0943
   50MOL   H20520883   4.422   1.401   2.714  0.0292  0.4585  0.2783
   50MOL   H20620884   4.153   1.437   2.579 -1.2526  0.7933 -0.4609
   50MOL   H20720885   4.307   1.496   2.496  1.6992 -1.0137  0.6174
   50MOL   H20820886   4.190   1.404   2.414  0.1757  1.1055  0.4824
   50MOL   H20920887   4.519   1.328   2.485  1.5220 -0.9221  0.0264
   50MOL   H21020888   4.468   1.168   2.484  0.7178  0.3691  1.5757
   50MOL   H21120889   4.398   1.286   2.358  2.4264  1.4599  0.3453
   50MOL   C21220890   3.996   1.072   2.466 -0.1353  0.2366 -0.6562
   50MOL   C21320891   3.872   1.157   2.518 -0.3592 -0.1454  0.2522
   50MOL   C21420892   3.753   1.064   2.553  0.0580  0.8126 -0.2823
   50MOL   C21520893   3.748   0.951   2.666  0.2113 -0.4765 -0.6866
   50MOL   C21620894   3.844   0.840   2.640  0.4628 -0.0101 -0.3097
   50MOL   C21720895   3.780   1.013   2.810  0.3368 -0.1104  0.2032
   50MOL   C21820896   3.610   0.896   2.664 -0.1410 -0.3735 -0.5131
   50MOL   H21920897   3.971   1.007   2.382 -0.2410  1.4665 -1.5866
   50MOL   H22020898   4.023   0.994   2.537 -0.1878 -0.0319 -0.9344
   50MOL   H22120899   3.895   1.208   2.611 -0.2531  0.3269 -0.0283
   50MOL   H22220900   3.729   0.998   2.469  1.3722  1.8320 -1.4813
   50MOL   H22320901   3.671   1.131   2.578 -0.0682 -0.1122  1.8871
   50MOL   H22420902   3.946   0.851   2.678  1.1017 -1.0778 -1.6733
   50MOL   H22520903   3.841   0.816   2.534  4.0290 -0.7622 -0.3049
   50MOL   H22620904   3.811   0.753   2.697  1.2149  1.5489  2.6393
   50MOL   H22720905   3.886   1.033   2.823  0.0786  0.7166  1.0958
   50MOL   H22820906   3.722   1.105   2.820 -0.7552 -0.7919  0.3068
   50MOL   H22920907   3.738   0.948   2.887 -3.8935  0.3142 -1.5658
   50MOL   H23020908   3.593   0.820   2.741  2.0710  0.4318  0.7870
   50MOL   H23120909   3.584   0.851   2.568  0.6468  0.0041 -0.9017
   50MOL   H23220910   3.534   0.974   2.669 -0.9181 -0.9831 -2.1388
   50MOL   C23320911   3.829   1.254   2.407  0.2463 -1.1330 -0.2124
   50MOL   C23420912   3.761   1.384   2.460  0.3074  0.7593  0.2558
   50MOL   C23520913   3.850   1.472   2.544  0.1529  0.1123 -0.5600
   50MOL   C23620914   3.792   1.531   2.679 -0.4259 -0.2143  0.1044
   50MOL   C23720915   3.647   1.584   2.671  0.8927 -0.6566 -0.8357
   50MOL   C23820916   3.810   1.423   2.790  0.1544  0.1859  0.4413
   50MOL   C23920917   3.885   1.649   2.716 -0.4388 -0.5386  0.1880
   50MOL   H24020918   3.765   1.201   2.336  0.2027 -1.7014  0.2479
   50MOL   H24120919   3.916   1.291   2.354  0.0304  1.1863  0.9718
   50MOL   H24220920   3.671   1.346   2.508 -0.4317  0.6562 -1.1939
   50MOL   H24320921   3.941   1.417   2.567 -0.1239  0.0280  0.3402
   50MOL   H24420922   3.885   1.557   2.485  1.6702 -0.7123 -0.8728
   50MOL   H24520923   3.581   1.500   2.694  1.3283 -0.9611 -0.7025
   50MOL   H24620924   3.617   1.631   2.577  1.5667  1.8145  0.1582
   50MOL   H24720925   3.623   1.649   2.755 -1.4220  0.6684 -2.4398
   50MOL   H24820926   3.799   1.473   2.886 -1.5554 -0.5851  0.6447
   50MOL   H24920927   3.739   1.342   2.778  0.1318  0.6845 -3.7055
   50MOL   H25020928   3.910   1.378   2.794 -1.0392 -2.6186 -0.1732
   50MOL   H25120929   3.870   1.736   2.653  1.1504  0.3015  0.9276
   50MOL   H25220930   3.856   1.687   2.814  0.3966 -1.6066  0.8666
   50MOL   H25320931   3.991   1.625   2.728 -0.5693 -1.7451 -0.8478
   50MOL   C25420932   3.700   1.471   2.347  0.1988  0.5201  0.2272
   50MOL   C25520933   3.567   1.429   2.279  0.4566  0.5539  0.7635
   50MOL   C25620934   3.543   1.507   2.138 -0.3301  0.1210 -0.0216
   50MOL   C25720935   3.598   1.442   2.006  0.1498 -0.1048  0.5536
   50MOL   C25820936   3.602   1.554   1.904 -0.5132 -0.2100 -0.4113
   50MOL   C25920937   3.505   1.339   1.956 -0.4977  0.3590  0.1519
   50MOL   C26020938   3.749   1.389   2.010 -0.3443 -0.2801 -0.9132
   50MOL   H26120939   3.781   1.485   2.275 -1.2039 -0.2669 -1.5567
   50MOL   H26220940   3.678   1.566   2.395 -1.3467  0.4439 -0.3116
   50MOL   H26320941   3.575   1.323   2.257  0.9585  1.0806 -1.6769
   50MOL   H26420942   3.439   1.529   2.117 -0.1006  2.5793  1.2032
   50MOL   H26520943   3.598   1.599   2.160  0.8542 -0.6584  0.3251
   50MOL   H26620944   3.651   1.530   1.810  0.9252  4.2748 -0.9495
   50MOL   H26720945   3.647   1.645   1.943  1.9146 -1.1701 -0.9030
   50MOL   H26820946   3.501   1.581   1.870 -0.6213 -2.1040 -1.6526
   50MOL   H26920947   3.544   1.276   1.875 -0.6995  0.5127 -0.0633
   50MOL   H27020948   3.407   1.382   1.939 -0.5523 -0.2346 -1.0513
   50MOL   H27120949   3.494   1.264   2.035  0.9217 -1.9598 -1.7897
   50MOL   H27220950   3.778   1.343   1.916 -1.1056 -0.7531 -0.9279
   50MOL   H27320951   3.811   1.472   2.045  0.6326 -1.6133  0.5921
   50MOL   H27420952   3.743   1.316   2.091 -0.0023 -0.5511 -1.1314
   50MOL   C27520953   3.446   1.446   2.372  0.1340 -0.0949  0.0850
   50MOL   C27620954   3.324   1.356   2.336  1.2235  0.0833  0.3142
   50MOL   C27720955   3.325   1.206   2.380  0.1547  0.2479  0.8368
   50MOL   C27820956   3.250   1.096   2.309  0.1204 -0.1843  0.3460
   50MOL   C27920957   3.280   1.102   2.155 -0.0977 -0.1036 -0.0020
   50MOL   C28020958   3.310   0.964   2.353 -0.1740  0.1430 -0.5601
   50MOL   C28120959   3.101   1.090   2.347 -0.3471 -0.4352 -0.5172
   50MOL   H28220960   3.456   1.418   2.477 -2.3420 -2.6432 -0.3122
   50MOL   H28320961   3.415   1.549   2.386 -1.5685 -0.4510 -0.8748
   50MOL   H28420962   3.318   1.366   2.228  0.5217  0.8656  0.4209
   50MOL   H28520963   3.303   1.192   2.486 -4.1282 -1.7228 -0.2239
   50MOL   H28620964   3.432   1.188   2.369 -0.2218  0.2133 -3.3077
   50MOL   H28720965   3.233   1.196   2.125  2.4675  1.8422  1.7741
   50MOL   H28820966   3.388   1.092   2.140 -0.4764 -0.6121 -2.5887
   50MOL   H28920967   3.239   1.012   2.110 -2.4592  1.3694 -0.8679
   50MOL   H29020968   3.265   0.873   2.311  0.7335 -0.5043 -0.1383
   50MOL   H29120969   3.294   0.954   2.460 -0.6139 -1.6698 -0.7813
   50MOL   H29220970   3.417   0.952   2.334 -0.1829  1.2347 -1.3078
   50MOL   H29320971   3.043   1.009   2.302 -0.0141 -0.8356 -0.2265
   50MOL   H29420972   3.043   1.180   2.327  0.4767  0.1602 -0.2545
   50MOL   H29520973   3.090   1.072   2.454 -0.2549  1.8336 -0.1007
   50MOL   C29620974   3.204   1.429   2.399 -0.7126 -0.5161 -0.3683
   50MOL   C29720975   3.131   1.531   2.299 -0.3181  0.4532 -0.3751
   50MOL   C29820976   3.045   1.636   2.372 -0.0411 -0.1117 -0.4235
   50MOL   C29920977   3.111   1.775   2.415  0.0230  0.2460 -0.4711
   50MOL   C30020978   3.002   1.877   2.447 -0.0218 -0.0133  0.3924
   50MOL   C30120979   3.193   1.754   2.536 -0.0525 -0.1176  0.1740
   50MOL   C30220980   3.200   1.827   2.297  0.4397  0.2231  0.4633
   50MOL   H30320981   3.225   1.481   2.493  1.4480 -0.0952 -1.0622
   50MOL   H30420982   3.127   1.363   2.440  0.3124 -1.4830  0.0541
   50MOL   H30520983   3.213   1.579   2.247 -0.2927  2.4448  1.4662
   50MOL   H30620984   2.992   1.595   2.458  2.0900  0.2399  1.1152
   50MOL   H30720985   2.967   1.657   2.299 -0.6039  2.8143  0.9895
   50MOL   H30820986   3.040   1.977   2.428 -1.3350  0.2416 -0.9263
   50MOL   H30920987   2.926   1.856   2.372  0.2919 -0.3370  0.1610
   50MOL   H31020988   2.970   1.885   2.551  0.9536 -2.3372  0.9200
   50MOL   H31120989   3.234   1.831   2.601  2.6032 -0.3510 -1.1440
   50MOL   H31220990   3.146   1.675   2.594  1.1264 -1.3711 -0.5223
   50MOL   H31320991   3.278   1.691   2.509  1.0816  0.7178  1.7715
   50MOL   H31420992   3.288   1.764   2.281  0.6506  0.2844  1.3320
   50MOL   H31520993   3.137   1.829   2.208 -1.7233 -0.4354  1.9620
   50MOL   H31620994   3.253   1.918   2.324  0.4666  0.2497  0.3230
   50MOL   C31720995   3.031   1.446   2.209  0.3095  0.3324 -0.1910
   50MOL   C31820996   2.974   1.519   2.081  0.2544 -0.0805  0.2175
   50MOL   C31920997   3.089   1.559   1.981 -0.1007 -0.4706  0.1187
   50MOL   C32020998   3.065   1.644   1.855  0.1923 -0.9683  0.2739
   50MOL   C32120999   3.007   1.562   1.747 -0.1563  0.2338 -0.0031
   50MOL   C32221000   3.198   1.706   1.810  0.5190 -0.2054 -0.2197
   50MOL   C32321001   2.959   1.752   1.876  0.4861  0.4028 -0.3916
   50MOL   H32421002   3.073   1.350   2.176 -1.6046 -1.0378  1.2753
   50MOL   H32521003   2.953   1.425   2.282  1.4431 -0.0409  0.9317
   50MOL   H32621004   2.917   1.608   2.106 -2.5696 -1.8139  0.2510
   50MOL   H32721005   3.150   1.472   1.960  2.0498  0.7011  1.2998
   50MOL   H32821006   3.146   1.617   2.054  0.0399  0.6919 -0.8926
   50MOL   H32921007   2.902   1.535   1.756 -0.1175  0.3501  0.8105
   50MOL   H33021008   3.066   1.471   1.735  0.2837  0.1735  2.4930
   50MOL   H33121009   3.013   1.619   1.654  0.4262 -0.7827 -0.6013
   50MOL   H33221010   3.184   1.773   1.725 -0.3440 -1.0559 -0.7613
   50MOL   H33321011   3.253   1.756   1.889  0.4566  1.7626 -1.3878
   50MOL   H33421012   3.262   1.627   1.770 -0.9974 -1.1930 -0.7577
   50MOL   H33521013   2.989   1.806   1.966  0.2961  0.7721 -0.5454
   50MOL   H33621014   2.859   1.712   1.895  0.0808  1.6098  0.0729
   50MOL   H33721015   2.946   1.819   1.791  2.5212  0.1323 -0.9307
   50MOL   C33821016   2.879   1.421   2.014  0.3665 -0.4507 -1.4981
   50MOL   C33921017   2.757   1.362   2.090  0.8937 -0.0420  1.1286
   50MOL   C34021018   2.690   1.251   2.003  0.1383 -0.6772 -0.1275
   50MOL   C34121019   2.730   1.104   2.032 -0.4610  0.4906 -0.1184
   50MOL   C34221020   2.703   1.065   2.178 -0.3575 -0.5839 -0.0804
   50MOL   C34321021   2.660   1.012   1.938  0.3455 -0.3005  0.5546
   50MOL   C34421022   2.876   1.074   2.004 -0.1320  0.3518 -0.8085
   50MOL   H34521023   2.931   1.338   1.966 -0.8790 -2.5983  0.7503
   50MOL   H34621024   2.836   1.481   1.934 -0.7216 -0.0261 -0.6165
   50MOL   H34721025   2.777   1.323   2.190 -1.9413 -0.6603  1.4989
   50MOL   H34821026   2.693   1.268   1.895 -0.7326 -1.4005 -0.2644
   50MOL   H34921027   2.582   1.255   2.019  0.0949 -1.2123 -0.2872
   50MOL   H35021028   2.770   1.115   2.248 -0.6977  0.0667 -0.2139
   50MOL   H35121029   2.598   1.083   2.202 -0.2433  0.3843 -0.2906
   50MOL   H35221030   2.700   0.957   2.192 -0.5153 -0.4576  0.8647
   50MOL   H35321031   2.706   1.006   1.840 -1.8675 -0.2738 -0.5087
   50MOL   H35421032   2.657   0.907   1.970  1.4424 -0.8020 -0.9289
   50MOL   H35521033   2.552   1.024   1.935  0.2394 -1.2248  0.5362
   50MOL   H35621034   2.933   1.134   2.075 -0.2852  1.0731 -1.2905
   50MOL   H35721035   2.910   0.971   2.018  2.6743  1.2385 -0.9235
   50MOL   H35821036   2.921   1.104   1.909  0.3443 -0.8240 -0.9657
   50MOL   C35921037   2.660   1.474   2.123  0.1089  0.2744 -0.7179
   50MOL   C36021038   2.577   1.459   2.247 -0.0416  0.3971  0.3728
   50MOL   C36121039   2.441   1.535   2.235  1.1798 -0.1615 -0.6718
   50MOL   C36221040   2.309   1.454   2.220  0.1452  0.1241 -0.2269
   50MOL   C36321041   2.200   1.548   2.164  0.9682  0.8215 -0.3878
   50MOL   C36421042   2.262   1.403   2.359 -0.0997 -0.1147 -0.8454
   50MOL   C36521043   2.313   1.335   2.124 -0.6451 -0.2967 -0.3420
   50MOL   H36621044   2.599   1.486   2.033 -1.1310 -0.2168  0.0456
   50MOL   H36721045   2.708   1.572   2.129 -1.4961  1.0356  0.0967
   50MOL   H36821046   2.552   1.353   2.253 -0.5790  0.4278 -1.0449
   50MOL   H36921047   2.435   1.609   2.314 -0.3522 -1.7053  0.6954
   50MOL   H37021048   2.446   1.599   2.146 -0.9774  0.9514 -0.0143
   50MOL   H37121049   2.238   1.613   2.085 -0.4931  3.3024  0.9052
   50MOL   H37221050   2.107   1.505   2.126  1.1207  0.0940  0.0438
   50MOL   H37321051   2.170   1.621   2.238  0.3647 -0.2046  0.3967
   50MOL   H37421052   2.238   1.480   2.433  1.2018 -0.6833  0.1993
   50MOL   H37521053   2.328   1.321   2.390  0.3448 -0.4334 -2.6154
   50MOL   H37621054   2.170   1.345   2.354  0.2163 -0.9233  1.7629
   50MOL   H37721055   2.378   1.255   2.161 -0.2964 -0.3658 -1.0993
   50MOL   H37821056   2.348   1.357   2.023  2.4799 -1.0490  0.5094
   50MOL   H37921057   2.219   1.282   2.110  0.3391 -2.2757  0.2220
   50MOL   C38021058   2.652   1.497   2.378 -0.2553 -0.6719 -0.6864
   50MOL   C38121059   2.598   1.427   2.509 -0.2405 -0.2017 -0.2760
   50MOL   C38221060   2.643   1.509   2.637  0.2863  0.1327 -0.7090
   50MOL   C38321061   2.547   1.617   2.702 -0.1095 -0.0237 -0.0458
   50MOL   C38421062   2.416   1.543   2.742  0.5854 -0.9546  0.1101
   50MOL   C38521063   2.520   1.728   2.599  0.3633  0.3328 -0.3333
   50MOL   C38621064   2.616   1.675   2.824  0.2623  0.0192  0.5259
   50MOL   H38721065   2.654   1.605   2.389  0.4286 -0.4813 -2.5541
   50MOL   H38821066   2.757   1.469   2.373  0.1045  0.1291  1.7552
   50MOL   H38921067   2.490   1.438   2.518 -0.1352 -0.2220  1.2262
   50MOL   H39021068   2.673   1.447   2.721 -0.0182  1.4774  0.4138
   50MOL   H39121069   2.740   1.557   2.623  1.0510 -0.8615  1.1136
   50MOL   H39221070   2.362   1.606   2.813  0.1863 -1.7995  0.5696
   50MOL   H39321071   2.344   1.515   2.665  0.6503 -0.8943  0.0272
   50MOL   H39421072   2.440   1.451   2.795 -1.5779 -1.5803  0.0663
   50MOL   H39521073   2.446   1.796   2.642 -1.5496 -0.0403 -2.8958
   50MOL   H39621074   2.475   1.698   2.504  1.3363 -0.0885 -0.6585
   50MOL   H39721075   2.603   1.791   2.566  0.0028  1.2303  0.4476
   50MOL   H39821076   2.645   1.589   2.885  1.3835 -0.1919 -0.2888
   50MOL   H39921077   2.554   1.742   2.884  0.4814 -0.3641  1.1904
   50MOL   H40021078   2.709   1.730   2.809 -0.0144 -0.0859 -1.7077
   50MOL   C40121079   2.626   1.279   2.513 -0.1586 -0.2166  0.7298
   50MOL   C40221080   2.546   1.209   2.616 -0.3080 -0.6582  0.9132
   50MOL   C40321081   2.567   1.048   2.608 -0.1529 -0.4003 -0.7146
   50MOL   C40421082   2.501   0.955   2.710 -0.3704  0.1522  0.0295
   50MOL   C40521083   2.561   0.978   2.846  0.5049 -0.2847 -0.4441
   50MOL   C40621084   2.538   0.812   2.664  0.5761  0.4221 -0.3069
   50MOL   C40721085   2.351   0.972   2.707 -0.1698  0.1481  0.2493
   50MOL   H40821086   2.604   1.235   2.416 -1.3885  2.2777 -0.1639
   50MOL   H40921087   2.732   1.255   2.522  0.0446  0.0365 -0.8592
   50MOL   H41021088   2.585   1.244   2.712 -1.7689  1.7187  0.6929
   50MOL   H41121089   2.675   1.036   2.607 -0.0546  0.0844  1.3672
   50MOL   H41221090   2.535   1.022   2.507  0.8215 -0.0391 -1.1243
   50MOL   H41321091   2.511   0.905   2.910 -1.8713  1.4394 -0.2507
   50MOL   H41421092   2.531   1.080   2.868 -1.5259 -1.4022  2.3850
   50MOL   H41521093   2.670   0.981   2.844  0.5651 -0.7761  1.2504
   50MOL   H41621094   2.646   0.801   2.656  0.8659 -0.2294  3.5303
   50MOL   H41721095   2.493   0.772   2.573  1.3396 -0.3225 -0.3633
   50MOL   H41821096   2.512   0.753   2.753  2.1614 -2.1317 -1.4834
   50MOL   H41921097   2.307   0.913   2.626  0.5757 -1.3908  0.9429
   50MOL   H42021098   2.301   0.925   2.792  0.7121  0.1523  0.7794
   50MOL   H42121099   2.327   1.077   2.692 -1.2310 -0.1246 -0.0311
   50MOL   H42221100   2.444   1.248   2.617 -0.1218 -0.1657  1.5516
   51MOL     C121101   3.195   1.933   4.048 -0.0459 -0.3298  0.7824
   51MOL     C221102   3.118   2.047   3.972 -0.2185 -0.1670 -0.4597
   51MOL     C321103   3.011   1.984   3.873  0.6140  0.0049  0.5956
   51MOL     C421104   2.864   1.979   3.930  0.2790  0.0478  0.3073
   51MOL     C521105   2.862   1.899   4.055  0.5664 -0.2068 -0.4765
   51MOL     C621106   2.823   2.126   3.948  0.1088  0.2814  0.5750
   51MOL     C721107   2.760   1.910   3.841 -0.7490  0.5399  0.2228
   51MOL     H821108   3.127   1.872   4.108 -0.3541 -0.1497  0.6211
   51MOL     H921109   3.245   1.858   3.987  0.9572 -0.3039  1.5545
   51MOL    H1021110   3.073   2.104   4.054  1.5840 -0.8067  1.0204
   51MOL    H1121111   3.036   1.879   3.859 -1.4777 -0.4130 -0.2641
   51MOL    H1221112   3.010   2.026   3.772  1.8615 -0.5829  0.3229
   51MOL    H1321113   2.937   1.821   4.042  0.4114 -0.1057 -2.0096
   51MOL    H1421114   2.766   1.850   4.073 -0.6029  1.9165 -0.6723
   51MOL    H1521115   2.874   1.962   4.144 -0.3468  0.0996 -0.5584
   51MOL    H1621116   2.728   2.140   3.999 -0.2985  0.1323 -0.1322
   51MOL    H1721117   2.888   2.191   4.006  1.8060 -1.1839  0.3630
   51MOL    H1821118   2.822   2.161   3.844  1.6581 -0.2973  0.3514
   51MOL    H1921119   2.758   1.957   3.743  1.2163 -1.0997 -0.6413
   51MOL    H2021120   2.661   1.921   3.885 -0.6948  1.5568  0.1060
   51MOL    H2121121   2.802   1.810   3.832 -1.7477  0.0268  1.1744
   51MOL    H2221122   3.271   1.981   4.109 -0.8479 -0.9905  2.3369
   51MOL    C2321123   3.200   2.133   3.882  0.0814 -0.2186  1.2317
   51MOL    C2421124   3.298   2.238   3.945 -0.3772 -0.0052  0.2208
   51MOL    C2521125   3.223   2.358   4.013 -0.4751 -0.0097 -0.0914
   51MOL    C2621126   3.279   2.399   4.156 -0.3704  0.2822  0.1526
   51MOL    C2721127   3.420   2.472   4.146  0.1510 -0.0790 -0.3653
   51MOL    C2821128   3.171   2.494   4.212  0.3842  0.5072 -0.9347
   51MOL    C2921129   3.288   2.287   4.255  0.1510 -0.2667 -0.2348
   51MOL    H3021130   3.265   2.072   3.820 -0.0597  0.8609 -0.0133
   51MOL    H3121131   3.139   2.187   3.809  1.8871 -0.5196 -0.5356
   51MOL    H3221132   3.345   2.177   4.022  1.8762  1.4972  0.0498
   51MOL    H3321133   3.122   2.323   4.032 -0.2777 -0.6363 -0.1883
   51MOL    H3421134   3.218   2.443   3.944  0.5252  1.0526  1.1004
   51MOL    H3521135   3.498   2.399   4.125 -0.9726 -0.9027 -1.8331
   51MOL    H3621136   3.426   2.539   4.060 -2.4409  0.9999  0.2392
   51MOL    H3721137   3.437   2.538   4.231  3.6641  0.5164 -1.4541
   51MOL    H3821138   3.187   2.511   4.318 -3.3268  1.5262 -0.4572
   51MOL    H3921139   3.190   2.588   4.159  2.9820  0.0953 -0.7722
   51MOL    H4021140   3.067   2.466   4.195 -1.3581  3.2150  4.2030
   51MOL    H4121141   3.194   2.234   4.270  0.6024 -0.8450  0.6224
   51MOL    H4221142   3.322   2.314   4.355 -0.1237  0.4735 -0.3368
   51MOL    H4321143   3.357   2.211   4.219  3.1663  1.2262  2.1208
   51MOL    C4421144   3.417   2.285   3.855  0.2516  0.1820  0.3468
   51MOL    C4521145   3.412   2.305   3.700 -0.0139  0.2047  0.3233
   51MOL    C4621146   3.553   2.324   3.641  0.7714 -0.1053 -0.2745
   51MOL    C4721147   3.664   2.220   3.657 -0.9133  0.0628  0.1772
   51MOL    C4821148   3.741   2.238   3.795 -0.2086  0.0385 -0.0890
   51MOL    C4921149   3.765   2.231   3.540 -0.0190 -0.4037 -0.0868
   51MOL    C5021150   3.607   2.073   3.651  0.0943  0.2414  0.5177
   51MOL    H5121151   3.465   2.368   3.907 -0.8345  1.3999 -0.5822
   51MOL    H5221152   3.473   2.192   3.860 -0.4992 -0.2290  1.1610
   51MOL    H5321153   3.367   2.209   3.673 -0.2509  0.3486  0.2053
   51MOL    H5421154   3.587   2.423   3.670  2.0964  0.0684 -2.2866
   51MOL    H5521155   3.533   2.326   3.534  1.2502 -1.7249 -0.4169
   51MOL    H5621156   3.692   2.235   3.892  0.2905  2.4301  0.2684
   51MOL    H5721157   3.797   2.331   3.793 -1.7022  0.9532 -3.5047
   51MOL    H5821158   3.817   2.159   3.791 -1.1262 -0.8337 -0.8611
   51MOL    H5921159   3.738   2.215   3.436 -1.4290  1.1881  0.0180
   51MOL    H6021160   3.815   2.328   3.547 -0.2057 -0.3468  0.4941
   51MOL    H6121161   3.846   2.159   3.555  1.8126  1.6596  0.3283
   51MOL    H6221162   3.547   2.069   3.561  0.6590  1.2401  0.0970
   51MOL    H6321163   3.682   1.993   3.645 -0.0042  0.2759 -1.4681
   51MOL    H6421164   3.544   2.051   3.737 -1.3942  1.0649 -0.3615
   51MOL    C6521165   3.313   2.422   3.669  0.4156 -0.4332 -0.1798
   51MOL    C6621166   3.269   2.455   3.521 -1.0117  0.0602 -0.8115
   51MOL    C6721167   3.175   2.576   3.533  0.2232  0.0485 -0.4463
   51MOL    C6821168   3.196   2.695   3.438 -0.3399 -0.2204 -0.2746
   51MOL    C6921169   3.077   2.799   3.450 -0.2785  0.3490  0.7848
   51MOL    C7021170   3.328   2.767   3.467  0.3384 -0.6051 -0.0538
   51MOL    C7121171   3.189   2.651   3.292  0.1038 -0.0159 -0.5670
   51MOL    H7221172   3.224   2.398   3.727 -0.5034  0.4329 -1.2113
   51MOL    H7321173   3.363   2.513   3.705  0.7427 -0.0176 -1.6657
   51MOL    H7421174   3.361   2.491   3.475  1.0270 -2.3556  1.2093
   51MOL    H7521175   3.170   2.616   3.634  0.6438  0.2020 -0.4884
   51MOL    H7621176   3.073   2.543   3.512 -0.1813 -0.7256  2.4632
   51MOL    H7721177   2.984   2.761   3.408  0.2195  0.3535 -0.3603
   51MOL    H7821178   3.071   2.808   3.558  1.8608 -1.1994  1.0755
   51MOL    H7921179   3.089   2.893   3.395  3.0113 -0.8188 -0.6371
   51MOL    H8021180   3.332   2.858   3.408  0.3281 -0.0216  0.8355
   51MOL    H8121181   3.423   2.713   3.462 -1.2430 -3.6263  1.0034
   51MOL    H8221182   3.323   2.796   3.572  2.2965  0.9377 -0.3686
   51MOL    H8321183   3.279   2.594   3.272  0.2249 -1.2001  3.0460
   51MOL    H8421184   3.204   2.741   3.232  0.0853 -0.2672 -0.9517
   51MOL    H8521185   3.096   2.603   3.262 -0.5227 -0.9442  2.7523
   51MOL    C8621186   3.207   2.329   3.451 -0.5866  0.0187  0.7819
   51MOL    C8721187   3.221   2.313   3.291 -0.0231 -0.7793 -0.0961
   51MOL    C8821188   3.133   2.201   3.237  0.0803  0.6985  0.1477
   51MOL    C8921189   2.992   2.227   3.193  0.2514 -0.0590 -0.5826
   51MOL    C9021190   2.935   2.089   3.162 -0.2390 -0.5620 -0.0176
   51MOL    C9121191   2.985   2.329   3.073  0.1160  0.5710  0.2523
   51MOL    C9221192   2.904   2.295   3.299  0.0107  0.3384  0.6525
   51MOL    H9321193   3.113   2.300   3.497 -0.4224  0.6941  1.5564
   51MOL    H9421194   3.268   2.248   3.491 -3.6058 -2.1117  1.2706
   51MOL    H9521195   3.185   2.405   3.244  0.8762 -0.6665 -0.5762
   51MOL    H9621196   3.121   2.127   3.316 -2.7532 -0.2505 -1.1144
   51MOL    H9721197   3.190   2.154   3.157 -0.0855  1.1875 -0.2605
   51MOL    H9821198   2.846   2.090   3.099 -0.1818  0.2777 -0.0954
   51MOL    H9921199   2.903   2.042   3.255  0.8589  0.8386  1.0943
   51MOL   H10021200   3.007   2.026   3.110  1.0849  0.5414  0.4518
   51MOL   H10121201   2.880   2.344   3.046  0.7253  0.3546 -2.3187
   51MOL   H10221202   3.011   2.431   3.100  0.7122  0.1601  1.2692
   51MOL   H10321203   3.050   2.302   2.990 -1.7360  2.4657 -1.8700
   51MOL   H10421204   2.938   2.393   3.332  0.6069 -0.2266  1.7485
   51MOL   H10521205   2.798   2.307   3.275  0.1547  1.2059  0.4251
   51MOL   H10621206   2.902   2.236   3.390  1.6353  1.7232  1.6208
   51MOL   C10721207   3.367   2.279   3.252 -0.3394  0.0912 -0.7975
   51MOL   C10821208   3.429   2.337   3.123  0.5279 -0.5192  0.5169
   51MOL   C10921209   3.580   2.341   3.135  0.7214  0.1358  0.1814
   51MOL   C11021210   3.659   2.466   3.174 -0.4151 -0.5587  0.2475
   51MOL   C11121211   3.621   2.530   3.313  0.1983  0.3190 -0.2882
   51MOL   C11221212   3.654   2.577   3.055 -0.0331 -0.0932  0.1040
   51MOL   C11321213   3.806   2.433   3.200 -0.2851 -0.0146 -0.5943
   51MOL   H11421214   3.384   2.172   3.266  1.7543  0.3681 -1.0085
   51MOL   H11521215   3.431   2.317   3.332  0.8359  0.7741 -2.0387
   51MOL   H11621216   3.411   2.444   3.119  0.5227 -0.5178  0.5806
   51MOL   H11721217   3.613   2.258   3.197  0.1840  1.5170  2.3586
   51MOL   H11821218   3.616   2.313   3.036 -1.1417  0.3335 -0.5716
   51MOL   H11921219   3.518   2.567   3.315  0.7425  1.9970 -1.8895
   51MOL   H12021220   3.624   2.453   3.390 -1.0147  2.7714  2.2976
   51MOL   H12121221   3.688   2.600   3.362 -0.7572 -1.1068  3.2011
   51MOL   H12221222   3.662   2.534   2.955 -3.9986 -1.0561  0.1186
   51MOL   H12321223   3.726   2.658   3.068 -0.5656  0.3219  0.5070
   51MOL   H12421224   3.557   2.626   3.064  0.7948  1.5734  0.2302
   51MOL   H12521225   3.812   2.361   3.281 -1.3111  1.0393  0.4475
   51MOL   H12621226   3.871   2.518   3.224 -2.1667  0.8800  1.5229
   51MOL   H12721227   3.854   2.393   3.110 -2.8841  1.0325 -2.5204
   51MOL   C12821228   3.369   2.279   2.991  0.3792  0.0696 -0.0235
   51MOL   C12921229   3.409   2.352   2.866 -0.5295 -0.6086  0.2163
   51MOL   C13021230   3.409   2.269   2.735 -0.4649 -0.0056  0.0956
   51MOL   C13121231   3.287   2.196   2.668 -0.0658  0.2293  0.7467
   51MOL   C13221232   3.249   2.072   2.753  0.2888 -0.6344  0.1237
   51MOL   C13321233   3.334   2.139   2.533 -0.2300  0.2250  0.6120
   51MOL   C13421234   3.170   2.287   2.662  0.5748 -0.0960 -0.1025
   51MOL   H13521235   3.261   2.292   2.989  0.2268 -1.1759 -0.5015
   51MOL   H13621236   3.390   2.172   2.979  0.8363 -0.2445  3.1354
   51MOL   H13721237   3.515   2.373   2.880  0.2381 -0.7220 -4.4076
   51MOL   H13821238   3.464   2.318   2.655  1.5865 -1.1340  0.7659
   51MOL   H13921239   3.479   2.189   2.758  0.3385  1.1058  1.6062
   51MOL   H14021240   3.150   2.035   2.724 -0.4829  1.5300 -0.0832
   51MOL   H14121241   3.244   2.087   2.861  0.0246  3.1100 -0.3322
   51MOL   H14221242   3.313   1.985   2.737 -1.0891 -1.4058 -1.4248
   51MOL   H14321243   3.425   2.078   2.534  1.0302  2.0216 -1.4721
   51MOL   H14421244   3.341   2.223   2.465 -0.1004  0.6926  1.2036
   51MOL   H14521245   3.255   2.069   2.504  0.6883 -0.4255 -0.3861
   51MOL   H14621246   3.177   2.374   2.597  2.7295 -1.3120 -1.5383
   51MOL   H14721247   3.083   2.227   2.633 -1.7735  2.0776  2.1000
   51MOL   H14821248   3.146   2.335   2.757 -0.2937  0.9887 -0.8631
   51MOL   C14921249   3.350   2.497   2.857  0.3108  0.6886 -0.5832
   51MOL   C15021250   3.366   2.584   2.732  1.0250  0.0300 -0.7324
   51MOL   C15121251   3.293   2.724   2.747  0.6219  0.1918  0.2735
   51MOL   C15221252   3.146   2.736   2.780 -0.0668  0.1260 -0.1311
   51MOL   C15321253   3.089   2.865   2.721 -0.5978 -0.4034  0.5634
   51MOL   C15421254   3.129   2.754   2.932  1.0024 -0.1960  0.8240
   51MOL   C15521255   3.050   2.631   2.717 -0.6612  0.2856 -0.0003
   51MOL   H15621256   3.386   2.553   2.944  0.3532 -0.3742  0.0886
   51MOL   H15721257   3.244   2.487   2.875  0.3015  3.0985  1.0019
   51MOL   H15821258   3.316   2.539   2.647 -2.0669  2.0477 -0.0609
   51MOL   H15921259   3.285   2.751   2.642  0.6078  0.9129  0.4567
   51MOL   H16021260   3.348   2.790   2.813 -0.9166  1.5720  0.1969
   51MOL   H16121261   3.118   2.876   2.616  1.8806 -1.2867  1.1187
   51MOL   H16221262   2.982   2.880   2.735 -0.5194  1.9382 -1.0386
   51MOL   H16321263   3.142   2.951   2.762  2.9391 -2.0179 -0.3596
   51MOL   H16421264   3.157   2.680   3.007  3.0236  2.7067  3.0583
   51MOL   H16521265   3.026   2.765   2.965  0.6580 -0.5368 -0.1386
   51MOL   H16621266   3.181   2.846   2.961 -0.6948  0.5416  1.6119
   51MOL   H16721267   3.057   2.528   2.754 -4.2516 -1.8889 -4.8952
   51MOL   H16821268   2.949   2.663   2.741 -1.3110 -1.1170 -0.7759
   51MOL   H16921269   3.073   2.606   2.614  1.4962  1.3562  0.1960
   51MOL   C17021270   3.523   2.621   2.707 -0.1792  0.4920 -0.2569
   51MOL   C17121271   3.560   2.678   2.575 -0.4328 -0.2363  0.8631
   51MOL   C17221272   3.553   2.557   2.464 -0.4349 -0.2996  0.0504
   51MOL   C17321273   3.467   2.573   2.331  0.0606  0.0162 -0.8538
   51MOL   C17421274   3.316   2.600   2.368 -0.3513  0.0356 -0.3400
   51MOL   C17521275   3.478   2.439   2.253  0.2426  0.3277  0.1218
   51MOL   C17621276   3.510   2.701   2.249 -0.3364  0.4695  0.4095
   51MOL   H17721277   3.582   2.532   2.727  0.2752  0.6524 -0.8422
   51MOL   H17821278   3.550   2.690   2.787  1.2618  0.9242 -1.0902
   51MOL   H17921279   3.491   2.761   2.555 -1.1891 -0.7539  1.3046
   51MOL   H18021280   3.653   2.549   2.422 -0.6228  2.3662 -1.0463
   51MOL   H18121281   3.527   2.462   2.510  1.0899 -2.1346 -2.7259
   51MOL   H18221282   3.287   2.521   2.437 -4.0670 -0.1946 -2.0740
   51MOL   H18321283   3.292   2.693   2.420 -0.0379 -0.4867  0.7679
   51MOL   H18421284   3.253   2.585   2.281  2.3945 -1.0611 -2.2025
   51MOL   H18521285   3.581   2.441   2.218  0.5958 -2.0395  0.9439
   51MOL   H18621286   3.449   2.354   2.314  1.0704  1.0866  1.5976
   51MOL   H18721287   3.408   2.431   2.170 -0.3853 -2.5587  0.8792
   51MOL   H18821288   3.613   2.690   2.214 -0.9897  1.9809 -2.0847
   51MOL   H18921289   3.448   2.711   2.160  2.5804  1.3325 -1.6044
   51MOL   H19021290   3.501   2.792   2.307  0.1698 -0.0889  1.3718
   51MOL   C19121291   3.710   2.722   2.583  0.0639 -0.0488  0.2865
   51MOL   C19221292   3.764   2.821   2.475 -0.6214 -0.5380 -0.1247
   51MOL   C19321293   3.916   2.830   2.462  0.0444  0.3429  0.0754
   51MOL   C19421294   3.977   2.756   2.339  0.2406  0.8795  0.5608
   51MOL   C19521295   4.131   2.756   2.340  0.5751  0.5115 -0.0456
   51MOL   C19621296   3.945   2.841   2.210  0.2618 -0.8963  0.0089
   51MOL   C19721297   3.930   2.614   2.330 -0.5555  0.8141  0.3412
   51MOL   H19821298   3.745   2.763   2.678  0.1912  0.2619  0.1070
   51MOL   H19921299   3.764   2.628   2.578  2.4720  1.2398  1.2268
   51MOL   H20021300   3.721   2.783   2.383 -1.7454  0.2532  0.0597
   51MOL   H20121301   3.962   2.794   2.554 -0.9556  1.3924  0.9964
   51MOL   H20221302   3.943   2.935   2.462 -2.4303  1.0329  1.8461
   51MOL   H20321303   4.156   2.700   2.431 -0.5267 -1.0814 -0.7084
   51MOL   H20421304   4.182   2.711   2.255 -0.5988  0.1583 -0.5632
   51MOL   H20521305   4.166   2.859   2.348 -0.7290  1.0618 -1.1683
   51MOL   H20621306   3.960   2.948   2.226  1.0104 -1.1647  1.1576
   51MOL   H20721307   4.004   2.806   2.124  0.1277 -1.1736  0.0301
   51MOL   H20821308   3.841   2.824   2.185 -0.4329  0.8417  1.6230
   51MOL   H20921309   3.926   2.571   2.430 -1.0339 -0.2415 -0.1218
   51MOL   H21021310   3.829   2.597   2.292  0.4432  0.6905 -2.3692
   51MOL   H21121311   3.989   2.550   2.265 -0.4040  1.2649  0.0327
   51MOL   C21221312   3.703   2.960   2.522  0.0015 -0.6905 -0.7500
   51MOL   C21321313   3.698   3.083   2.431  0.5054 -0.9195 -0.3079
   51MOL   C21421314   3.652   3.215   2.509  0.2193  0.8988  0.6293
   51MOL   C21521315   3.763   3.312   2.569 -0.3263  0.2066  0.3414
   51MOL   C21621316   3.871   3.243   2.655 -0.1772  0.3214  0.8296
   51MOL   C21721317   3.829   3.386   2.452  0.4340 -0.4165 -0.2463
   51MOL   C21821318   3.701   3.426   2.659  1.1025  0.4994  0.2767
   51MOL   H21921319   3.601   2.934   2.551  0.8332 -0.4326  2.6611
   51MOL   H22021320   3.745   2.993   2.617 -0.3825 -0.3337 -0.7003
   51MOL   H22121321   3.796   3.112   2.394  0.1253 -0.0735 -0.6674
   51MOL   H22221322   3.588   3.174   2.587 -1.3427  1.9520 -0.0749
   51MOL   H22321323   3.581   3.274   2.451 -0.5928  2.1017  2.7873
   51MOL   H22421324   3.822   3.185   2.734  0.1656 -2.3286 -0.8586
   51MOL   H22521325   3.963   3.294   2.685 -0.7926  0.6985  2.1129
   51MOL   H22621326   3.912   3.154   2.608  0.2824 -0.3551  2.4819
   51MOL   H22721327   3.919   3.444   2.477 -2.2080  3.1434  1.4458
   51MOL   H22821328   3.862   3.319   2.373 -0.9493  1.3191 -2.3402
   51MOL   H22921329   3.755   3.445   2.398 -0.0194 -1.2673 -0.5524
   51MOL   H23021330   3.619   3.481   2.614  1.2422  1.3246  1.0025
   51MOL   H23121331   3.770   3.509   2.673  2.7808 -0.7983 -0.1089
   51MOL   H23221332   3.665   3.390   2.756 -1.3908  2.5868  0.1647
   51MOL   C23321333   3.612   3.050   2.310  0.8014  0.2059 -0.2091
   51MOL   C23421334   3.619   3.145   2.182  0.4004  0.8267 -0.2546
   51MOL   C23521335   3.729   3.104   2.077  0.7783  0.0374 -0.4707
   51MOL   C23621336   3.797   3.200   1.974 -0.0383 -0.5439  0.4986
   51MOL   C23721337   3.860   3.320   2.046 -0.3906  0.4251 -0.4109
   51MOL   C23821338   3.907   3.122   1.895  0.4573 -0.7606 -0.5266
   51MOL   C23921339   3.698   3.247   1.872 -0.0523 -0.0824  0.1046
   51MOL   H24021340   3.507   3.046   2.339  0.1406  0.3472 -2.4899
   51MOL   H24121341   3.633   2.948   2.276  0.4950 -0.6925  2.1795
   51MOL   H24221342   3.645   3.242   2.223 -0.4203  1.2732 -0.7724
   51MOL   H24321343   3.807   3.076   2.148  0.3432  2.7142  1.1404
   51MOL   H24421344   3.694   3.011   2.032  1.7374 -0.8270  0.5450
   51MOL   H24521345   3.946   3.275   2.095 -0.0211  0.8340 -0.6849
   51MOL   H24621346   3.807   3.369   2.127  1.4108  1.1297  0.3589
   51MOL   H24721347   3.896   3.397   1.978  0.0494  0.4069 -0.2013
   51MOL   H24821348   3.994   3.101   1.958 -0.1813  0.8473  0.9213
   51MOL   H24921349   3.866   3.024   1.870 -1.9119 -0.2952  1.3252
   51MOL   H25021350   3.948   3.182   1.814 -0.3979 -0.8527 -1.0328
   51MOL   H25121351   3.623   3.313   1.914  0.4934  0.6683 -0.0784
   51MOL   H25221352   3.752   3.309   1.799 -0.3369  1.2326  1.0061
   51MOL   H25321353   3.661   3.157   1.822 -1.3945  1.2404 -1.3232
   51MOL   C25421354   3.479   3.147   2.112  0.5206 -0.1613  0.7003
   51MOL   C25521355   3.361   3.231   2.173 -0.1326  0.1929 -0.6874
   51MOL   C25621356   3.232   3.187   2.111  0.3111 -0.0019 -0.3005
   51MOL   C25721357   3.146   3.084   2.189 -0.6061 -0.5417  0.0661
   51MOL   C25821358   3.022   3.057   2.112 -0.2160  0.1851  0.4709
   51MOL   C25921359   3.118   3.116   2.333 -0.8115 -0.2205  0.5473
   51MOL   C26021360   3.221   2.946   2.186  0.0003  0.7886  0.4129
   51MOL   H26121361   3.456   3.042   2.095 -0.0848  0.0909 -0.0696
   51MOL   H26221362   3.488   3.184   2.010  1.7142 -3.5059 -0.4706
   51MOL   H26321363   3.347   3.209   2.279  0.5160 -2.4223 -1.1018
   51MOL   H26421364   3.175   3.275   2.081  0.9209  0.5848  0.2367
   51MOL   H26521365   3.251   3.147   2.011 -0.0008 -0.1459 -0.3009
   51MOL   H26621366   2.967   3.151   2.121  1.0233  1.0944 -1.1287
   51MOL   H26721367   2.961   2.976   2.151  1.4098 -0.2850  2.0584
   51MOL   H26821368   3.042   3.043   2.006 -1.5475  0.4499  0.1725
   51MOL   H26921369   3.203   3.096   2.398  0.7125  0.7606 -1.0925
   51MOL   H27021370   3.034   3.056   2.367 -1.0905 -1.0764 -1.5824
   51MOL   H27121371   3.097   3.223   2.340  3.2254  0.9094 -2.2339
   51MOL   H27221372   3.315   2.932   2.239  0.3725 -0.5468 -0.5930
   51MOL   H27321373   3.153   2.870   2.225  2.8564 -1.2959  1.5363
   51MOL   H27421374   3.244   2.925   2.082  0.2635 -0.7513  0.7790
   51MOL   C27521375   3.391   3.378   2.132 -0.2448  0.0303 -0.2077
   51MOL   C27621376   3.303   3.497   2.203 -0.4551  0.3737 -0.4500
   51MOL   C27721377   3.343   3.491   2.354 -0.9028  0.3389  0.0233
   51MOL   C27821378   3.245   3.551   2.456 -0.0695 -0.0560 -0.1502
   51MOL   C27921379   3.116   3.464   2.492  0.5023  0.5581  0.0002
   51MOL   C28021380   3.333   3.560   2.583 -0.0153 -0.3709 -0.4952
   51MOL   C28121381   3.210   3.700   2.429  0.0866 -0.4178 -0.2285
   51MOL   H28221382   3.491   3.414   2.156 -0.1098  0.2646 -1.1022
   51MOL   H28321383   3.380   3.382   2.024  0.0324 -3.2591 -0.4042
   51MOL   H28421384   3.197   3.477   2.187 -0.3272 -0.2637 -0.5103
   51MOL   H28521385   3.438   3.544   2.358 -0.8819  0.3776 -0.8992
   51MOL   H28621386   3.368   3.392   2.391  1.6286  0.8027 -0.3553
   51MOL   H28721387   3.043   3.458   2.412 -2.2377  0.5972  2.3876
   51MOL   H28821388   3.126   3.366   2.540  2.5342  1.3896  1.3592
   51MOL   H28921389   3.064   3.523   2.568  0.7805 -0.4309  0.9885
   51MOL   H29021390   3.267   3.606   2.656  0.1494 -1.1255  0.1438
   51MOL   H29121391   3.423   3.620   2.571 -0.6870  0.6540 -0.4162
   51MOL   H29221392   3.366   3.463   2.621 -1.2248  0.0564  1.7500
   51MOL   H29321393   3.147   3.732   2.511  1.3864  3.5208 -0.6466
   51MOL   H29421394   3.147   3.709   2.341  1.2405 -0.0500 -1.0373
   51MOL   H29521395   3.305   3.751   2.412 -0.6558  1.5364  1.2458
   51MOL   C29621396   3.330   3.636   2.139 -0.6472 -0.0983  0.1961
   51MOL   C29721397   3.306   3.649   1.987  0.0213 -0.7160 -0.9318
   51MOL   C29821398   3.386   3.766   1.942 -0.2203  0.0964 -0.2864
   51MOL   C29921399   3.533   3.733   1.885  0.2232 -0.0506  0.7268
   51MOL   C30021400   3.525   3.633   1.769  0.0857  0.0886 -0.0678
   51MOL   C30121401   3.591   3.871   1.842  0.1581 -0.1103 -1.2486
   51MOL   C30221402   3.630   3.663   1.983 -0.3498 -0.6070  0.0085
   51MOL   H30321403   3.425   3.677   2.174  0.4030 -1.7994 -0.6026
   51MOL   H30421404   3.256   3.710   2.170 -0.2894  0.2560  0.2064
   51MOL   H30521405   3.329   3.560   1.928 -0.1497 -0.8057 -0.8619
   51MOL   H30621406   3.390   3.854   2.006 -0.0054  0.0060 -0.1750
   51MOL   H30721407   3.321   3.806   1.865 -1.5028  2.0915  1.7528
   51MOL   H30821408   3.502   3.530   1.796  2.9892 -0.4705  0.4775
   51MOL   H30921409   3.455   3.674   1.696  0.8000  0.7722 -0.3814
   51MOL   H31021410   3.618   3.634   1.711  0.8736 -1.7798  1.0876
   51MOL   H31121411   3.673   3.849   1.773  0.2762  0.0192 -1.1487
   51MOL   H31221412   3.511   3.931   1.800 -0.0983  0.5642  0.2037
   51MOL   H31321413   3.631   3.926   1.927 -0.2989 -1.1118 -0.3853
   51MOL   H31421414   3.719   3.627   1.932 -1.2221 -0.1912 -1.8204
   51MOL   H31521415   3.670   3.727   2.062 -1.0277 -1.2512  0.8978
   51MOL   H31621416   3.596   3.566   2.019 -0.5283  0.3766  2.5849
   51MOL   C31721417   3.152   3.673   1.978  0.6331 -0.9057  0.9405
   51MOL   C31821418   3.094   3.627   1.839  0.2154 -0.0197  0.6011
   51MOL   C31921419   3.083   3.472   1.829  0.5816 -0.1124  0.1009
   51MOL   C32021420   3.078   3.408   1.686  0.0656  0.3354 -0.2892
   51MOL   C32121421   3.177   3.470   1.595  0.3706 -0.3036  0.2842
   51MOL   C32221422   2.933   3.419   1.632 -0.2546  0.3542 -0.0018
   51MOL   C32321423   3.113   3.261   1.702  0.1127  0.0949 -0.3052
   51MOL   H32421424   3.100   3.612   2.052  0.4129  0.5677  2.0321
   51MOL   H32521425   3.124   3.777   1.997 -1.0150 -1.5984  2.4668
   51MOL   H32621426   3.161   3.656   1.759 -1.2791  1.1494 -0.2481
   51MOL   H32721427   3.009   3.434   1.899  1.1080 -0.5642  0.4180
   51MOL   H32821428   3.172   3.434   1.880  0.0633 -1.5686 -0.0746
   51MOL   H32921429   3.279   3.474   1.635  0.5344 -2.4477  0.1356
   51MOL   H33021430   3.151   3.568   1.557  1.7954 -0.4148 -1.0381
   51MOL   H33121431   3.196   3.407   1.509  2.7948 -0.4518  0.8851
   51MOL   H33221432   2.869   3.380   1.712 -0.3768 -0.0613 -0.2997
   51MOL   H33321433   2.908   3.522   1.608  0.0614  0.1538 -1.2166
   51MOL   H33421434   2.909   3.352   1.550 -0.8812 -1.5008  1.6482
   51MOL   H33521435   3.105   3.205   1.609  0.8561 -0.5056 -0.0089
   51MOL   H33621436   3.040   3.207   1.762 -0.9935  0.7820 -1.0145
   51MOL   H33721437   3.213   3.267   1.745 -0.6428  0.7852  1.3844
   51MOL   C33821438   2.952   3.697   1.819  0.4724 -0.7122  0.3894
   51MOL   C33921439   2.923   3.792   1.699  1.2106  0.0243 -0.0069
   51MOL   C34021440   3.005   3.921   1.725 -0.1499 -0.0038  0.4183
   51MOL   C34121441   3.062   3.991   1.598  0.3746 -0.3491 -0.0558
   51MOL   C34221442   3.168   4.094   1.646  0.1272  0.0133 -0.2085
   51MOL   C34321443   3.132   3.899   1.497 -0.7164  0.2514 -0.1596
   51MOL   C34421444   2.953   4.066   1.521  0.0358 -0.5872  0.1693
   51MOL   H34521445   2.911   3.745   1.907  0.4633  1.3166 -0.7005
   51MOL   H34621446   2.879   3.616   1.807 -2.2232  1.5908  0.7287
   51MOL   H34721447   2.956   3.748   1.605  0.3538 -0.0438 -0.2723
   51MOL   H34821448   3.095   3.889   1.778  1.1920  1.5669 -0.8686
   51MOL   H34921449   2.950   3.987   1.792  2.2948 -1.9883  4.6137
   51MOL   H35021450   3.205   4.148   1.559 -0.8308  0.3560 -0.4154
   51MOL   H35121451   3.115   4.166   1.709 -0.8781  1.3482 -2.5189
   51MOL   H35221452   3.253   4.042   1.689  1.2749  1.7888 -0.2862
   51MOL   H35321453   3.212   3.946   1.440  0.9406  0.3723  2.1752
   51MOL   H35421454   3.185   3.823   1.554  0.5974  0.0395 -1.6400
   51MOL   H35521455   3.071   3.851   1.421  1.3838 -1.6308 -0.7215
   51MOL   H35621456   2.887   4.125   1.584  1.1599 -0.5376  1.3291
   51MOL   H35721457   3.007   4.125   1.446  0.1177 -1.1145 -0.1850
   51MOL   H35821458   2.892   3.999   1.461  0.6402 -0.8204 -0.1859
   51MOL   C35921459   2.776   3.834   1.691 -0.8407  0.0167 -0.1529
   51MOL   C36021460   2.666   3.721   1.701 -0.1524 -0.3790 -0.0295
   51MOL   C36121461   2.555   3.748   1.581  0.1751  0.7198 -0.5489
   51MOL   C36221462   2.587   3.684   1.435 -0.1142  0.3393 -0.6486
   51MOL   C36321463   2.722   3.727   1.374 -0.3879 -0.1519 -0.1549
   51MOL   C36421464   2.479   3.733   1.340 -0.3144  0.0385 -0.4647
   51MOL   C36521465   2.593   3.531   1.446  0.2728 -0.1751  0.1726
   51MOL   H36621466   2.751   3.895   1.605 -0.4076 -1.7155 -1.5364
   51MOL   H36721467   2.762   3.900   1.777  0.1101  1.1066 -0.8323
   51MOL   H36821468   2.717   3.625   1.694  1.1914  0.4487 -1.6831
   51MOL   H36921469   2.457   3.707   1.605 -0.3512  0.8572 -2.4535
   51MOL   H37021470   2.531   3.852   1.562  0.8791  1.1168  0.6340
   51MOL   H37121471   2.720   3.832   1.345  0.0676 -0.3326 -0.8436
   51MOL   H37221472   2.813   3.712   1.431  0.7008  2.0724 -1.2348
   51MOL   H37321473   2.737   3.658   1.292 -1.9575 -0.5744 -0.1163
   51MOL   H37421474   2.376   3.711   1.368 -0.2855  0.7748  0.2233
   51MOL   H37521475   2.495   3.683   1.244 -0.5887  0.1087 -0.5480
   51MOL   H37621476   2.491   3.840   1.324  0.0111 -0.0355 -0.7409
   51MOL   H37721477   2.489   3.499   1.452  0.5384 -0.7752  1.8824
   51MOL   H37821478   2.626   3.489   1.541  1.3742  0.1448 -0.0666
   51MOL   H37921479   2.645   3.483   1.363 -1.7056  0.3414 -1.4283
   51MOL   C38021480   2.591   3.721   1.837 -0.3850  0.1449 -0.5356
   51MOL   C38121481   2.516   3.585   1.884 -0.3217  0.4569 -0.4113
   51MOL   C38221482   2.424   3.613   2.004 -0.0395 -0.2864 -0.1864
   51MOL   C38321483   2.276   3.593   1.980 -0.3963  0.4204 -0.4460
   51MOL   C38421484   2.207   3.636   2.108 -0.1487  0.1454  0.7574
   51MOL   C38521485   2.246   3.448   1.954 -0.6332 -0.0793  0.0784
   51MOL   C38621486   2.228   3.672   1.857 -0.0996  0.7643 -0.3882
   51MOL   H38721487   2.522   3.805   1.842  1.1088  1.2305  3.8200
   51MOL   H38821488   2.666   3.742   1.913 -0.4301 -0.4158 -0.3276
   51MOL   H38921489   2.467   3.544   1.796  0.6692 -0.0026 -0.7573
   51MOL   H39021490   2.451   3.550   2.089 -0.2133  0.0229  0.0952
   51MOL   H39121491   2.447   3.710   2.047  2.7490 -1.3396  0.8429
   51MOL   H39221492   2.211   3.561   2.188 -1.1939 -1.2698 -0.4903
   51MOL   H39321493   2.233   3.731   2.154  1.3191  0.6759 -1.1114
   51MOL   H39421494   2.099   3.641   2.096 -0.0161 -1.4283 -1.2706
   51MOL   H39521495   2.283   3.395   2.043  1.6792  2.2135  0.5315
   51MOL   H39621496   2.307   3.401   1.877 -0.2701 -0.5887  0.6654
   51MOL   H39721497   2.143   3.414   1.941 -0.5380  0.5873 -2.6709
   51MOL   H39821498   2.119   3.676   1.863 -0.1867 -2.2739  1.0214
   51MOL   H39921499   2.257   3.618   1.767 -2.8115  0.9253 -1.4043
   51MOL   H40021500   2.262   3.775   1.860  0.3023  0.6441 -0.8562
   51MOL   C40121501   2.621   3.481   1.917 -0.3121  0.3962  0.5309
   51MOL   C40221502   2.568   3.336   1.904  0.0404  0.2217  0.1122
   51MOL   C40321503   2.671   3.221   1.926 -0.0783 -0.8925  0.1193
   51MOL   C40421504   2.626   3.084   1.879 -0.1962 -0.2331 -0.0055
   51MOL   C40521505   2.727   2.988   1.938  0.1147 -0.3018 -0.1465
   51MOL   C40621506   2.633   3.072   1.724 -0.6177 -0.2193  0.6031
   51MOL   C40721507   2.489   3.044   1.929  0.9709  0.3291 -0.4468
   51MOL   H40821508   2.698   3.491   1.842  1.5187 -1.0636  2.1694
   51MOL   H40921509   2.674   3.501   2.010 -0.8713 -0.8212  1.1213
   51MOL   H41021510   2.497   3.324   1.987  0.1247  3.0969  0.6833
   51MOL   H41121511   2.687   3.221   2.033 -1.3304  1.0204  0.3293
   51MOL   H41221512   2.766   3.241   1.876  0.1306 -0.9686  0.4896
   51MOL   H41321513   2.733   2.991   2.047  2.5089 -1.1004 -0.2326
   51MOL   H41421514   2.826   3.007   1.895  0.6958 -0.5900  1.0313
   51MOL   H41521515   2.702   2.886   1.910 -0.5329 -0.4523  0.9377
   51MOL   H41621516   2.645   2.969   1.688 -1.1414 -0.1123  0.1135
   51MOL   H41721517   2.709   3.133   1.676  0.5580 -1.1596  1.2210
   51MOL   H41821518   2.539   3.109   1.684 -0.2157 -1.6321 -1.7601
   51MOL   H41921519   2.469   2.953   1.872 -0.6566  0.5948 -0.3005
   51MOL   H42021520   2.484   3.007   2.031 -1.2685 -3.0042 -1.6869
   51MOL   H42121521   2.408   3.111   1.900  0.7176  0.0135 -0.4558
   51MOL   H42221522   2.500   3.319   1.821  0.1782 -0.6435  0.1713
   52MOL     C121523   5.406   4.112   4.296  0.0288 -0.0807  0.6720
   52MOL     C221524   5.509   3.995   4.282 -0.1401  0.0654  0.3513
   52MOL     C321525   5.596   4.024   4.158  0.3124 -0.4913 -0.1382
   52MOL     C421526   5.742   4.057   4.181 -0.2311  0.9783  0.4517
   52MOL     C521527   5.754   4.171   4.283 -0.1377 -0.3608 -0.0867
   52MOL     C621528   5.812   3.932   4.229 -0.0959 -0.0224 -0.9171
   52MOL     C721529   5.809   4.107   4.046  0.4505  0.3185  0.7154
   52MOL     H821530   5.335   4.103   4.214 -0.2685 -0.6899  1.0022
   52MOL     H921531   5.355   4.102   4.391  0.0911  1.4058  0.8730
   52MOL    H1021532   5.569   3.990   4.373 -0.2000  1.9895  0.5191
   52MOL    H1121533   5.568   4.116   4.106  3.1092  1.0330  0.9497
   52MOL    H1221534   5.589   3.952   4.077 -1.1752 -1.2319  0.6270
   52MOL    H1321535   5.856   4.209   4.293 -0.6963  0.3819  3.7216
   52MOL    H1421536   5.720   4.141   4.382  0.4716  1.1616  0.5888
   52MOL    H1521537   5.700   4.263   4.266  0.6077  0.2027  0.5380
   52MOL    H1621538   5.774   3.845   4.177  2.2439 -2.5254  1.3966
   52MOL    H1721539   5.921   3.933   4.226 -0.0699  0.1622 -0.1550
   52MOL    H1821540   5.793   3.915   4.335  0.6583  0.9520 -0.6133
   52MOL    H1921541   5.801   4.029   3.971  0.0710  1.0149  0.0308
   52MOL    H2021542   5.912   4.142   4.050 -0.0490  1.9008 -0.0698
   52MOL    H2121543   5.757   4.192   4.003 -0.1526  0.1155  1.0382
   52MOL    H2221544   5.448   4.210   4.271 -1.0078  0.1659 -0.1493
   52MOL    C2321545   5.432   3.868   4.253  0.0752  0.1539  0.3991
   52MOL    C2421546   5.362   3.809   4.373 -0.3851 -0.8662  0.3116
   52MOL    C2521547   5.475   3.737   4.462 -0.6414 -0.1506 -0.0154
   52MOL    C2621548   5.474   3.743   4.624  0.1699 -0.0381  0.7130
   52MOL    C2721549   5.512   3.885   4.665  0.7353  0.3990  0.5639
   52MOL    C2821550   5.339   3.701   4.674  0.1173 -0.2081  0.5216
   52MOL    C2921551   5.583   3.650   4.689 -0.7049  0.6168 -0.7769
   52MOL    H3021552   5.359   3.884   4.173  0.9261 -3.8615 -1.3159
   52MOL    H3121553   5.501   3.790   4.222  0.4204  0.3543  0.6653
   52MOL    H3221554   5.303   3.887   4.422 -1.0481 -0.5987 -0.8966
   52MOL    H3321555   5.574   3.778   4.438  0.6375 -3.4846 -0.6790
   52MOL    H3421556   5.485   3.635   4.426  1.0248  0.1895 -0.5756
   52MOL    H3521557   5.446   3.964   4.630 -0.7651 -0.4578  1.3601
   52MOL    H3621558   5.495   3.881   4.773 -3.4596 -0.0303 -0.0361
   52MOL    H3721559   5.617   3.909   4.649  0.7212  0.4192  0.5040
   52MOL    H3821560   5.256   3.770   4.656 -1.2328 -1.6848  0.9871
   52MOL    H3921561   5.313   3.608   4.623 -1.8178  1.2744 -1.2987
   52MOL    H4021562   5.339   3.683   4.781  1.4629  0.1123  0.5763
   52MOL    H4121563   5.668   3.628   4.624  0.2628  1.5855  0.1332
   52MOL    H4221564   5.546   3.562   4.742 -0.8110  1.4271  0.5427
   52MOL    H4321565   5.640   3.695   4.771  1.1637 -3.0030  0.0300
   52MOL    C4421566   5.267   3.694   4.322  0.6401  0.8579 -0.3956
   52MOL    C4521567   5.146   3.732   4.246  0.3361 -0.3297  1.0019
   52MOL    C4621568   5.010   3.674   4.290  0.2330 -0.7633  0.2703
   52MOL    C4721569   4.914   3.733   4.390  0.0214  0.2569  0.5175
   52MOL    C4821570   4.992   3.717   4.527  0.1870 -0.3442  0.0292
   52MOL    C4921571   4.794   3.634   4.404 -0.2662 -0.9528 -0.7126
   52MOL    C5021572   4.870   3.880   4.361  0.0750 -0.6961 -0.1363
   52MOL    H5121573   5.323   3.628   4.256 -0.9322 -0.7444 -0.1654
   52MOL    H5221574   5.232   3.639   4.409  0.7987  0.4648 -0.5804
   52MOL    H5321575   5.127   3.839   4.253 -0.8460 -0.5083  0.5587
   52MOL    H5421576   5.031   3.570   4.314  2.0404 -0.4314  0.1509
   52MOL    H5521577   4.948   3.659   4.201  2.3378 -0.8297 -1.2334
   52MOL    H5621578   5.077   3.785   4.523  0.3715 -0.5154  1.0275
   52MOL    H5721579   5.043   3.624   4.551  0.5905 -0.6711 -1.9797
   52MOL    H5821580   4.937   3.730   4.620  0.0255 -2.4150  0.2397
   52MOL    H5921581   4.757   3.619   4.302 -1.2598 -2.2493 -0.1754
   52MOL    H6021582   4.805   3.542   4.460  0.2889 -1.4293 -1.5876
   52MOL    H6121583   4.711   3.686   4.452  2.9067  1.6367  2.2568
   52MOL    H6221584   4.790   3.911   4.427 -0.4823 -0.0615 -1.1019
   52MOL    H6321585   4.956   3.946   4.372 -0.3862 -0.5755  3.4828
   52MOL    H6421586   4.837   3.883   4.257  1.1196  2.2936 -0.4380
   52MOL    C6521587   5.170   3.707   4.096  0.1595  0.3093 -0.5895
   52MOL    C6621588   5.073   3.773   3.996 -0.0115 -0.6608 -0.1744
   52MOL    C6721589   5.074   3.693   3.863  0.4525 -0.5664  0.3693
   52MOL    C6821590   5.029   3.549   3.840 -0.1741  0.1323  0.2882
   52MOL    C6921591   4.966   3.543   3.698 -0.3816  0.3881 -0.0907
   52MOL    C7021592   5.157   3.444   3.847 -0.0399 -0.7076 -0.0033
   52MOL    C7121593   4.919   3.495   3.937 -0.0305 -0.3167  0.1622
   52MOL    H7221594   5.274   3.717   4.065  0.6679  0.3677  1.1087
   52MOL    H7321595   5.158   3.600   4.085  0.0087  0.2198  0.4145
   52MOL    H7421596   4.968   3.764   4.025  0.0775  1.8809  0.9947
   52MOL    H7521597   5.180   3.691   3.841  0.7459  4.8875  0.6342
   52MOL    H7621598   5.035   3.766   3.793 -0.9571  0.2106  1.9220
   52MOL    H7721599   5.040   3.573   3.624  1.7548 -0.6749  1.5484
   52MOL    H7821600   4.932   3.442   3.673 -1.6457  0.9555 -0.6707
   52MOL    H7921601   4.871   3.595   3.686 -0.5622 -0.1036 -0.8441
   52MOL    H8021602   5.240   3.472   3.782 -1.1500 -1.5320 -1.8346
   52MOL    H8121603   5.126   3.347   3.808 -0.9172  0.0731 -1.2904
   52MOL    H8221604   5.206   3.436   3.943  0.3855 -1.7394 -0.3037
   52MOL    H8321605   4.904   3.388   3.926 -0.0639 -0.4074  1.0032
   52MOL    H8421606   4.825   3.549   3.930 -1.1668 -1.6396  3.7424
   52MOL    H8521607   4.961   3.514   4.036  3.0529 -1.1247 -0.9307
   52MOL    C8621608   5.126   3.916   3.971  0.3954  0.5403  0.1021
   52MOL    C8721609   5.059   4.013   3.871 -0.1415 -0.7143  0.4160
   52MOL    C8821610   5.142   4.147   3.867  0.0806 -0.0674 -0.1839
   52MOL    C8921611   5.274   4.157   3.786 -0.0918  0.1146 -0.3246
   52MOL    C9021612   5.288   4.311   3.749  0.5730  0.4582  0.4217
   52MOL    C9121613   5.274   4.070   3.662 -0.8699 -0.5596 -0.0211
   52MOL    C9221614   5.403   4.126   3.856 -0.3062  0.2627 -0.2317
   52MOL    H9321615   5.230   3.904   3.943  0.7530 -0.0918  1.6841
   52MOL    H9421616   5.131   3.965   4.068  2.8686 -1.9324  1.2684
   52MOL    H9521617   5.050   3.971   3.771  1.3297  0.4528 -0.2363
   52MOL    H9621618   5.164   4.190   3.965 -3.0398  0.2236  0.4220
   52MOL    H9721619   5.070   4.218   3.826 -0.1156 -0.6429 -0.8383
   52MOL    H9821620   5.291   4.377   3.836  0.0573 -1.5733  2.0147
   52MOL    H9921621   5.204   4.349   3.691 -0.2039  0.4280  1.5216
   52MOL   H10021622   5.378   4.326   3.689  0.8126 -2.9843 -0.1658
   52MOL   H10121623   5.196   4.111   3.597  1.0123  0.2034 -1.8459
   52MOL   H10221624   5.370   4.087   3.614 -0.9285 -0.1502  0.0097
   52MOL   H10321625   5.262   3.964   3.683  1.1992 -0.9424 -0.6105
   52MOL   H10421626   5.408   4.022   3.887 -1.9695  0.2724  0.0882
   52MOL   H10521627   5.492   4.145   3.796 -0.1582 -1.9591 -0.7652
   52MOL   H10621628   5.409   4.180   3.950 -1.2025 -0.4745  0.2454
   52MOL   C10721629   4.912   4.047   3.909 -0.6117  0.3637 -0.2083
   52MOL   C10821630   4.814   4.093   3.800 -0.4118 -0.0018 -0.9396
   52MOL   C10921631   4.785   3.968   3.709 -0.6052  0.5265  0.2235
   52MOL   C11021632   4.792   3.981   3.558  0.2096  0.5233 -0.3566
   52MOL   C11121633   4.750   3.852   3.491 -0.2570 -0.6878  0.1416
   52MOL   C11221634   4.936   4.007   3.515 -0.1924 -1.0055  0.8980
   52MOL   C11321635   4.696   4.097   3.513 -1.3947  0.1833 -0.3976
   52MOL   H11421636   4.916   4.122   3.988 -0.4360  0.2504 -0.1089
   52MOL   H11521637   4.880   3.953   3.954  1.8032  0.0851  1.0574
   52MOL   H11621638   4.863   4.166   3.736 -1.4507 -0.4839 -2.3046
   52MOL   H11721639   4.852   3.885   3.734  0.0168  1.3588  1.3642
   52MOL   H11821640   4.684   3.935   3.732 -1.2131  0.9063 -1.7977
   52MOL   H11921641   4.650   3.821   3.521 -0.4980 -0.5734 -0.5285
   52MOL   H12021642   4.749   3.861   3.382 -3.7813 -0.4195  0.1325
   52MOL   H12121643   4.821   3.773   3.517 -0.1517 -0.4999  0.4204
   52MOL   H12221644   4.950   4.009   3.407  0.8846  1.3770  1.0433
   52MOL   H12321645   5.003   3.927   3.546  0.0668 -1.5833 -1.0505
   52MOL   H12421646   4.990   4.097   3.544  2.5448 -2.2934 -0.0755
   52MOL   H12521647   4.594   4.058   3.507 -0.1078 -3.0732 -2.8891
   52MOL   H12621648   4.717   4.139   3.415  1.8106 -0.2302  0.0722
   52MOL   H12721649   4.709   4.181   3.580  1.1125  0.2040 -0.8576
   52MOL   C12821650   4.683   4.154   3.865 -0.0226  0.4537  0.1645
   52MOL   C12921651   4.685   4.295   3.918 -0.7038  0.6634  0.3278
   52MOL   C13021652   4.688   4.395   3.797 -0.0542  1.0409 -0.2980
   52MOL   C13121653   4.749   4.535   3.828  0.3907 -0.4540 -0.9762
   52MOL   C13221654   4.785   4.609   3.701  0.1536  0.1697  0.4315
   52MOL   C13321655   4.879   4.515   3.902  0.0545  0.7166 -0.0809
   52MOL   C13421656   4.653   4.625   3.914  1.0693  0.0663 -0.2308
   52MOL   H13521657   4.661   4.093   3.952 -1.0806 -1.9473 -1.7258
   52MOL   H13621658   4.602   4.156   3.791  2.1546  0.6816 -2.2752
   52MOL   H13721659   4.770   4.298   3.986 -1.3529  0.4132  1.1528
   52MOL   H13821660   4.758   4.356   3.723 -1.9318 -0.5076 -1.2903
   52MOL   H13921661   4.592   4.399   3.746 -0.7265 -1.9069  0.6120
   52MOL   H14021662   4.865   4.553   3.653  0.0168 -1.4197  1.9885
   52MOL   H14121663   4.817   4.712   3.721  0.7520 -0.4015  2.5864
   52MOL   H14221664   4.708   4.610   3.625 -1.6702  1.8790  2.2120
   52MOL   H14321665   4.931   4.612   3.905 -0.6927  1.0992  0.4440
   52MOL   H14421666   4.950   4.454   3.845  1.6612  3.3979 -1.0886
   52MOL   H14521667   4.863   4.472   4.000  2.4376 -0.4105 -0.1330
   52MOL   H14621668   4.551   4.623   3.874  0.4142  1.5138  1.2953
   52MOL   H14721669   4.655   4.597   4.019 -3.3291 -1.4104 -0.4141
   52MOL   H14821670   4.680   4.731   3.910 -1.7134  0.9740  2.5422
   52MOL   C14921671   4.556   4.317   4.003  0.1195  0.1582  0.4050
   52MOL   C15021672   4.577   4.277   4.153 -0.2351 -0.1580  0.7968
   52MOL   C15121673   4.662   4.384   4.235 -0.0051  0.5508  0.1254
   52MOL   C15221674   4.769   4.333   4.333 -0.0086  0.6181 -0.8525
   52MOL   C15321675   4.830   4.451   4.411  0.6645 -0.1543 -0.2710
   52MOL   C15421676   4.889   4.258   4.264 -0.1844  0.0771  0.2636
   52MOL   C15521677   4.705   4.237   4.439 -0.6566 -0.1666  0.2850
   52MOL   H15621678   4.472   4.260   3.963  0.4474  1.2547 -1.9367
   52MOL   H15721679   4.515   4.418   4.012  0.1030  0.2415 -0.5792
   52MOL   H15821680   4.633   4.184   4.148  0.4238  0.2174  1.1420
   52MOL   H15921681   4.597   4.450   4.292  0.9988  1.5754  0.1165
   52MOL   H16021682   4.708   4.463   4.175 -0.5512  0.2843 -0.6521
   52MOL   H16121683   4.897   4.514   4.352  2.0074 -0.0830  1.2713
   52MOL   H16221684   4.754   4.511   4.461  2.4366  2.2738 -0.3992
   52MOL   H16321685   4.891   4.418   4.495  2.1468 -0.1801 -1.3415
   52MOL   H16421686   4.893   4.299   4.163  1.0816 -2.1444 -0.6268
   52MOL   H16521687   4.868   4.152   4.252 -0.8185  0.0485  1.5332
   52MOL   H16621688   4.987   4.276   4.307  0.5470 -2.2681 -0.3242
   52MOL   H16721689   4.767   4.194   4.517  1.9121 -1.6594 -2.4692
   52MOL   H16821690   4.624   4.296   4.482  0.2617  1.4370 -0.1301
   52MOL   H16921691   4.659   4.148   4.396  0.7445 -0.6581 -0.2175
   52MOL   C17021692   4.443   4.237   4.208 -0.0780  0.3638 -0.0611
   52MOL   C17121693   4.399   4.089   4.226 -0.4663 -0.1059  0.6067
   52MOL   C17221694   4.380   4.018   4.083 -0.3118 -0.6330 -0.2899
   52MOL   C17321695   4.384   3.861   4.072 -0.6324 -0.2778 -0.2294
   52MOL   C17421696   4.432   3.825   3.928  0.5381  0.2654 -0.1204
   52MOL   C17521697   4.240   3.796   4.093 -0.4671 -0.5062  0.4042
   52MOL   C17621698   4.491   3.801   4.164  0.1257  0.4457 -0.2794
   52MOL   H17721699   4.358   4.303   4.192 -0.1543  0.7477  1.8602
   52MOL   H17821700   4.456   4.266   4.312  1.2928 -2.1591  0.5283
   52MOL   H17921701   4.480   4.034   4.275 -0.0145 -0.8469 -0.9287
   52MOL   H18021702   4.296   4.052   4.022  0.4011 -1.1532 -1.5702
   52MOL   H18121703   4.471   4.045   4.030 -1.1012  0.5797 -1.0551
   52MOL   H18221704   4.445   3.718   3.911 -0.2740  0.1525 -0.0240
   52MOL   H18321705   4.366   3.862   3.849  1.0852  0.7036 -0.3782
   52MOL   H18421706   4.536   3.850   3.905  0.6210  0.2645  0.2481
   52MOL   H18521707   4.254   3.689   4.110 -0.7749 -0.5691  0.2726
   52MOL   H18621708   4.175   3.833   4.172 -3.2036  0.3818 -2.1651
   52MOL   H18721709   4.187   3.817   4.000  0.6701  1.0837  0.1027
   52MOL   H18821710   4.463   3.825   4.267  0.4454  0.0562 -0.1001
   52MOL   H18921711   4.500   3.694   4.147 -2.0820  0.3722 -1.1404
   52MOL   H19021712   4.589   3.846   4.154  0.9694 -0.2885  3.6953
   52MOL   C19121713   4.273   4.066   4.319  0.5199 -0.5586 -0.4879
   52MOL   C19221714   4.274   4.139   4.457  0.3664 -0.2772  0.5801
   52MOL   C19321715   4.234   4.039   4.569  0.7533  0.2031 -0.5368
   52MOL   C19421716   4.348   3.959   4.646 -0.2767  0.2616  0.2981
   52MOL   C19521717   4.438   3.882   4.547 -0.0895  0.6835  0.6153
   52MOL   C19621718   4.273   3.859   4.737 -0.0369 -0.3360 -0.6655
   52MOL   C19721719   4.431   4.057   4.730  0.3065  0.4264  0.4310
   52MOL   H19821720   4.186   4.102   4.264  0.8480  0.0214 -0.6377
   52MOL   H19921721   4.261   3.958   4.321 -1.5786 -0.3367  0.3327
   52MOL   H20021722   4.372   4.183   4.476 -0.3805  1.9996 -0.6025
   52MOL   H20121723   4.164   3.968   4.525  0.5099 -0.7372  1.3273
   52MOL   H20221724   4.174   4.095   4.641  0.9220  1.2011 -1.1472
   52MOL   H20321725   4.498   3.937   4.474  0.9997  2.8726  3.0485
   52MOL   H20421726   4.516   3.832   4.605 -0.1527 -0.5210 -0.3164
   52MOL   H20521727   4.391   3.799   4.495 -0.9864  2.2450 -1.1055
   52MOL   H20621728   4.201   3.922   4.788  1.2214  0.4217  0.2188
   52MOL   H20721729   4.216   3.778   4.691  0.4109  0.5359 -2.8023
   52MOL   H20821730   4.338   3.805   4.807  1.1766 -1.7895 -2.8345
   52MOL   H20921731   4.479   4.134   4.670 -1.6823  0.6717 -0.9073
   52MOL   H21021732   4.359   4.107   4.796  0.2902  0.9034  0.0549
   52MOL   H21121733   4.503   4.009   4.795  0.1502  0.3450  0.5461
   52MOL   C21221734   4.182   4.261   4.448 -0.2521  0.2071 -0.1086
   52MOL   C21321735   4.194   4.361   4.571 -0.3306 -1.2085  0.1366
   52MOL   C21421736   4.053   4.431   4.593  0.7373  0.5624  0.4441
   52MOL   C21521737   3.953   4.366   4.691  0.9150 -0.6466  0.1730
   52MOL   C21621738   3.835   4.466   4.716  0.7597  1.3503 -0.0367
   52MOL   C21721739   3.890   4.235   4.631  0.6144  0.0144  0.0044
   52MOL   C21821740   4.018   4.336   4.833  0.7841  0.2018  0.6113
   52MOL   H21921741   4.186   4.315   4.354  1.0921 -0.5170 -0.4741
   52MOL   H22021742   4.081   4.220   4.452  0.7977 -2.5287 -0.2374
   52MOL   H22121743   4.235   4.303   4.654  1.7145 -0.7579 -0.5411
   52MOL   H22221744   4.008   4.457   4.498 -0.2530 -2.9939 -0.1306
   52MOL   H22321745   4.081   4.528   4.635  0.5479  1.1920 -0.8762
   52MOL   H22421746   3.782   4.494   4.625  1.6672  0.8331 -0.7279
   52MOL   H22521747   3.872   4.557   4.764 -1.0939  3.7618 -2.9048
   52MOL   H22621748   3.751   4.427   4.774  1.6461  1.4961  1.3791
   52MOL   H22721749   3.852   4.247   4.530  0.7311  0.5605  0.0212
   52MOL   H22821750   3.966   4.159   4.619  0.1064 -1.0912  3.2528
   52MOL   H22921751   3.819   4.182   4.695 -0.2723  1.3480  0.1619
   52MOL   H23021752   3.942   4.304   4.905  1.5987  0.3901  1.5749
   52MOL   H23121753   4.053   4.428   4.881  1.5102  1.8335 -2.8822
   52MOL   H23221754   4.090   4.254   4.836  0.4626 -0.0733  0.7415
   52MOL   C23321755   4.303   4.474   4.526 -0.4231  0.2985 -0.3350
   52MOL   C23421756   4.388   4.537   4.631 -0.6849 -0.0914 -0.3354
   52MOL   C23521757   4.477   4.433   4.707 -0.4575  0.6148 -0.7771
   52MOL   C23621758   4.514   4.450   4.859 -0.1892  0.3239 -0.3508
   52MOL   C23721759   4.642   4.537   4.869 -0.0735 -0.1500 -0.2356
   52MOL   C23821760   4.394   4.511   4.930 -0.1947 -0.1161  0.2921
   52MOL   C23921761   4.548   4.310   4.912 -1.0666  0.1902  0.4345
   52MOL   H24021762   4.249   4.550   4.469 -2.0353 -1.3359 -1.0726
   52MOL   H24121763   4.365   4.423   4.452 -0.3016  1.0716 -0.7703
   52MOL   H24221764   4.313   4.580   4.698 -1.1637 -2.0335  0.4067
   52MOL   H24321765   4.434   4.336   4.682  0.7406 -0.5634  1.6098
   52MOL   H24421766   4.574   4.426   4.658 -0.7730 -1.2419 -1.1937
   52MOL   H24521767   4.722   4.505   4.803 -1.3788 -1.8029 -1.0500
   52MOL   H24621768   4.681   4.542   4.971  2.0935  1.2194 -1.0945
   52MOL   H24721769   4.615   4.638   4.838  2.3257  0.8728  0.8855
   52MOL   H24821770   4.398   4.520   5.039 -0.2687 -1.1995  0.3853
   52MOL   H24921771   4.380   4.611   4.890  0.1679 -0.8986 -1.8247
   52MOL   H25021772   4.298   4.464   4.909 -0.5096  0.6256  0.0689
   52MOL   H25121773   4.603   4.244   4.845  0.1660  0.2121  1.4103
   52MOL   H25221774   4.597   4.309   5.009  0.9978  0.2748 -0.5828
   52MOL   H25321775   4.458   4.252   4.932 -0.0043 -1.4580  0.5203
   52MOL   C25421776   4.477   4.651   4.563  0.6500 -1.6849 -0.0348
   52MOL   C25521777   4.401   4.774   4.517 -0.3200  0.2859 -0.9675
   52MOL   C25621778   4.503   4.870   4.457 -0.1112  0.3387  0.2051
   52MOL   C25721779   4.549   4.866   4.313  0.3089 -0.4288 -0.1791
   52MOL   C25821780   4.622   4.741   4.280  0.2326 -0.0333  0.3390
   52MOL   C25921781   4.648   4.986   4.292 -0.6501  0.1215 -0.5688
   52MOL   C26021782   4.425   4.889   4.219 -0.4588 -0.0522  0.6956
   52MOL   H26121783   4.545   4.616   4.485  1.3934 -0.3036 -0.0218
   52MOL   H26221784   4.546   4.684   4.641  0.1164 -2.0177  0.5861
   52MOL   H26321785   4.330   4.751   4.438 -2.9991  0.4523  1.2945
   52MOL   H26421786   4.458   4.970   4.458 -0.5973  0.1213  0.2914
   52MOL   H26521787   4.599   4.878   4.509  2.1752  0.6673 -3.8639
   52MOL   H26621788   4.668   4.745   4.181  0.6091 -0.5482  0.4950
   52MOL   H26721789   4.557   4.654   4.276 -1.5997  1.3224  0.2796
   52MOL   H26821790   4.700   4.713   4.351  1.3317  1.7419 -0.1145
   52MOL   H26921791   4.739   4.970   4.349  0.3252  1.8365 -1.6070
   52MOL   H27021792   4.611   5.085   4.318  2.7045  1.2194  0.2460
   52MOL   H27121793   4.684   4.989   4.189  1.3148 -1.1230  0.0476
   52MOL   H27221794   4.373   4.980   4.250 -0.3785  0.2979 -0.1683
   52MOL   H27321795   4.471   4.904   4.121 -3.5355 -3.6778 -1.4192
   52MOL   H27421796   4.355   4.806   4.223 -1.2355  0.5371 -0.5059
   52MOL   C27521797   4.327   4.838   4.639  0.1208  0.9393  0.1829
   52MOL   C27621798   4.203   4.920   4.598 -0.4965 -0.2997  0.1987
   52MOL   C27721799   4.078   4.820   4.573  0.3089  0.7576 -0.7277
   52MOL   C27821800   3.981   4.855   4.461  0.2535 -0.3107 -0.3322
   52MOL   C27921801   3.865   4.761   4.457 -0.1054  0.3947  0.9838
   52MOL   C28021802   3.915   4.992   4.487  0.2092 -0.0527  0.6578
   52MOL   C28121803   4.050   4.858   4.324  0.2643 -0.2232  0.0283
   52MOL   H28221804   4.292   4.775   4.721 -1.5360  1.6279  0.0137
   52MOL   H28321805   4.405   4.896   4.691  1.1110 -2.0712  2.1762
   52MOL   H28421806   4.226   4.969   4.503  0.9458 -0.2713  0.5425
   52MOL   H28521807   4.030   4.796   4.668  2.1300  0.2678  0.0993
   52MOL   H28621808   4.110   4.720   4.546 -2.7039 -0.1526 -1.0658
   52MOL   H28721809   3.895   4.658   4.477  0.1364  0.4053  0.6721
   52MOL   H28821810   3.791   4.788   4.532  0.6712 -0.0824  1.9421
   52MOL   H28921811   3.819   4.771   4.359 -1.2170  0.1133  1.4735
   52MOL   H29021812   3.883   4.990   4.591 -1.9745 -1.2916 -0.0108
   52MOL   H29121813   3.831   5.007   4.419  0.1611  0.7666  0.8933
   52MOL   H29221814   3.989   5.071   4.479 -0.9513  1.0759  1.0743
   52MOL   H29321815   4.136   4.924   4.315 -0.7368  0.8721 -1.7190
   52MOL   H29421816   3.980   4.884   4.244 -1.0682 -1.5670  0.7360
   52MOL   H29521817   4.086   4.760   4.294  1.7001  0.2831  0.0385
   52MOL   C29621818   4.167   5.028   4.700 -0.4714 -0.5459  0.1135
   52MOL   C29721819   4.272   5.142   4.694  0.4808  0.1538 -0.1819
   52MOL   C29821820   4.279   5.228   4.823 -0.5986  0.1158 -0.3996
   52MOL   C29921821   4.351   5.163   4.945  0.0572 -0.6344  0.1639
   52MOL   C30021822   4.398   5.283   5.031 -0.3036  0.1605  0.5486
   52MOL   C30121823   4.251   5.085   5.027 -0.2501 -0.6036 -0.1125
   52MOL   C30221824   4.468   5.080   4.909 -0.0130  0.1889 -0.2461
   52MOL   H30321825   4.167   4.976   4.796  0.0127 -0.6842  0.0391
   52MOL   H30421826   4.066   5.070   4.694 -0.5323  0.4694  5.5970
   52MOL   H30521827   4.371   5.101   4.674  0.7063  1.3964 -1.6885
   52MOL   H30621828   4.176   5.249   4.851 -0.0429 -0.5147  2.2984
   52MOL   H30721829   4.324   5.324   4.799  1.0783 -0.4472  0.3751
   52MOL   H30821830   4.311   5.343   5.056 -1.3246  0.9634 -4.3374
   52MOL   H30921831   4.441   5.246   5.124  3.2114  1.2793 -0.5286
   52MOL   H31021832   4.466   5.338   4.965 -1.2685  0.0738 -0.5434
   52MOL   H31121833   4.228   4.983   4.997  2.5330 -1.2319 -0.3039
   52MOL   H31221834   4.308   5.068   5.119 -2.2502 -2.5626  0.8119
   52MOL   H31321835   4.162   5.138   5.059 -1.0729 -2.3265  0.5380
   52MOL   H31421836   4.543   5.064   4.986 -2.5978 -0.2642  2.2797
   52MOL   H31521837   4.448   4.977   4.878  2.1907 -0.7110  1.2711
   52MOL   H31621838   4.526   5.128   4.830  0.9536 -0.6765 -0.0757
   52MOL   C31721839   4.246   5.234   4.573 -0.2892 -0.3851  0.1502
   52MOL   C31821840   4.344   5.345   4.513  0.0562  0.4829 -0.0698
   52MOL   C31921841   4.482   5.297   4.495 -0.2904  0.2107  0.6349
   52MOL   C32021842   4.594   5.404   4.509 -0.5745  0.7149 -0.5831
   52MOL   C32121843   4.609   5.436   4.660  0.4413  1.0197  0.5237
   52MOL   C32221844   4.581   5.548   4.446  0.3728  0.7308 -0.0415
   52MOL   C32321845   4.727   5.335   4.471 -0.1219  0.1726  0.1440
   52MOL   H32421846   4.217   5.174   4.487  0.6822 -1.2163  0.3941
   52MOL   H32521847   4.151   5.283   4.596 -0.9123 -2.0521  1.1681
   52MOL   H32621848   4.331   5.428   4.583  0.0362  1.0728 -0.7711
   52MOL   H32721849   4.493   5.256   4.394 -2.7655  2.0121 -0.3892
   52MOL   H32821850   4.502   5.210   4.558 -0.9785 -1.1202 -0.9441
   52MOL   H32921851   4.701   5.486   4.687  0.1880  1.3119  0.8565
   52MOL   H33021852   4.615   5.343   4.715 -0.5425  0.9584  0.5412
   52MOL   H33121853   4.521   5.484   4.704  0.9122  1.5637  0.8832
   52MOL   H33221854   4.671   5.608   4.457  1.2774  0.0530 -3.3554
   52MOL   H33321855   4.555   5.541   4.340 -2.1184 -1.8552  0.6605
   52MOL   H33421856   4.499   5.607   4.487  0.7080  0.8974  0.3989
   52MOL   H33521857   4.747   5.247   4.533 -0.2094 -0.3613 -0.5868
   52MOL   H33621858   4.818   5.394   4.481  0.2839 -0.3518 -0.4153
   52MOL   H33721859   4.730   5.301   4.368  1.6489  2.5697 -0.6389
   52MOL   C33821860   4.279   5.397   4.378 -0.3001  0.2699  0.1430
   52MOL   C33921861   4.134   5.436   4.358 -0.6233 -0.3142 -0.1264
   52MOL   C34021862   4.098   5.475   4.208  0.7576  1.0772  0.8679
   52MOL   C34121863   4.048   5.376   4.109 -0.2192  0.5052 -0.0876
   52MOL   C34221864   4.001   5.449   3.985  0.2196 -0.3681  0.4605
   52MOL   C34321865   4.160   5.278   4.070  0.3831  0.1339  0.5698
   52MOL   C34421866   3.930   5.306   4.169  0.4138  0.0091 -0.4745
   52MOL   H34521867   4.300   5.324   4.299  0.4167  1.7206 -1.0380
   52MOL   H34621868   4.334   5.482   4.339  1.1414 -0.1744  1.1710
   52MOL   H34721869   4.069   5.354   4.386 -3.3899  1.0941 -2.2144
   52MOL   H34821870   4.173   5.547   4.176  1.2693 -0.4356 -1.4080
   52MOL   H34921871   4.013   5.543   4.209 -0.8648 -0.7947 -2.8476
   52MOL   H35021872   3.912   5.512   3.995  1.2956  1.3468 -0.6296
   52MOL   H35121873   4.086   5.507   3.950  1.4023 -1.3119  1.7311
   52MOL   H35221874   3.972   5.377   3.909  0.6322 -0.4113  0.3447
   52MOL   H35321875   4.234   5.350   4.033 -0.4591  0.0296 -1.3749
   52MOL   H35421876   4.189   5.216   4.155 -0.8400  0.4816  1.2485
   52MOL   H35521877   4.133   5.221   3.982  0.4266 -0.2434  0.7995
   52MOL   H35621878   3.875   5.246   4.097  0.0190 -0.9207  0.5845
   52MOL   H35721879   3.953   5.248   4.258  1.9372  2.6170  0.9214
   52MOL   H35821880   3.849   5.373   4.197  0.9778  0.1107  1.0182
   52MOL   C35921881   4.096   5.541   4.463 -0.1625 -0.2180  0.0017
   52MOL   C36021882   3.945   5.572   4.479  0.5404 -0.2840 -1.1115
   52MOL   C36121883   3.923   5.695   4.571  0.2605  0.4770  0.1019
   52MOL   C36221884   3.862   5.818   4.499 -0.3240  0.1691 -0.8470
   52MOL   C36321885   3.949   5.850   4.382 -0.1916 -0.8382 -0.2780
   52MOL   C36421886   3.864   5.935   4.587  0.4864 -0.9785  0.5515
   52MOL   C36521887   3.717   5.797   4.447 -0.0479 -0.1015 -0.1399
   52MOL   H36621888   4.154   5.632   4.450  0.2361 -0.5331 -0.4414
   52MOL   H36721889   4.139   5.514   4.559 -1.6498  0.3488  0.8514
   52MOL   H36821890   3.896   5.581   4.382 -1.1475  1.5039 -0.1372
   52MOL   H36921891   3.866   5.678   4.662 -0.9946  1.8377 -0.4220
   52MOL   H37021892   4.017   5.719   4.621 -0.3655  2.8373  0.2098
   52MOL   H37121893   3.954   5.773   4.305 -1.7205 -0.5887 -0.6264
   52MOL   H37221894   3.902   5.936   4.335  0.0711  0.6995  2.1955
   52MOL   H37321895   4.055   5.867   4.405 -0.4839  0.6881 -0.0259
   52MOL   H37421896   3.791   5.930   4.668  1.3306 -0.6236  1.3493
   52MOL   H37521897   3.856   6.030   4.535 -1.7524 -1.3159  0.2560
   52MOL   H37621898   3.960   5.942   4.638  1.1431  2.3911 -0.9911
   52MOL   H37721899   3.726   5.725   4.366  0.0914 -2.1115  1.6293
   52MOL   H37821900   3.675   5.893   4.417  2.9715  0.6678 -2.1702
   52MOL   H37921901   3.656   5.755   4.527  0.6043 -2.9221 -1.0547
   52MOL   C38021902   3.886   5.437   4.536  0.7944 -0.0565  0.5014
   52MOL   C38121903   3.739   5.431   4.588  0.1084 -0.4944  0.5562
   52MOL   C38221904   3.711   5.321   4.693 -0.1345  0.0748 -0.8577
   52MOL   C38321905   3.724   5.361   4.847 -0.2227 -0.0614  0.7295
   52MOL   C38421906   3.616   5.465   4.885  0.7709 -0.1829 -0.7185
   52MOL   C38521907   3.861   5.410   4.888 -0.2775 -0.6913 -0.2349
   52MOL   C38621908   3.701   5.234   4.935 -0.1700 -0.3220 -0.0379
   52MOL   H38721909   3.943   5.408   4.625  1.2369  0.0341  0.2510
   52MOL   H38821910   3.894   5.354   4.466 -0.1800  0.3248 -0.0709
   52MOL   H38921911   3.721   5.526   4.637  1.3402 -1.1522  2.3499
   52MOL   H39021912   3.607   5.289   4.682 -0.4895  0.2281  1.7092
   52MOL   H39121913   3.773   5.232   4.685 -1.0325 -0.5967 -0.3734
   52MOL   H39221914   3.585   5.482   4.988 -0.1582 -0.2026 -0.9955
   52MOL   H39321915   3.647   5.555   4.832 -0.8759  0.6902 -0.2432
   52MOL   H39421916   3.521   5.439   4.839 -0.0228  0.3379  0.5870
   52MOL   H39521917   3.857   5.457   4.986 -0.2694 -0.8329 -0.1651
   52MOL   H39621918   3.896   5.489   4.822  0.4015  1.5721  2.7330
   52MOL   H39721919   3.944   5.339   4.886 -0.1258 -0.5247  0.0876
   52MOL   H39821920   3.780   5.161   4.916 -1.0054 -0.6652 -2.3470
   52MOL   H39921921   3.602   5.192   4.915 -0.9916  0.3123  2.5599
   52MOL   H40021922   3.702   5.265   5.039  3.8198 -2.0093  0.5235
   52MOL   C40121923   3.635   5.405   4.472  0.1229  0.1845  0.4543
   52MOL   C40221924   3.628   5.258   4.413  0.6332  0.2447 -0.5246
   52MOL   C40321925   3.497   5.219   4.344 -0.2177 -0.0843 -0.0045
   52MOL   C40421926   3.499   5.078   4.271  0.9992 -0.0113  0.3716
   52MOL   C40521927   3.608   5.081   4.158 -0.7218 -0.5068 -0.6214
   52MOL   C40621928   3.362   5.052   4.213  0.0104 -0.2220 -0.5768
   52MOL   C40721929   3.531   4.969   4.364  1.0110 -0.8114  0.3541
   52MOL   H40821930   3.532   5.430   4.498 -0.8601 -1.4623 -1.6910
   52MOL   H40921931   3.645   5.472   4.387  1.8800 -0.5523  0.0606
   52MOL   H41021932   3.707   5.244   4.339 -0.5801 -1.3288 -1.5383
   52MOL   H41121933   3.462   5.296   4.276 -0.1520  1.8568  2.0758
   52MOL   H41221934   3.418   5.215   4.419 -1.8907 -0.0096 -1.7278
   52MOL   H41321935   3.619   4.977   4.127 -0.1736  0.0118 -2.2320
   52MOL   H41421936   3.709   5.111   4.187 -1.2537  0.9895 -0.2837
   52MOL   H41521937   3.588   5.142   4.069 -2.2419 -1.3691 -0.8809
   52MOL   H41621938   3.326   5.132   4.148  0.9243  0.4417 -0.2702
   52MOL   H41721939   3.282   5.033   4.285 -0.5969  2.0221 -0.6093
   52MOL   H41821940   3.362   4.958   4.157 -1.0631  0.8334 -2.3996
   52MOL   H41921941   3.532   4.865   4.330 -0.0502 -1.7732  3.1668
   52MOL   H42021942   3.622   4.978   4.424  0.9097  1.9647  0.1735
   52MOL   H42121943   3.450   4.969   4.436 -1.0042  0.6016 -1.8068
   52MOL   H42221944   3.656   5.182   4.487  1.8199 -0.0447 -1.2555
   53MOL     C121945   1.007   7.439   2.020 -0.8458  0.7165  0.7488
   53MOL     C221946   1.010   7.396   2.167  0.7462  0.0852 -0.2007
   53MOL     C321947   0.865   7.375   2.219  0.3991  0.7694 -0.0355
   53MOL     C421948   0.793   7.241   2.189 -0.0298 -0.2156 -0.6439
   53MOL     C521949   0.657   7.225   2.259 -0.4953 -0.3906  0.3261
   53MOL     C621950   0.761   7.223   2.039  0.3242  0.8879  0.2201
   53MOL     C721951   0.877   7.119   2.234 -0.6192  0.3928  0.5892
   53MOL     H821952   0.946   7.380   1.952  0.3438 -0.6183  0.8158
   53MOL     H921953   0.974   7.542   2.006 -1.4235  0.2164 -1.9446
   53MOL    H1021954   1.063   7.303   2.186 -1.2720 -0.1648  5.0916
   53MOL    H1121955   0.802   7.463   2.202 -0.4695  0.1841  0.1083
   53MOL    H1221956   0.869   7.384   2.327 -1.4133  0.3353  0.0955
   53MOL    H1321957   0.666   7.214   2.367 -2.5609 -0.6173  0.4897
   53MOL    H1421958   0.601   7.136   2.229  1.2664 -1.9522  1.5918
   53MOL    H1521959   0.596   7.313   2.238  0.0058 -0.1046  0.0652
   53MOL    H1621960   0.689   7.143   2.020 -0.8994  1.7127  1.2397
   53MOL    H1721961   0.717   7.314   1.997 -0.2834  0.7942  0.6368
   53MOL    H1821962   0.852   7.192   1.987  1.4888 -1.5844  3.5616
   53MOL    H1921963   0.828   7.026   2.204  1.2125  0.0833 -1.5489
   53MOL    H2021964   0.890   7.115   2.342  1.8466  0.6962  0.3174
   53MOL    H2121965   0.970   7.119   2.178 -1.0061 -0.6254 -0.0717
   53MOL    H2221966   1.107   7.442   1.975 -0.9001  0.8755  0.6388
   53MOL    C2321967   1.083   7.503   2.252 -1.3319 -0.3289  0.2289
   53MOL    C2421968   1.238   7.490   2.250 -0.2063 -0.3635  0.5398
   53MOL    C2521969   1.283   7.376   2.341 -0.0110 -0.5231 -0.4831
   53MOL    C2621970   1.389   7.284   2.279  0.2834  0.4983  0.5681
   53MOL    C2721971   1.507   7.361   2.243  0.5941 -0.9073 -0.7167
   53MOL    C2821972   1.427   7.186   2.385 -0.3148  0.0707 -0.4637
   53MOL    C2921973   1.334   7.206   2.161 -0.3453  0.2070 -0.5477
   53MOL    H3021974   1.047   7.597   2.209 -0.2468 -0.4223 -0.8870
   53MOL    H3121975   1.050   7.498   2.356  0.0874  0.7409  0.7361
   53MOL    H3221976   1.263   7.470   2.146 -2.2095 -1.3642  0.2306
   53MOL    H3321977   1.196   7.319   2.371 -0.2908  0.0742 -0.1573
   53MOL    H3421978   1.327   7.411   2.434 -0.2072  0.3736 -0.7222
   53MOL    H3521979   1.588   7.294   2.212 -0.5471 -2.6870  0.0650
   53MOL    H3621980   1.493   7.417   2.150  3.9453 -0.4371 -1.0063
   53MOL    H3721981   1.562   7.414   2.320 -1.2891  0.6112 -0.3937
   53MOL    H3821982   1.513   7.120   2.370 -0.3288  0.2283 -1.2438
   53MOL    H3921983   1.450   7.226   2.484  0.0853 -1.4126  0.0542
   53MOL    H4021984   1.338   7.125   2.397 -1.6890  1.8498 -1.3555
   53MOL    H4121985   1.386   7.113   2.137 -1.1827  0.4986 -3.6936
   53MOL    H4221986   1.341   7.261   2.066  1.2630  2.1125  0.6257
   53MOL    H4321987   1.232   7.177   2.185 -0.0189 -1.0042 -0.5878
   53MOL    C4421988   1.298   7.626   2.287  0.1814  0.1390 -0.9392
   53MOL    C4521989   1.272   7.746   2.194 -0.4754  0.5417  0.0294
   53MOL    C4621990   1.317   7.717   2.042  0.3934  0.0181 -0.1053
   53MOL    C4721991   1.276   0.049   1.927 -0.1868  0.5044  0.0203
   53MOL    C4821992   1.363   0.168   1.902 -0.2884 -0.3680 -0.9593
   53MOL    C4921993   1.126   0.089   1.944  0.5438 -0.3589 -0.5732
   53MOL    C5021994   1.274   7.734   1.792  0.3465  0.3396 -0.6235
   53MOL    H5121995   1.264   7.654   2.387 -0.0036 -0.3381 -0.8650
   53MOL    H5221996   1.407   7.618   2.294 -0.1067 -2.5654  1.6599
   53MOL    H5321997   1.167   0.008   2.198 -0.7776 -0.6882  0.8470
   53MOL    H5421998   1.255   7.630   2.021 -0.7315  1.0165 -0.9913
   53MOL    H5521999   1.419   7.680   2.044  0.8349  1.2894  3.0883
   53MOL    H5622000   1.467   0.138   1.888  0.7769  2.3591  0.7548
   53MOL    H5722001   1.351   0.258   1.962 -0.3134  0.2400 -1.8710
   53MOL    H5822002   1.328   0.208   1.807 -1.8232 -2.3453 -1.2562
   53MOL    H5922003   1.082   0.142   1.860 -0.6806 -1.7528 -0.8370
   53MOL    H6022004   1.058   0.012   1.982 -0.9616  1.5832  0.7892
   53MOL    H6122005   1.126   0.171   2.016 -0.2670 -0.1764 -0.7815
   53MOL    H6222006   1.236   0.022   1.705 -0.8652  0.4216 -0.0531
   53MOL    H6322007   1.376   7.704   1.769 -0.0896 -1.2589 -0.5030
   53MOL    H6422008   1.210   7.647   1.804 -0.4241  0.8603 -0.8918
   53MOL    C6522009   1.357   0.092   2.248 -0.2519 -0.4337  0.5518
   53MOL    C6622010   1.321   0.150   2.383  0.0908  0.0359 -0.3892
   53MOL    C6722011   1.188   0.224   2.384  0.0680  0.5322  0.3373
   53MOL    C6822012   1.083   0.178   2.486  0.4972 -0.0366 -0.4117
   53MOL    C6922013   1.117   0.212   2.631  0.0016 -0.2214 -0.9193
   53MOL    C7022014   0.944   0.249   2.449 -0.0705  0.3632  0.3006
   53MOL    C7122015   1.055   0.029   2.485 -0.1858 -0.8312 -0.2059
   53MOL    H7222016   1.463   0.067   2.242 -0.1459 -0.3273  1.7492
   53MOL    H7322017   1.354   0.177   2.181 -1.7879 -1.3906 -0.6020
   53MOL    H7422018   1.307   0.072   2.458  1.8731  1.0928  1.0781
   53MOL    H7522019   1.150   0.218   2.282  0.3958  2.9382  0.0443
   53MOL    H7622020   1.198   0.333   2.394  1.6885  0.2835  1.6369
   53MOL    H7722021   1.125   0.319   2.654 -3.3955 -0.3528  1.1863
   53MOL    H7822022   1.046   0.167   2.701  0.4673 -0.6162 -0.6980
   53MOL    H7922023   1.213   0.170   2.660 -0.7665  0.4914  3.0041
   53MOL    H8022024   0.861   0.240   2.520 -0.7693 -0.7286 -0.6320
   53MOL    H8122025   0.915   0.212   2.351  1.8724  0.0117 -0.1514
   53MOL    H8222026   0.950   0.358   2.441  1.8996  0.2430  0.0477
   53MOL    H8322027   0.954   7.764   2.513 -0.3261 -0.3350 -0.1661
   53MOL    H8422028   1.123   7.738   2.549 -0.5282 -0.8498  0.1417
   53MOL    H8522029   1.073   7.756   2.385 -0.4907  0.1226 -0.6362
   53MOL    C8622030   1.439   0.238   2.440 -0.2555 -0.7575 -0.0220
   53MOL    C8722031   1.557   0.155   2.504  0.1881 -0.4568 -0.3078
   53MOL    C8822032   1.525   0.127   2.648  0.1668 -0.0684 -0.2977
   53MOL    C8922033   1.572   7.755   2.712 -0.9807  0.5927  0.6846
   53MOL    C9022034   1.581   0.003   2.865 -0.0842  0.8989 -0.3924
   53MOL    C9122035   1.712   7.712   2.670  0.1899 -0.0134 -0.7884
   53MOL    C9222036   1.470   7.642   2.686  0.4785  0.7406  1.0431
   53MOL    H9322037   1.407   0.308   2.517  1.0793 -0.8273  0.6099
   53MOL    H9422038   1.474   0.289   2.350 -2.0021 -1.0223 -0.8903
   53MOL    H9522039   1.574   0.061   2.451  3.1022  0.0707 -0.3906
   53MOL    H9622040   1.417   0.138   2.661  0.2964  0.5319  0.2993
   53MOL    H9722041   1.564   0.208   2.709  1.7407 -1.7839  1.0386
   53MOL    H9822042   1.493   0.056   2.900 -0.5090  0.5272 -0.9015
   53MOL    H9922043   1.666   0.064   2.898  1.4869 -0.6623 -1.4692
   53MOL   H10022044   1.599   7.675   2.917  1.7495  1.4493  0.0181
   53MOL   H10122045   1.730   7.700   2.563 -0.5569  0.8970 -1.0287
   53MOL   H10222046   1.789   0.007   2.717  0.2467 -2.2615  2.1496
   53MOL   H10322047   1.724   7.614   2.714 -1.8674  0.6916  1.4613
   53MOL   H10422048   1.472   7.623   2.578  0.3198 -1.8285  1.4510
   53MOL   H10522049   1.508   7.549   2.728  0.1140  0.6765  1.2286
   53MOL   H10622050   1.369   7.660   2.721 -0.6147 -1.1393 -1.0342
   53MOL   C10722051   1.690   0.238   2.482 -0.1989 -0.0701 -0.4581
   53MOL   C10822052   1.795   0.194   2.373 -0.6219  0.0482 -0.4346
   53MOL   C10922053   1.917   0.117   2.424  0.3950 -0.5269  0.2452
   53MOL   C11022054   2.045   0.201   2.452 -0.0097 -0.2411  0.2027
   53MOL   C11122055   2.105   0.258   2.330 -0.1270  0.3306  0.6301
   53MOL   C11222056   2.154   0.106   2.496 -0.1588  0.3583 -0.3360
   53MOL   C11322057   2.017   0.307   2.563 -0.0204 -0.5586  0.2283
   53MOL   H11422058   1.739   0.225   2.578  0.8197 -0.5722 -1.0394
   53MOL   H11522059   1.666   0.344   2.475  1.6310  0.3583 -0.5670
   53MOL   H11622060   1.824   0.295   2.346  0.4739 -0.2460 -0.3976
   53MOL   H11722061   1.904   0.071   2.522  0.0875  0.8565  0.8686
   53MOL   H11822062   1.951   0.034   2.361  0.3836 -0.8115  0.6089
   53MOL   H11922063   2.188   0.326   2.347  0.6436 -0.0263 -1.5588
   53MOL   H12022064   2.126   0.187   2.250  2.2168 -0.0136  1.5161
   53MOL   H12122065   2.039   0.323   2.272 -0.0960 -0.1870  0.0111
   53MOL   H12222066   2.135   0.052   2.588  1.8984  1.7692  0.9529
   53MOL   H12322067   2.248   0.160   2.508 -0.2196  0.5392 -0.6664
   53MOL   H12422068   2.173   0.033   2.416 -2.0867 -1.2017  0.5791
   53MOL   H12522069   1.924   0.360   2.541 -0.3119 -1.0187  0.3469
   53MOL   H12622070   2.097   0.381   2.573  0.0128 -0.7613  1.6547
   53MOL   H12722071   2.004   0.271   2.666  0.9273 -3.5115 -0.6260
   53MOL   C12822072   1.737   0.125   2.246  0.4859 -0.5532  0.0931
   53MOL   C12922073   1.829   0.120   2.117 -0.3002 -0.3043  0.0972
   53MOL   C13022074   1.776   0.020   2.018  0.3746  1.0873 -0.4198
   53MOL   C13122075   1.834   7.642   2.027 -0.3039  0.3415  0.2162
   53MOL   C13222076   1.749   7.563   1.928 -0.4841  0.0140  1.1278
   53MOL   C13322077   1.799   7.579   2.165  0.1501  0.0308  0.3318
   53MOL   C13422078   1.983   7.622   2.002 -0.5229 -0.0482 -0.4623
   53MOL   H13522079   1.648   0.181   2.218 -0.6241 -1.3697  1.8934
   53MOL   H13622080   1.705   0.023   2.266 -0.2762  0.2248  3.0266
   53MOL   H13722081   1.931   0.082   2.128 -0.6354 -0.9149  1.1501
   53MOL   H13822082   1.667   0.028   2.016  0.5464  4.2979  0.5871
   53MOL   H13922083   1.806   0.038   1.915 -0.4318 -2.6505 -1.3952
   53MOL   H14022084   1.642   7.575   1.947 -0.6000  2.4464 -0.7350
   53MOL   H14122085   1.771   7.457   1.917 -0.9062  0.2076 -2.2186
   53MOL   H14222086   1.758   7.610   1.830  0.3042 -0.8050  0.8043
   53MOL   H14322087   1.839   7.481   2.189  0.7297  0.1504 -0.1305
   53MOL   H14422088   1.693   7.593   2.188  0.2587 -0.1118  0.9399
   53MOL   H14522089   1.853   7.645   2.233  0.5068  0.9400 -0.8231
   53MOL   H14622090   2.001   7.521   1.967  0.7075 -0.4008  1.1307
   53MOL   H14722091   2.035   7.701   1.947 -1.0590 -0.1680 -1.1444
   53MOL   H14822092   2.039   7.616   2.095  0.6138  0.9165 -1.0647
   53MOL   C14922093   1.840   0.269   2.057 -0.2876 -0.6620 -0.3232
   53MOL   C15022094   1.935   0.305   1.937  0.2261  0.3878  0.5168
   53MOL   C15122095   1.886   0.446   1.887 -0.4973 -0.1369 -0.6778
   53MOL   C15222096   1.802   0.445   1.754  0.8747 -0.0140 -0.4092
   53MOL   C15322097   1.733   0.588   1.727 -0.0561  0.0547 -0.0123
   53MOL   C15422098   1.684   0.346   1.757  0.7657 -0.1841  0.6984
   53MOL   C15522099   1.889   0.413   1.634  0.2647 -0.7914 -0.1448
   53MOL   H15622100   1.873   0.328   2.143  0.5492 -0.8205 -0.5372
   53MOL   H15722101   1.735   0.290   2.036 -0.1192  2.8225  1.8788
   53MOL   H15822102   1.923   0.232   1.857 -1.4809 -0.6458  1.6814
   53MOL   H15922103   1.974   0.509   1.874 -0.9020  0.6938  0.5305
   53MOL   H16022104   1.840   0.502   1.968  0.8742 -0.2725  0.2189
   53MOL   H16122105   1.815   0.659   1.717  1.3752 -1.2114  2.4408
   53MOL   H16222106   1.670   0.587   1.638  1.8430 -0.4027 -1.3961
   53MOL   H16322107   1.670   0.621   1.810 -0.1500  0.5626 -0.2782
   53MOL   H16422108   1.600   0.379   1.817  0.8101 -2.8489  2.3193
   53MOL   H16522109   1.717   0.247   1.791  0.5745 -0.2952  0.5593
   53MOL   H16622110   1.638   0.341   1.659 -0.5166  1.4559  1.1979
   53MOL   H16722111   1.973   0.483   1.635  0.5856 -1.1667 -0.6289
   53MOL   H16822112   1.932   0.313   1.643 -0.2742 -0.7864  3.5484
   53MOL   H16922113   1.839   0.419   1.538 -0.3998  0.3772  0.2663
   53MOL   C17022114   2.088   0.312   1.967  0.4590  0.2073  0.0162
   53MOL   C17122115   2.183   0.331   1.842  0.3780 -0.1956 -0.6252
   53MOL   C17222116   2.221   0.190   1.782  0.0194  0.3506  0.1925
   53MOL   C17322117   2.278   0.193   1.638 -0.0223 -0.1027  0.2571
   53MOL   C17422118   2.191   0.275   1.535  0.2831  0.1123 -0.6373
   53MOL   C17522119   2.303   0.055   1.590  0.3903 -0.4026  0.0586
   53MOL   C17622120   2.423   0.250   1.642 -0.2746 -0.5125  0.6650
   53MOL   H17722121   2.118   0.223   2.022  0.2576 -1.0553 -1.8664
   53MOL   H17822122   2.096   0.392   2.041 -0.0038 -0.5959  0.9339
   53MOL   H17922123   2.134   0.398   1.772  0.0352 -0.2090 -0.3974
   53MOL   H18022124   2.288   0.136   1.848  1.7390 -1.8619 -3.1960
   53MOL   H18122125   2.132   0.128   1.791  0.7289 -1.1054 -2.4382
   53MOL   H18222126   2.225   0.259   1.433  0.0096  0.5093 -0.7916
   53MOL   H18322127   2.091   0.232   1.540 -0.4130  1.7786 -0.0619
   53MOL   H18422128   2.196   0.381   1.558  0.7622 -0.4050  1.8181
   53MOL   H18522129   2.215   7.757   1.581 -0.3219  0.5680  0.0060
   53MOL   H18622130   2.356   0.064   1.495 -0.6196  0.1316 -0.4676
   53MOL   H18722131   2.369   7.758   1.649 -1.2136 -0.5721  1.7250
   53MOL   H18822132   2.476   0.233   1.548 -4.0072 -1.9320 -1.2676
   53MOL   H18922133   2.417   0.359   1.647  0.4882 -0.3968 -0.7889
   53MOL   H19022134   2.485   0.212   1.724  0.7149  2.4725  1.3859
   53MOL   C19122135   2.307   0.409   1.904 -0.3435 -0.5627  0.0465
   53MOL   C19222136   2.300   0.560   1.890  0.0913  0.4709  0.2334
   53MOL   C19322137   2.315   0.595   1.740 -1.0659 -0.3822 -0.1602
   53MOL   C19422138   2.270   0.740   1.692 -0.8387  0.0117 -0.3063
   53MOL   C19522139   2.355   0.863   1.747  0.0178  0.7451 -0.4758
   53MOL   C19622140   2.122   0.768   1.704 -0.0468 -0.6228 -0.4119
   53MOL   C19722141   2.294   0.731   1.538 -0.0586 -0.4531  0.2093
   53MOL   H19822142   2.321   0.381   2.008  1.8978  0.6671  0.0971
   53MOL   H19922143   2.402   0.382   1.858 -0.8702  0.5711 -1.7985
   53MOL   H20022144   2.204   0.600   1.923  0.9052  1.1003  1.8992
   53MOL   H20122145   2.294   0.520   1.664 -2.0518 -0.9602  0.6728
   53MOL   H20222146   2.423   0.581   1.734 -0.9649 -0.0441  0.6942
   53MOL   H20322147   2.461   0.857   1.725 -0.3333  1.4661 -2.4447
   53MOL   H20422148   2.316   0.954   1.701 -3.2520  0.1647  0.9833
   53MOL   H20522149   2.329   0.879   1.852 -1.6697 -1.9102 -0.4321
   53MOL   H20622150   2.083   0.674   1.663  0.5398 -0.8973 -0.3397
   53MOL   H20722151   2.081   0.777   1.805 -1.8399 -0.6428 -1.1242
   53MOL   H20822152   2.082   0.851   1.647 -1.5408 -1.2024 -0.2322
   53MOL   H20922153   2.217   0.673   1.486 -1.3838  2.8335 -1.6084
   53MOL   H21022154   2.277   0.830   1.496 -1.5362 -1.7476 -2.4097
   53MOL   H21122155   2.394   0.701   1.507 -0.8131 -2.4784 -0.3832
   53MOL   C21222156   2.411   0.614   1.985  0.1724 -0.0759 -0.8351
   53MOL   C21322157   2.373   0.630   2.129 -0.4635 -0.5449 -0.5632
   53MOL   C21422158   2.279   0.752   2.144  0.0442 -0.0315 -0.4800
   53MOL   C21522159   2.168   0.735   2.257 -0.2066  0.9016 -0.2648
   53MOL   C21622160   2.205   0.671   2.394 -0.5224  0.3962  0.2213
   53MOL   C21722161   2.108   0.875   2.293 -0.2188 -0.2482 -0.1570
   53MOL   C21822162   2.054   0.649   2.199  0.2884 -0.7660  0.0912
   53MOL   H21922163   2.504   0.557   1.982 -0.0923 -0.5352 -0.3383
   53MOL   H22022164   2.438   0.713   1.947 -0.5567  0.4348 -0.0257
   53MOL   H22122165   2.331   0.535   2.162 -0.7731 -1.4947 -3.4814
   53MOL   H22222166   2.233   0.786   2.051  0.6769 -1.2786 -1.2624
   53MOL   H22322167   2.338   0.841   2.165 -0.8484  0.0952  1.6811
   53MOL   H22422168   2.121   0.661   2.463 -0.9990 -0.8398 -0.5166
   53MOL   H22522169   2.275   0.735   2.447  0.4899  0.4651 -1.1855
   53MOL   H22622170   2.250   0.572   2.385 -0.3669  0.4464  0.4461
   53MOL   H22722171   2.178   0.934   2.352  0.0484  1.8858 -2.4690
   53MOL   H22822172   2.086   0.926   2.199 -0.8875 -2.5635 -1.2939
   53MOL   H22922173   2.013   0.878   2.346  0.6252 -1.7563  1.4529
   53MOL   H23022174   1.960   0.655   2.253  0.3062 -0.2555  0.0692
   53MOL   H23122175   2.078   0.543   2.186  1.4102 -0.5113 -0.0342
   53MOL   H23222176   2.026   0.692   2.103 -1.8821 -0.5452  0.8130
   53MOL   C23322177   2.492   0.662   2.221 -0.7632 -0.0442 -0.2860
   53MOL   C23422178   2.583   0.543   2.246 -0.0147  0.6891 -0.7285
   53MOL   C23522179   2.730   0.577   2.274 -0.1810 -0.7513  0.0288
   53MOL   C23622180   2.835   0.583   2.152 -0.3590  0.3399  0.2442
   53MOL   C23722181   2.848   0.448   2.096 -0.0183  0.2502 -0.3062
   53MOL   C23822182   2.801   0.687   2.048  0.3723  0.2068  0.1590
   53MOL   C23922183   2.975   0.624   2.207  0.1126 -0.0193  0.0805
   53MOL   H24022184   2.461   0.702   2.317  2.1984  2.0757 -0.1170
   53MOL   H24122185   2.553   0.749   2.196  1.6892 -1.4517  0.5835
   53MOL   H24222186   2.587   0.471   2.164  0.5163 -1.2247  0.9264
   53MOL   H24322187   2.743   0.674   2.323  0.4728 -0.2463 -1.1086
   53MOL   H24422188   2.776   0.511   2.347  1.5526  0.5996  0.1910
   53MOL   H24522189   2.761   0.408   2.045  0.5263 -0.3927 -0.7419
   53MOL   H24622190   2.864   0.376   2.176 -0.8444 -0.3937 -0.7184
   53MOL   H24722191   2.923   0.440   2.016 -0.4571  1.7570 -0.8872
   53MOL   H24822192   2.782   0.782   2.098  0.6962  0.4622 -0.1995
   53MOL   H24922193   2.886   0.703   1.982  1.7109 -0.0754  1.7833
   53MOL   H25022194   2.718   0.651   1.988  0.8294 -1.4581  0.5191
   53MOL   H25122195   3.057   0.586   2.147 -1.3389 -0.4386 -1.6697
   53MOL   H25222196   2.983   0.732   2.221 -1.1187 -0.2645  3.1061
   53MOL   H25322197   2.988   0.572   2.302 -0.2579 -2.6307 -1.2601
   53MOL   C25422198   2.524   0.467   2.367  0.1756 -0.1416 -0.4843
   53MOL   C25522199   2.574   0.317   2.368  0.2166 -0.3201 -0.5196
   53MOL   C25622200   2.473   0.229   2.267 -0.2915 -0.4623 -0.4700
   53MOL   C25722201   2.527   0.105   2.201 -0.0523 -0.5122  0.1270
   53MOL   C25822202   2.648   0.137   2.115 -0.1835 -0.4858 -0.3462
   53MOL   C25922203   2.421   0.068   2.086  0.4665  1.1260 -0.4188
   53MOL   C26022204   2.558   7.752   2.295 -0.4440 -0.4369  0.0587
   53MOL   H26122205   2.415   0.463   2.359  0.0465  1.3958  0.3626
   53MOL   H26222206   2.555   0.530   2.450  0.3813  1.4505 -1.7470
   53MOL   H26322207   2.676   0.324   2.329  0.9071 -0.4571  1.2187
   53MOL   H26422208   2.381   0.213   2.323 -0.2153 -0.3566 -0.3132
   53MOL   H26522209   2.444   0.294   2.185  0.2771  0.3253 -0.0488
   53MOL   H26622210   2.638   0.218   2.043  1.1751 -0.9155 -1.0401
   53MOL   H26722211   2.675   0.050   2.055 -2.0803 -1.2049 -0.2095
   53MOL   H26822212   2.730   0.158   2.184  0.4108 -2.5775 -0.3867
   53MOL   H26922213   2.418   0.149   2.013  1.0570  0.7538 -0.8556
   53MOL   H27022214   2.326   0.058   2.139  0.7584  0.1098 -0.0877
   53MOL   H27122215   2.427   7.735   2.041  0.1835  1.2192 -0.6633
   53MOL   H27222216   2.611   0.018   2.385  0.7050 -1.0997 -0.3768
   53MOL   H27322217   2.473   7.698   2.337 -0.2989  0.9264  2.1692
   53MOL   H27422218   2.616   7.674   2.245  2.9779  1.9919  0.1049
   53MOL   C27522219   2.549   0.268   2.513  0.2732 -0.3168 -0.8263
   53MOL   C27622220   2.656   0.299   2.619  0.1392  0.2475  0.2188
   53MOL   C27722221   2.621   0.243   2.758  0.1201 -0.2571  0.0398
   53MOL   C27822222   2.523   0.316   2.845  0.3812 -0.6178 -1.0774
   53MOL   C27922223   2.378   0.299   2.791  0.4137 -0.3583 -0.1322
   53MOL   C28022224   2.528   0.252   2.985  0.1493 -0.7470 -0.2467
   53MOL   C28122225   2.553   0.466   2.862  0.6146  0.2986  0.1334
   53MOL   H28222226   2.450   0.308   2.536  0.1538 -0.1508 -1.6240
   53MOL   H28322227   2.528   0.161   2.511 -1.5407 -0.0130  0.3438
   53MOL   H28422228   2.657   0.408   2.628  1.3684  0.4397 -1.8968
   53MOL   H28522229   2.709   0.228   2.819  0.1788 -1.5186 -0.3356
   53MOL   H28622230   2.588   0.140   2.741 -1.6671 -0.2427  3.0965
   53MOL   H28722231   2.313   0.339   2.869 -0.7471 -4.0153  0.8668
   53MOL   H28822232   2.353   0.373   2.715  0.4548  0.4304  0.6081
   53MOL   H28922233   2.337   0.200   2.775  1.7448 -1.3098  2.0392
   53MOL   H29022234   2.518   0.144   2.977 -3.5090 -0.5007  0.2490
   53MOL   H29122235   2.438   0.291   3.033  0.4165 -0.0502 -0.2998
   53MOL   H29222236   2.613   0.286   3.044  0.0898  0.0940 -0.6310
   53MOL   H29322237   2.488   0.510   2.938  0.3750 -2.1491  1.3874
   53MOL   H29422238   2.549   0.520   2.767  2.2173 -0.6719 -0.5213
   53MOL   H29522239   2.651   0.488   2.904  0.8660 -3.2477  1.5938
   53MOL   C29622240   2.791   0.255   2.572 -0.5252 -0.6137 -0.0190
   53MOL   C29722241   2.913   0.304   2.658  0.5285 -1.0142  0.7228
   53MOL   C29822242   2.954   0.441   2.586 -0.6176  0.1756  0.1659
   53MOL   C29922243   3.000   0.566   2.665  0.0302 -0.3550  0.3496
   53MOL   C30022244   3.131   0.540   2.737  0.6254 -0.3348  0.0328
   53MOL   C30122245   3.011   0.678   2.568 -1.3316 -0.0175 -0.1950
   53MOL   C30222246   2.893   0.610   2.772 -0.7901 -0.1178 -0.5082
   53MOL   H30322247   2.814   0.292   2.472  1.5141  0.3683  0.7872
   53MOL   H30422248   2.791   0.146   2.576 -1.2751 -0.5281  3.3452
   53MOL   H30522249   2.868   0.324   2.755 -0.9099 -0.6935  0.0002
   53MOL   H30622250   2.874   0.488   2.529 -1.1688 -0.4779  0.3885
   53MOL   H30722251   3.024   0.425   2.505 -0.6163  3.7192 -0.6190
   53MOL   H30822252   3.114   0.483   2.828 -0.5441 -1.8438 -1.1180
   53MOL   H30922253   3.201   0.495   2.667  0.8105  1.8752 -1.2456
   53MOL   H31022254   3.171   0.636   2.770 -0.2748 -0.4292  1.4686
   53MOL   H31122255   3.053   0.766   2.617  0.0918 -0.0162 -1.3852
   53MOL   H31222256   3.080   0.662   2.485  1.9047  0.1193  2.4086
   53MOL   H31322257   2.912   0.709   2.533 -0.5626 -0.1205 -2.5845
   53MOL   H31422258   2.901   0.558   2.867 -3.0104 -0.3673 -0.4204
   53MOL   H31522259   2.915   0.714   2.797  0.7156 -0.1572 -1.5942
   53MOL   H31622260   2.793   0.600   2.729  0.0099 -3.3127 -1.7544
   53MOL   C31722261   3.027   0.202   2.656  0.4121 -0.1515  0.4302
   53MOL   C31822262   3.015   0.072   2.739 -0.1916 -0.2577 -0.5591
   53MOL   C31922263   3.141   7.740   2.719  0.0686  0.2790  0.6853
   53MOL   C32022264   3.168   7.650   2.584  0.8975  0.6622 -0.1993
   53MOL   C32122265   3.038   7.606   2.524 -1.0719 -0.1832  0.7399
   53MOL   C32222266   3.242   7.525   2.628 -0.6133 -0.6128  0.0591
   53MOL   C32322267   3.252   7.720   2.474 -0.7051  0.2784  0.1207
   53MOL   H32422268   3.042   0.167   2.554 -1.4819 -1.5126  0.6080
   53MOL   H32522269   3.118   0.254   2.687  0.9837 -0.8272 -0.1121
   53MOL   H32622270   2.933   0.014   2.697  1.5785 -2.3721 -1.1322
   53MOL   H32722271   3.142   7.674   2.806 -1.7743  0.9020  1.2019
   53MOL   H32822272   3.229   0.036   2.739 -1.2965  1.9410  1.7317
   53MOL   H32922273   2.985   7.551   2.601  0.9095  0.6788  2.7782
   53MOL   H33022274   3.066   7.546   2.437  0.0528 -0.8629  1.5479
   53MOL   H33122275   2.998   7.700   2.487 -4.3341 -1.2126  1.5192
   53MOL   H33222276   3.263   7.457   2.545 -2.0071 -1.1880  0.1598
   53MOL   H33322277   3.338   7.540   2.678 -0.7203 -1.6992  0.6155
   53MOL   H33422278   3.173   7.462   2.684 -1.8734 -0.0358 -0.8254
   53MOL   H33522279   3.223   0.057   2.449  2.0252  1.3000  0.9465
   53MOL   H33622280   3.269   7.659   2.386 -0.5080 -2.0954  1.7693
   53MOL   H33722281   3.357   7.724   2.502 -0.6851  1.0208 -0.0552
   53MOL   C33822282   2.981   0.099   2.885 -0.1869 -0.1030 -0.0830
   53MOL   C33922283   2.918   7.742   2.964  0.1568  0.1735  0.5121
   53MOL   C34022284   2.765   7.741   2.930 -0.2301  0.2063 -0.1503
   53MOL   C34122285   2.699   7.595   2.911  0.3563 -0.0956 -0.1433
   53MOL   C34222286   2.713   7.512   3.044 -0.3682  0.2493  0.0550
   53MOL   C34322287   2.539   7.607   2.882  0.3803 -0.1482  0.3101
   53MOL   C34422288   2.754   7.523   2.787 -0.0384  0.7529  0.3193
   53MOL   H34522289   2.919   0.189   2.887  0.8051  0.6522 -1.9543
   53MOL   H34622290   3.066   0.123   2.949  0.2023  0.1746 -0.7073
   53MOL   H34722291   2.953   7.643   2.935  0.4472  0.8214 -1.4189
   53MOL   H34822292   2.741   0.015   2.832 -0.2067 -2.1135 -1.1323
   53MOL   H34922293   2.715   0.042   3.000  0.5967  0.2398  0.4189
   53MOL   H35022294   2.686   7.558   3.139  1.9364  1.9510 -0.0823
   53MOL   H35122295   2.663   7.417   3.027  0.7559 -0.3494  0.0234
   53MOL   H35222296   2.818   7.489   3.061  0.2362  2.7948 -0.0037
   53MOL   H35322297   2.531   7.666   2.791 -0.7088 -0.2999  0.3059
   53MOL   H35422298   2.480   7.517   2.866 -0.4541  0.7342 -1.8153
   53MOL   H35522299   2.498   7.676   2.955  0.4059 -0.8404  0.9908
   53MOL   H35622300   2.696   7.433   2.771 -0.4674  1.1664 -0.4608
   53MOL   H35722301   2.745   7.585   2.698 -1.9688 -0.3401 -0.2680
   53MOL   H35822302   2.857   7.491   2.803  0.3040  1.1489 -0.9804
   53MOL   C35922303   2.952   7.755   3.112 -0.3831 -0.2974 -0.3452
   53MOL   C36022304   3.089   7.701   3.152  0.0174  0.6648 -0.4209
   53MOL   C36122305   3.089   7.552   3.198 -0.0372  0.4273 -0.0482
   53MOL   C36222306   3.206   7.457   3.143  0.0244  0.1343  0.0835
   53MOL   C36322307   3.208   7.449   2.987 -0.6756  0.3387 -0.1549
   53MOL   C36422308   3.197   7.323   3.215 -0.1970  0.2677 -0.0064
   53MOL   C36522309   3.337   7.514   3.191 -0.0259  0.6170 -0.4817
   53MOL   H36622310   2.876   7.707   3.174  0.5582 -0.4628  0.6987
   53MOL   H36722311   2.939   0.093   3.141 -0.0564 -0.0021 -1.2398
   53MOL   H36822312   3.158   7.702   3.067 -0.5680  0.7817 -0.8971
   53MOL   H36922313   3.072   7.543   3.305 -0.9559  1.6058 -0.0939
   53MOL   H37022314   3.000   7.502   3.159  0.5707  0.1989 -1.1639
   53MOL   H37122315   3.111   7.471   2.943 -0.7697 -1.7876 -1.0696
   53MOL   H37222316   3.268   7.532   2.948 -0.0456 -0.6615 -1.3871
   53MOL   H37322317   3.237   7.350   2.953 -1.6995 -0.4737  1.3186
   53MOL   H37422318   3.107   7.277   3.173  0.4596 -0.4169 -0.6608
   53MOL   H37522319   3.188   7.335   3.323 -0.2285  0.3479 -0.0184
   53MOL   H37622320   3.283   7.259   3.196 -1.1093 -0.5835 -1.3445
   53MOL   H37722321   3.420   7.452   3.157  0.8351 -0.4022  3.2252
   53MOL   H37822322   3.332   7.520   3.300  3.2215  0.1150 -0.2539
   53MOL   H37922323   3.350   7.612   3.147 -0.8800 -0.4011 -3.0953
   53MOL   C38022324   3.145   0.029   3.264 -0.1864 -0.1796  0.1969
   53MOL   C38122325   3.198   0.178   3.221 -0.1310 -0.2052  0.0335
   53MOL   C38222326   3.340   0.160   3.164 -0.2845  0.3149 -0.4755
   53MOL   C38322327   3.398   0.248   3.047  0.0592 -0.4126 -1.4386
   53MOL   C38422328   3.416   0.399   3.085  0.2604  0.4851  0.9413
   53MOL   C38522329   3.304   0.242   2.925  0.4030 -0.0400  0.3468
   53MOL   C38622330   3.535   0.193   3.002 -0.8936 -0.2637 -0.5609
   53MOL   H38722331   3.227   7.748   3.318  1.2557  1.0859 -0.8345
   53MOL   H38822332   3.065   0.043   3.337 -0.9080  1.4175 -0.8559
   53MOL   H38922333   3.133   0.222   3.145  0.6732 -0.2215 -0.6619
   53MOL   H39022334   3.405   0.170   3.251 -0.8740  1.0176 -0.1089
   53MOL   H39122335   3.348   0.058   3.127 -0.0090 -0.3359  1.3115
   53MOL   H39222336   3.319   0.447   3.091  0.1861  0.7564 -2.0856
   53MOL   H39322337   3.466   0.417   3.181  0.0428  1.0240  0.9560
   53MOL   H39422338   3.479   0.458   3.019  0.0377  1.9674  2.0400
   53MOL   H39522339   3.296   0.134   2.910  2.8337 -0.4112  1.4328
   53MOL   H39622340   3.343   0.273   2.829 -0.4679 -0.7188 -0.2419
   53MOL   H39722341   3.208   0.292   2.941  0.2141 -0.3952  0.3387
   53MOL   H39822342   3.574   0.248   2.916 -0.0721  1.9116  1.1430
   53MOL   H39922343   3.539   0.090   2.967 -0.7715 -0.8780  1.2185
   53MOL   H40022344   3.606   0.198   3.084 -2.1475  0.2832  0.5070
   53MOL   C40122345   3.186   0.270   3.346  0.2051  0.1949 -0.2023
   53MOL   C40222346   3.047   0.313   3.399 -0.1295  0.1730  0.4203
   53MOL   C40322347   2.959   0.367   3.284 -0.7093  0.0152 -0.3850
   53MOL   C40422348   2.821   0.426   3.313  0.1956 -0.7300 -0.4124
   53MOL   C40522349   2.712   0.313   3.320  0.0463 -0.0938  0.1275
   53MOL   C40622350   2.784   0.518   3.196  0.1390  0.1527 -0.0811
   53MOL   C40722351   2.820   0.512   3.446  0.0290  0.3517  0.0814
   53MOL   H40822352   3.251   0.220   3.418  1.2656  0.6190 -0.8503
   53MOL   H40922353   3.240   0.363   3.325 -1.9428  1.8518  1.3910
   53MOL   H41022354   2.994   0.232   3.449  0.6552 -1.7947 -1.8516
   53MOL   H41122355   2.944   0.279   3.221 -2.8827 -0.1271  0.2870
   53MOL   H41222356   3.012   0.431   3.214  0.4133 -2.4237 -1.8463
   53MOL   H41322357   2.718   0.248   3.233 -0.1714 -1.4695  1.1286
   53MOL   H41422358   2.611   0.351   3.335  0.1840  0.8572 -1.2357
   53MOL   H41522359   2.733   0.253   3.408 -0.0200 -0.8914 -0.3919
   53MOL   H41622360   2.851   0.602   3.183  0.7824 -0.2201  0.7837
   53MOL   H41722361   2.681   0.553   3.204 -0.1532 -0.0762 -2.5589
   53MOL   H41822362   2.781   0.469   3.099  3.0093  1.8018 -1.0706
   53MOL   H41922363   2.724   0.563   3.457 -0.7146 -1.1020  0.5131
   53MOL   H42022364   2.830   0.440   3.528  0.5626 -1.6934 -1.7273
   53MOL   H42122365   2.898   0.587   3.443 -1.0139  1.6116  2.8859
   53MOL   H42222366   3.055   0.381   3.484 -0.7718  1.3623 -0.4448
   54MOL     C122367   5.286   5.583   2.631  0.0565 -0.4366 -0.5128
   54MOL     C222368   5.236   5.537   2.490 -0.0670 -0.1756 -0.0792
   54MOL     C322369   5.326   5.421   2.439 -0.0784  0.2262  0.0258
   54MOL     C422370   5.287   5.272   2.469  0.2359 -1.4779 -0.0316
   54MOL     C522371   5.413   5.186   2.439  0.3568 -0.7185  0.1440
   54MOL     C622372   5.249   5.234   2.609 -0.3975  0.0780 -0.1719
   54MOL     C722373   5.180   5.231   2.371 -0.8252 -0.0294  0.2849
   54MOL     H822374   5.228   5.673   2.649 -0.7084 -0.5408 -2.3794
   54MOL     H922375   5.278   5.517   2.718  0.4625  0.1138 -0.0578
   54MOL    H1022376   5.135   5.502   2.507 -1.1946  2.3315 -1.3821
   54MOL    H1122377   5.427   5.438   2.477  0.0906  3.0406 -1.6066
   54MOL    H1222378   5.352   5.428   2.333  1.0849 -0.4913  0.2539
   54MOL    H1322379   5.397   5.080   2.457 -1.4313 -0.4796  0.1102
   54MOL    H1422380   5.493   5.226   2.501  0.0785  1.8433 -1.0729
   54MOL    H1522381   5.448   5.203   2.337  0.1580 -0.6375  0.0881
   54MOL    H1622382   5.161   5.290   2.641 -0.3708 -0.7919  1.5182
   54MOL    H1722383   5.216   5.132   2.632  2.9366 -0.6154  1.9114
   54MOL    H1822384   5.331   5.259   2.675  0.5371  1.7037 -1.9143
   54MOL    H1922385   5.082   5.275   2.387 -1.2024  0.1840 -2.3513
   54MOL    H2022386   5.151   5.127   2.386 -0.9791  0.0692  0.6916
   54MOL    H2122387   5.215   5.242   2.268  1.8815 -0.0273  1.1517
   54MOL    H2222388   5.390   5.615   2.628  0.0771 -0.5556 -1.1311
   54MOL    C2322389   5.233   5.651   2.386  0.1095  0.3132  0.0698
   54MOL    C2422390   5.097   5.729   2.405  0.7375 -1.0899 -0.1119
   54MOL    C2522391   5.009   5.731   2.277 -0.4438 -0.3165  0.1512
   54MOL    C2622392   4.900   5.629   2.275  0.2263  0.4107  0.0278
   54MOL    C2722393   4.830   5.641   2.139 -0.3812 -0.4128 -0.0876
   54MOL    C2822394   4.950   5.482   2.288  0.2528  0.1062  0.2031
   54MOL    C2922395   4.793   5.654   2.384  0.0858 -0.0837 -0.4609
   54MOL    H3022396   5.328   5.698   2.411  0.5719 -1.1047  1.0385
   54MOL    H3122397   5.243   5.618   2.283  0.4439 -0.7221  0.4222
   54MOL    H3222398   5.037   5.685   2.485  1.0996 -0.2035  0.6662
   54MOL    H3322399   5.076   5.721   2.192 -0.0331  0.0801  0.4224
   54MOL    H3422400   4.953   5.825   2.273 -0.5937 -0.3480  1.2219
   54MOL    H3522401   4.901   5.595   2.070  0.2541  1.2885 -0.5991
   54MOL    H3622402   4.737   5.589   2.117 -0.9028  1.2347 -2.0143
   54MOL    H3722403   4.813   5.746   2.114  0.9039  0.1048  1.1012
   54MOL    H3822404   5.052   5.470   2.251 -0.8547 -0.7648 -2.7027
   54MOL    H3922405   4.959   5.447   2.391 -0.7822 -0.0007  0.2678
   54MOL    H4022406   4.880   5.414   2.240  0.9878 -0.4479 -0.0906
   54MOL    H4122407   4.769   5.760   2.392 -1.9550 -0.6862  1.6640
   54MOL    H4222408   4.832   5.626   2.482  1.7496 -0.9261 -1.3505
   54MOL    H4322409   4.696   5.606   2.370  0.6128 -1.6051  0.9315
   54MOL    C4422410   5.130   5.873   2.452 -0.8291 -0.0578  0.0210
   54MOL    C4522411   5.018   5.978   2.479  0.3418  0.0609  0.1967
   54MOL    C4622412   5.017   6.073   2.361  0.3931 -0.2797  0.4287
   54MOL    C4722413   4.892   6.146   2.314 -0.1131  0.3477 -0.5516
   54MOL    C4822414   4.932   6.255   2.209 -0.5888  0.5839  0.5085
   54MOL    C4922415   4.816   6.223   2.417  0.5818 -0.3475 -0.3069
   54MOL    C5022416   4.805   6.054   2.232  0.8737  0.4533 -0.2209
   54MOL    H5122417   5.190   5.865   2.542  0.1686 -0.7016 -0.6928
   54MOL    H5222418   5.201   5.912   2.380 -0.8290 -2.8000 -1.5412
   54MOL    H5322419   4.924   5.924   2.481  1.9086 -2.7997 -0.2609
   54MOL    H5422420   5.066   6.024   2.276  0.9913  1.6545 -0.3764
   54MOL    H5522421   5.091   6.146   2.394 -0.2799  0.4683  0.2955
   54MOL    H5622422   5.004   6.326   2.250 -0.0634 -0.7835  2.0391
   54MOL    H5722423   4.846   6.307   2.167 -0.0531 -0.5397 -2.0874
   54MOL    H5822424   4.979   6.209   2.122 -1.9368 -1.3992  0.8055
   54MOL    H5922425   4.725   6.265   2.374  2.1737  0.7739 -2.6255
   54MOL    H6022426   4.783   6.145   2.486 -0.2755 -1.5533 -2.0354
   54MOL    H6122427   4.865   6.303   2.472  0.1698  0.3310 -0.9092
   54MOL    H6222428   4.844   6.018   2.136  0.4765  2.4993 -1.1858
   54MOL    H6322429   4.767   5.976   2.298 -1.3760  1.0974 -0.7276
   54MOL    H6422430   4.722   6.116   2.195 -1.2880 -1.1305  1.8628
   54MOL    C6522431   5.049   6.054   2.618 -0.1600  0.5657  0.1796
   54MOL    C6622432   4.980   5.999   2.748  0.3014 -0.3074  0.3403
   54MOL    C6722433   5.008   6.093   2.870 -0.2301  0.0261 -0.6345
   54MOL    C6822434   4.951   6.237   2.874 -0.1121  0.1189 -0.0774
   54MOL    C6922435   5.053   6.344   2.829 -0.3225 -0.0456  0.4668
   54MOL    C7022436   4.813   6.261   2.814 -0.0365 -0.0261 -0.0086
   54MOL    C7122437   4.933   6.265   3.022 -0.1234  0.6146 -0.3921
   54MOL    H7222438   5.156   6.058   2.636 -0.2623 -0.3161  1.0138
   54MOL    H7322439   5.020   6.156   2.593 -2.4822 -0.0420  0.2851
   54MOL    H7422440   4.873   6.007   2.727 -0.2656 -0.1817  3.1649
   54MOL    H7522441   5.117   6.100   2.878 -0.2861  0.9839 -0.6691
   54MOL    H7622442   4.966   6.038   2.954 -0.6613 -0.0418 -0.8934
   54MOL    H7722443   5.006   6.442   2.817 -0.5850 -0.4222 -1.9019
   54MOL    H7822444   5.129   6.359   2.906  0.1700 -0.3537  0.0436
   54MOL    H7922445   5.105   6.317   2.737  2.0201  0.5184  1.6110
   54MOL    H8022446   4.765   6.342   2.868  1.4157  0.1121  1.1244
   54MOL    H8122447   4.747   6.174   2.813 -0.0120 -0.0519 -1.4729
   54MOL    H8222448   4.817   6.293   2.710 -0.2806 -0.5095 -0.1688
   54MOL    H8322449   4.911   6.371   3.039  1.4280  1.1613 -1.6765
   54MOL    H8422450   5.019   6.236   3.083 -0.3681  1.6108  0.4354
   54MOL    H8522451   4.853   6.205   3.065  0.6564 -1.2786 -1.5233
   54MOL    C8622452   5.025   5.854   2.778  0.7603  0.5121  0.5452
   54MOL    C8722453   4.942   5.770   2.886  0.4880 -0.0793  0.8071
   54MOL    C8822454   5.021   5.641   2.923  0.2080  0.1042 -1.2578
   54MOL    C8922455   5.123   5.637   3.040  0.3960 -0.8166  0.5485
   54MOL    C9022456   5.065   5.693   3.173 -0.1926  0.4542 -0.5058
   54MOL    C9122457   5.250   5.725   3.012  0.6622  0.0474  0.2689
   54MOL    C9222458   5.166   5.486   3.059  0.0172 -0.0587 -0.3027
   54MOL    H9322459   5.133   5.857   2.792  0.9782  0.8662 -1.0935
   54MOL    H9422460   5.016   5.803   2.682  2.3036  0.1702  0.5739
   54MOL    H9522461   4.931   5.825   2.980  5.2363  1.3180  0.7018
   54MOL    H9622462   5.064   5.592   2.837  4.3169  1.1771  0.0843
   54MOL    H9722463   4.950   5.566   2.959 -0.9483  1.2811 -1.0401
   54MOL    H9822464   5.044   5.800   3.178  2.5745  0.9879  0.8726
   54MOL    H9922465   5.122   5.676   3.264  0.8405 -1.5246 -1.5049
   54MOL   H10022466   4.970   5.647   3.198  0.1707 -0.8440 -1.4591
   54MOL   H10122467   5.231   5.830   2.991 -1.1375 -0.0268  1.4174
   54MOL   H10222468   5.319   5.729   3.095 -0.1824  4.0292  0.8370
   54MOL   H10322469   5.300   5.678   2.927 -2.8236 -1.3240 -1.1561
   54MOL   H10422470   5.087   5.410   3.059  0.2603 -0.3106 -0.1234
   54MOL   H10522471   5.229   5.454   2.976 -1.0921 -1.6091 -0.5813
   54MOL   H10622472   5.210   5.470   3.157  0.3672 -1.7983 -0.7183
   54MOL   C10722473   4.802   5.726   2.830  0.6289  0.4030 -0.1641
   54MOL   C10822474   4.686   5.736   2.930  0.0319 -0.5003  0.8517
   54MOL   C10922475   4.649   5.888   2.949 -0.5774 -0.2049  0.6693
   54MOL   C11022476   4.595   5.941   3.085 -0.0726  0.2124 -0.4763
   54MOL   C11122477   4.708   5.935   3.190  0.3558  0.5517  0.7843
   54MOL   C11222478   4.473   5.860   3.145  0.2635 -0.0106 -0.1095
   54MOL   C11322479   4.550   6.088   3.058 -0.0792 -0.6017 -0.1946
   54MOL   H11422480   4.802   5.625   2.790 -2.3870  0.0818  0.5038
   54MOL   H11522481   4.779   5.789   2.743 -1.8156 -0.0445  0.1148
   54MOL   H11622482   4.741   5.713   3.022  0.8836 -1.7460  0.0472
   54MOL   H11722483   4.727   5.952   2.907 -0.3682 -1.4453 -0.8871
   54MOL   H11822484   4.570   5.899   2.874 -1.4921 -1.2194  1.4913
   54MOL   H11922485   4.677   5.990   3.279  0.7746  3.0515 -0.5722
   54MOL   H12022486   4.716   5.828   3.206  1.1355  0.6123  0.8229
   54MOL   H12122487   4.799   5.979   3.149  0.1757  0.6592  0.5012
   54MOL   H12222488   4.518   5.767   3.181  0.1842 -0.1654 -0.4108
   54MOL   H12322489   4.392   5.832   3.077 -0.7463  1.5579  0.4328
   54MOL   H12422490   4.431   5.920   3.225 -1.2690 -1.2366  0.0262
   54MOL   H12522491   4.629   6.156   3.027  1.6919 -1.9427  1.2807
   54MOL   H12622492   4.505   6.127   3.149 -0.2445 -0.2960 -0.4047
   54MOL   H12722493   4.476   6.091   2.978 -1.8615 -2.6431  1.3039
   54MOL   C12822494   4.564   5.638   2.903 -0.3553 -0.4447 -0.3798
   54MOL   C12922495   4.573   5.486   2.940  0.0062  1.6361  0.7938
   54MOL   C13022496   4.539   5.453   3.093 -0.0715  0.3783  0.3937
   54MOL   C13122497   4.612   5.340   3.176 -0.4163 -0.3004 -0.4275
   54MOL   C13222498   4.762   5.369   3.197 -0.6313 -0.1526 -0.2769
   54MOL   C13322499   4.608   5.204   3.113  0.0750  0.1901  0.0997
   54MOL   C13422500   4.548   5.331   3.316  0.2265 -0.1612 -0.2035
   54MOL   H13522501   4.542   5.649   2.797 -1.2442  0.5220 -0.1053
   54MOL   H13622502   4.470   5.675   2.944 -1.4515 -0.5889 -2.6676
   54MOL   H13722503   4.677   5.456   2.922 -0.0095  1.7744  0.4782
   54MOL   H13822504   4.565   5.545   3.145  3.1912 -0.2029 -0.1336
   54MOL   H13922505   4.431   5.435   3.096 -0.1524  0.1780 -2.2161
   54MOL   H14022506   4.804   5.407   3.104  0.1859  0.0116  0.1538
   54MOL   H14122507   4.832   5.290   3.224 -1.0092  0.6580  3.4569
   54MOL   H14222508   4.786   5.451   3.265 -0.7164 -0.8286  0.5829
   54MOL   H14322509   4.503   5.180   3.099 -0.1080  0.4582  0.9571
   54MOL   H14422510   4.657   5.124   3.169 -3.7780 -2.0388  0.4366
   54MOL   H14522511   4.667   5.204   3.021  1.2000  1.0071  0.8021
   54MOL   H14622512   4.541   5.429   3.364  1.0814 -0.5340  0.7039
   54MOL   H14722513   4.445   5.293   3.319  0.6053 -1.4485 -2.4148
   54MOL   H14822514   4.606   5.267   3.383 -1.3285 -1.4575 -0.0564
   54MOL   C14922515   4.482   5.395   2.849 -0.3019  0.7759 -0.2986
   54MOL   C15022516   4.533   5.367   2.702 -0.5432 -0.2043  0.2530
   54MOL   C15122517   4.623   5.241   2.688 -0.3496 -0.4314 -0.4020
   54MOL   C15222518   4.737   5.234   2.590 -0.3754 -0.0507 -0.2163
   54MOL   C15322519   4.778   5.090   2.585  0.0960  0.1091  0.4962
   54MOL   C15422520   4.858   5.325   2.637  0.3354 -0.1168 -0.3879
   54MOL   C15522521   4.701   5.277   2.453 -0.0364  0.7465  0.3259
   54MOL   H15622522   4.381   5.437   2.851 -0.6360  0.1419 -2.5794
   54MOL   H15722523   4.479   5.298   2.898  0.3930  1.6725  1.5976
   54MOL   H15822524   4.600   5.452   2.689 -0.8725  0.1653  0.9492
   54MOL   H15922525   4.560   5.153   2.670 -0.7329 -0.1303 -0.5534
   54MOL   H16022526   4.671   5.224   2.784  1.3733 -0.5070 -1.2697
   54MOL   H16122527   4.698   5.027   2.547  0.0697  0.4598 -0.0310
   54MOL   H16222528   4.863   5.077   2.519 -0.5964 -0.4870 -0.2884
   54MOL   H16322529   4.797   5.048   2.684 -0.3571 -0.5018  0.3300
   54MOL   H16422530   4.836   5.431   2.623 -1.7639 -0.3601  0.9375
   54MOL   H16522531   4.952   5.315   2.582  0.4771 -1.0378  0.0135
   54MOL   H16622532   4.885   5.300   2.739 -0.2805 -0.4375 -0.3032
   54MOL   H16722533   4.674   5.382   2.439 -1.5178  0.2632 -0.6814
   54MOL   H16822534   4.764   5.239   2.372  0.9889  1.6893  0.6770
   54MOL   H16922535   4.607   5.229   2.425 -0.2584  0.9653  0.6927
   54MOL   C17022536   4.422   5.373   2.594 -0.3490  0.0357  0.2226
   54MOL   C17122537   4.339   5.502   2.575 -0.3800 -0.3518  0.0020
   54MOL   C17222538   4.215   5.468   2.497  0.4427  0.1197 -0.4785
   54MOL   C17322539   4.099   5.423   2.585  0.7737  0.5713  0.0182
   54MOL   C17422540   4.139   5.309   2.681  0.4897 -0.5003  0.5506
   54MOL   C17522541   3.991   5.374   2.488 -0.8159  0.0557 -0.0290
   54MOL   C17622542   4.034   5.535   2.662  0.5056 -0.1987 -0.4965
   54MOL   H17722543   4.372   5.278   2.610  1.3415 -0.2922  4.2078
   54MOL   H17822544   4.475   5.360   2.500  2.7423 -1.2835  2.0596
   54MOL   H17922545   4.319   5.541   2.675  0.9772  2.1844 -0.6646
   54MOL   H18022546   4.181   5.547   2.431  1.6955  1.1794  0.1285
   54MOL   H18122547   4.237   5.388   2.426  1.1500  0.7482 -0.9640
   54MOL   H18222548   4.163   5.226   2.614  0.6001 -1.6448  1.9848
   54MOL   H18322549   4.214   5.332   2.756  0.3889  0.9103  0.2346
   54MOL   H18422550   4.047   5.276   2.731  0.8894 -2.7778 -0.1395
   54MOL   H18522551   3.906   5.337   2.545  0.0259  0.2511  1.3841
   54MOL   H18622552   3.966   5.450   2.414 -3.1471  0.3379  0.9918
   54MOL   H18722553   4.026   5.290   2.428  3.1832  0.7380  1.1656
   54MOL   H18822554   3.956   5.480   2.715 -0.7576  2.1427  0.1503
   54MOL   H18922555   4.092   5.582   2.742 -3.2769  1.4446  1.4026
   54MOL   H19022556   3.992   5.617   2.603  0.8264 -0.1499 -0.6635
   54MOL   C19122557   4.427   5.615   2.516 -0.5002 -0.0904 -0.2994
   54MOL   C19222558   4.368   5.756   2.502  0.3068 -0.3701 -0.9626
   54MOL   C19322559   4.426   5.844   2.386 -0.4907 -0.0209  0.6559
   54MOL   C19422560   4.377   5.824   2.239 -0.0588  1.0080  0.1954
   54MOL   C19522561   4.226   5.854   2.215 -0.2780  0.3571  0.3056
   54MOL   C19622562   4.402   5.684   2.180  0.1309  0.3487 -0.3118
   54MOL   C19722563   4.461   5.923   2.161 -0.5234 -0.3995 -0.2655
   54MOL   H19822564   4.515   5.627   2.580  0.6968  1.4876 -2.1957
   54MOL   H19922565   4.472   5.574   2.425 -1.7969 -1.2230 -0.4400
   54MOL   H20022566   4.262   5.747   2.481  0.1904  0.3819 -0.6986
   54MOL   H20122567   4.535   5.838   2.394 -0.5850 -0.2005  2.0684
   54MOL   H20222568   4.402   5.948   2.407 -0.3992  0.1503 -0.0879
   54MOL   H20322569   4.154   5.778   2.244 -0.3007  0.5673  0.8052
   54MOL   H20422570   4.194   5.953   2.248 -0.6093  0.7574 -1.1804
   54MOL   H20522571   4.196   5.860   2.110 -1.2066 -0.9734  0.4810
   54MOL   H20622572   4.510   5.665   2.177  0.0463 -0.1239 -0.2352
   54MOL   H20722573   4.354   5.611   2.244 -0.1454  0.1485 -0.7517
   54MOL   H20822574   4.371   5.677   2.076  1.2686 -1.8889 -0.5219
   54MOL   H20922575   4.564   5.888   2.146 -0.6614 -0.2267 -1.7501
   54MOL   H21022576   4.418   5.952   2.065 -0.6096 -1.1027 -0.4472
   54MOL   H21122577   4.474   6.014   2.218 -2.5468  0.0103 -0.4367
   54MOL   C21222578   4.374   5.836   2.636  1.1948 -0.1730 -0.1367
   54MOL   C21322579   4.258   5.948   2.634  0.2609 -0.0116  0.0013
   54MOL   C21422580   4.291   6.075   2.715 -0.3243 -0.5046  0.3423
   54MOL   C21522581   4.377   6.194   2.645 -0.0829  0.4697 -0.2114
   54MOL   C21622582   4.362   6.310   2.739 -0.1972  0.0401  0.4998
   54MOL   C21722583   4.521   6.142   2.642  0.7745  0.7214  0.3181
   54MOL   C21822584   4.335   6.239   2.499  0.2137  0.1536 -0.0116
   54MOL   H21922585   4.341   5.773   2.719 -0.3257  2.1292  1.0518
   54MOL   H22022586   4.475   5.864   2.664  1.6426  0.4936 -2.2824
   54MOL   H22122587   4.242   5.988   2.534  0.9813  0.2231 -0.0238
   54MOL   H22222588   4.340   6.040   2.806 -0.7387 -0.6998  0.4919
   54MOL   H22322589   4.202   6.115   2.763  0.4267 -0.2049  1.5111
   54MOL   H22422590   4.428   6.303   2.826  0.7909 -1.7982 -0.3669
   54MOL   H22522591   4.260   6.331   2.771 -0.5027  1.5272 -1.3541
   54MOL   H22622592   4.413   6.399   2.703 -1.4291  0.6801  0.2895
   54MOL   H22722593   4.548   6.086   2.552  2.0618 -0.0301  1.1647
   54MOL   H22822594   4.601   6.215   2.635  0.7839  0.7200  0.4295
   54MOL   H22922595   4.546   6.089   2.734 -1.4588  0.9943  1.1112
   54MOL   H23022596   4.295   6.163   2.432  1.0155  0.0125 -0.3394
   54MOL   H23122597   4.416   6.289   2.447 -0.4753  1.5458  0.2319
   54MOL   H23222598   4.254   6.311   2.510  0.7256  0.7889 -0.4058
   54MOL   C23322599   4.125   5.886   2.681  0.0011 -0.4362 -0.1104
   54MOL   C23422600   3.994   5.972   2.638 -0.7099 -0.0941  0.1067
   54MOL   C23522601   3.946   5.936   2.494 -0.1815 -0.2533  0.5620
   54MOL   C23622602   3.870   6.035   2.402 -0.3789 -0.9113 -0.1285
   54MOL   C23722603   3.834   5.956   2.269 -0.1332  0.4661 -0.2274
   54MOL   C23822604   3.730   6.095   2.459 -0.1537  0.0263  0.4408
   54MOL   C23922605   3.959   6.156   2.357 -0.1425  0.5636  1.0676
   54MOL   H24022606   4.134   5.872   2.789 -1.5405 -0.9476 -0.0291
   54MOL   H24122607   4.101   5.788   2.640 -2.5045  0.1877 -0.2462
   54MOL   H24222608   4.019   6.078   2.641  0.6483 -0.3529 -1.4189
   54MOL   H24322609   4.035   5.906   2.437 -0.6406 -2.6642  1.0334
   54MOL   H24422610   3.886   5.846   2.506  1.1906 -1.0089  2.0151
   54MOL   H24522611   3.756   5.884   2.292  1.3030 -0.5800  1.6248
   54MOL   H24622612   3.922   5.908   2.227  0.0882 -0.8412  1.6345
   54MOL   H24722613   3.800   6.029   2.197  1.7531  0.6413 -0.9756
   54MOL   H24822614   3.757   6.150   2.549  1.9162 -1.9053  1.0433
   54MOL   H24922615   3.676   6.171   2.402  0.9351  0.0742 -0.5618
   54MOL   H25022616   3.663   6.014   2.488  0.4839 -0.9440 -0.7499
   54MOL   H25122617   3.904   6.217   2.286 -0.8365  0.9091  1.8959
   54MOL   H25222618   4.005   6.219   2.433 -1.6539 -0.4913  2.9106
   54MOL   H25322619   4.036   6.115   2.291 -0.0477 -1.6011  2.4719
   54MOL   C25422620   3.887   5.942   2.755 -0.2727  0.1283  0.4521
   54MOL   C25522621   3.900   5.984   2.902  0.2786  0.3681  0.4055
   54MOL   C25622622   3.784   5.922   2.988 -0.4504 -0.9382 -0.4001
   54MOL   C25722623   3.796   5.784   3.061  0.2397  0.2502 -0.5519
   54MOL   C25822624   3.652   5.764   3.117  0.0079 -0.3440 -0.2085
   54MOL   C25922625   3.895   5.790   3.176  0.3447  0.3396  0.7907
   54MOL   C26022626   3.840   5.680   2.960  0.2565 -0.0945  0.2275
   54MOL   H26122627   3.865   5.836   2.745  0.6908  0.0466 -1.0191
   54MOL   H26222628   3.791   5.983   2.721 -1.0201 -1.2302  0.9114
   54MOL   H26322629   3.992   5.937   2.934  0.6061  0.1441 -0.8522
   54MOL   H26422630   3.758   5.986   3.072 -0.9319 -0.2986 -1.0274
   54MOL   H26522631   3.696   5.921   2.922 -0.6664 -0.3391 -0.1232
   54MOL   H26622632   3.650   5.701   3.206 -0.3056 -2.0794 -1.4121
   54MOL   H26722633   3.584   5.707   3.053  1.8125 -0.0948 -2.4160
   54MOL   H26822634   3.597   5.856   3.135  0.6019 -0.2295  1.0990
   54MOL   H26922635   3.868   5.870   3.245 -0.7700  0.6473  0.0086
   54MOL   H27022636   3.996   5.797   3.136 -0.6434 -2.3947 -2.3999
   54MOL   H27122637   3.882   5.708   3.247 -3.9907 -1.3947 -1.8441
   54MOL   H27222638   3.945   5.672   2.932  0.7307  1.8403  1.4067
   54MOL   H27322639   3.823   5.582   3.006  3.2865 -0.2976  1.0279
   54MOL   H27422640   3.790   5.677   2.863  0.8363  0.5560 -0.0963
   54MOL   C27522641   3.918   6.137   2.914 -0.5552  0.3217 -0.6693
   54MOL   C27622642   3.913   6.205   3.054 -0.3139  0.8106 -0.1458
   54MOL   C27722643   4.040   6.170   3.147  0.2691 -0.2627  0.4741
   54MOL   C27822644   4.045   6.208   3.302 -0.0502 -0.1188  0.6208
   54MOL   C27922645   4.162   6.135   3.370  0.2410 -0.4399 -0.1927
   54MOL   C28022646   4.061   6.358   3.327  0.0040 -0.1093  0.2061
   54MOL   C28122647   3.920   6.163   3.369 -0.3474  0.1007 -0.4498
   54MOL   H28222648   4.015   6.162   2.871  0.1701 -0.1192  0.6617
   54MOL   H28322649   3.850   6.187   2.846 -0.0999  1.9408  0.0295
   54MOL   H28422650   3.820   6.173   3.102  0.1888  0.2275  0.4505
   54MOL   H28522651   4.131   6.205   3.100 -0.1238 -1.5766 -1.3321
   54MOL   H28622652   4.052   6.062   3.146  3.0201  0.0300 -1.9295
   54MOL   H28722653   4.139   6.116   3.475 -0.3502  1.6396  0.0758
   54MOL   H28822654   4.170   6.032   3.336  0.1385 -1.0997  1.7195
   54MOL   H28922655   4.256   6.191   3.374  0.6332 -0.6984 -3.8744
   54MOL   H29022656   3.966   6.412   3.325 -0.9156 -1.5956  1.9869
   54MOL   H29122657   4.111   6.404   3.242 -0.0849 -0.9211 -0.2897
   54MOL   H29222658   4.109   6.382   3.422 -0.0381  0.0486  0.1886
   54MOL   H29322659   3.839   6.212   3.315 -0.3075  0.2846 -0.3436
   54MOL   H29422660   3.921   6.196   3.473  2.9502  0.8987 -0.6869
   54MOL   H29522661   3.911   6.055   3.375 -2.1860  0.2292 -0.5434
   54MOL   C29622662   3.900   6.357   3.031  0.1451  0.6332  0.2590
   54MOL   C29722663   3.772   6.405   2.965 -0.2571  0.1560 -0.3762
   54MOL   C29822664   3.786   6.552   2.904 -0.2921 -0.0252 -0.6816
   54MOL   C29922665   3.857   6.575   2.766 -0.1978  0.1808  0.2993
   54MOL   C30022666   4.004   6.540   2.749 -0.2503  0.0278 -0.1822
   54MOL   C30122667   3.790   6.517   2.646  0.1960 -0.1424 -0.6684
   54MOL   C30222668   3.854   6.733   2.743  0.0890 -0.3170 -0.0011
   54MOL   H30322669   3.985   6.377   2.966 -0.7964  0.2083 -1.1330
   54MOL   H30422670   3.909   6.412   3.125  0.7417 -0.6820  0.9831
   54MOL   H30522671   3.746   6.345   2.878  4.1126 -1.2516 -0.8556
   54MOL   H30622672   3.833   6.608   2.984  0.4832 -2.5071  0.6468
   54MOL   H30722673   3.687   6.598   2.900 -0.7150 -0.9133 -0.7158
   54MOL   H30822674   4.072   6.568   2.829 -0.5117  1.8010 -0.5524
   54MOL   H30922675   4.008   6.431   2.755  1.6704  0.0857 -0.2409
   54MOL   H31022676   4.046   6.580   2.657  0.2044  1.3105  0.5758
   54MOL   H31122677   3.807   6.410   2.632  2.5699 -0.0070  0.9565
   54MOL   H31222678   3.681   6.526   2.645  0.2826  1.4587  1.2234
   54MOL   H31322679   3.833   6.554   2.553 -0.8275  0.0494 -1.0778
   54MOL   H31422680   3.923   6.746   2.660 -0.5528  1.1031 -0.3262
   54MOL   H31522681   3.754   6.767   2.716 -0.6697 -0.3104  2.6054
   54MOL   H31622682   3.889   6.792   2.828  0.4581 -0.7103  0.1220
   54MOL   C31722683   3.655   6.407   3.067 -0.4301  0.3291  0.3766
   54MOL   C31822684   3.511   6.390   3.012 -0.3275  0.1380 -0.9057
   54MOL   C31922685   3.505   6.241   2.966 -0.0129  0.5272 -1.0741
   54MOL   C32022686   3.437   6.213   2.836 -0.5070  0.8514  0.3373
   54MOL   C32122687   3.287   6.249   2.827  0.8128  0.0678 -0.6139
   54MOL   C32222688   3.426   6.060   2.825 -0.7914 -0.2306  0.5992
   54MOL   C32322689   3.523   6.272   2.721  0.4694  0.5571 -0.1858
   54MOL   H32422690   3.658   6.327   3.141  0.1630  3.6669  4.1595
   54MOL   H32522691   3.660   6.490   3.138 -1.7104  0.0542  0.8231
   54MOL   H32622692   3.497   6.459   2.929 -0.0211  2.3610  0.8438
   54MOL   H32722693   3.460   6.184   3.046  0.3606 -0.5564 -1.6232
   54MOL   H32822694   3.605   6.198   2.956  0.4376  1.7845 -2.0969
   54MOL   H32922695   3.288   6.357   2.821 -0.3342 -0.0101 -2.4839
   54MOL   H33022696   3.241   6.218   2.922  0.5630  1.2335 -0.3507
   54MOL   H33122697   3.227   6.202   2.749 -1.2705  0.4528  0.6918
   54MOL   H33222698   3.523   6.021   2.793 -1.4843 -0.7140 -0.9450
   54MOL   H33322699   3.395   6.015   2.919  0.8435  1.5525  2.0359
   54MOL   H33422700   3.352   6.033   2.750 -0.0527  2.3347 -1.1219
   54MOL   H33522701   3.630   6.252   2.732  0.2187 -0.3175  0.7197
   54MOL   H33622702   3.522   6.381   2.719  1.2716  0.5563 -1.8239
   54MOL   H33722703   3.483   6.229   2.629  0.6054  0.4514 -0.1952
   54MOL   C33822704   3.408   6.425   3.128 -0.2283  0.7640  0.3534
   54MOL   C33922705   3.395   6.571   3.154  0.1423  0.1755  0.5503
   54MOL   C34022706   3.314   6.596   3.287 -0.4629  0.0036  0.6077
   54MOL   C34122707   3.388   6.604   3.423  0.6322 -0.0379  0.1036
   54MOL   C34222708   3.495   6.491   3.437 -0.2554  0.1209  0.8083
   54MOL   C34322709   3.459   6.742   3.437  0.7533 -0.1778 -0.5045
   54MOL   C34422710   3.292   6.607   3.544  0.0543  0.5238 -0.4694
   54MOL   H34522711   3.438   6.364   3.213 -2.9143 -1.5202 -0.2682
   54MOL   H34622712   3.310   6.384   3.106  1.1386 -2.2333 -0.4446
   54MOL   H34722713   3.490   6.626   3.153  0.0203  0.3989 -1.8608
   54MOL   H34822714   3.244   6.514   3.303  2.2579 -2.8563 -1.5282
   54MOL   H34922715   3.247   6.681   3.273 -0.6336 -0.2823 -0.3557
   54MOL   H35022716   3.442   6.396   3.433 -0.3874  0.2725 -1.4734
   54MOL   H35122717   3.569   6.499   3.358 -1.7155 -0.5315 -0.6417
   54MOL   H35222718   3.545   6.507   3.533  0.9306  0.2042  0.1844
   54MOL   H35322719   3.390   6.826   3.432  0.6565 -0.3186 -1.6898
   54MOL   H35422720   3.513   6.747   3.532 -1.3958 -0.8697  0.7979
   54MOL   H35522721   3.532   6.747   3.356  1.4878  0.1973  0.1715
   54MOL   H35622722   3.235   6.514   3.543  3.4547 -1.6636  1.0455
   54MOL   H35722723   3.343   6.599   3.640  1.6950 -0.2318 -1.3848
   54MOL   H35822724   3.218   6.686   3.537 -1.3620 -0.7202  0.1224
   54MOL   C35922725   3.315   6.638   3.032  1.3838 -0.0987  0.2909
   54MOL   C36022726   3.315   6.798   3.037 -0.3517  0.1600 -0.1569
   54MOL   C36122727   3.202   6.871   2.957 -0.3898 -0.5163 -0.0813
   54MOL   C36222728   3.062   6.890   3.013  0.4637  0.5145  0.2438
   54MOL   C36322729   3.071   6.976   3.136  0.1513  0.3580  0.0444
   54MOL   C36422730   2.995   6.757   3.045  0.0226  0.5796  0.4301
   54MOL   C36522731   2.977   6.960   2.913 -0.1500 -0.4036 -0.2230
   54MOL   H36622732   3.210   6.610   3.042  0.9989  1.2388  0.1324
   54MOL   H36722733   3.356   6.609   2.936  2.1372  1.5694  0.0873
   54MOL   H36822734   3.314   6.831   3.141  1.8305 -2.8987  0.9102
   54MOL   H36922735   3.249   6.961   2.919  1.2941 -0.9185  0.9817
   54MOL   H37022736   3.182   6.820   2.863 -2.8285 -0.4397  0.3616
   54MOL   H37122737   2.972   7.007   3.171  0.3504  1.1850 -0.1288
   54MOL   H37222738   3.115   6.923   3.220 -0.1974  0.5113  0.3234
   54MOL   H37322739   3.125   7.068   3.116  0.2139  0.2238 -0.4199
   54MOL   H37422740   3.042   6.704   3.127  1.5041 -0.1958 -0.8762
   54MOL   H37522741   3.001   6.706   2.949  1.6494  1.3980  0.0764
   54MOL   H37622742   2.889   6.772   3.066  0.2197  1.9580  0.4744
   54MOL   H37722743   2.886   6.996   2.962  1.2044  0.5663  1.6209
   54MOL   H37822744   2.944   6.895   2.832 -0.3615 -1.1035  0.4158
   54MOL   H37922745   3.020   7.045   2.861 -1.0096 -0.0194 -0.3289
   54MOL   C38022746   3.455   6.834   2.978  0.1069  0.1649  0.1050
   54MOL   C38122747   3.493   6.976   3.014 -0.0664  0.1098  0.2084
   54MOL   C38222748   3.587   7.045   2.897 -0.0147 -0.0490 -0.3165
   54MOL   C38322749   3.540   7.182   2.842  0.1168 -0.1430 -0.0227
   54MOL   C38422750   3.411   7.159   2.759 -0.2238 -0.4792  0.0479
   54MOL   C38522751   3.637   7.236   2.732  0.3624 -0.3561 -0.8482
   54MOL   C38622752   3.517   7.280   2.957  0.5173 -0.6115  0.1719
   54MOL   H38722753   3.445   6.826   2.869 -4.2560 -0.0117  0.4244
   54MOL   H38822754   3.533   6.758   2.986 -0.8405 -0.9018 -0.5779
   54MOL   H38922755   3.398   7.027   3.027 -1.3175 -2.2945  0.7450
   54MOL   H39022756   3.692   7.062   2.921 -0.4535  0.3141  1.4035
   54MOL   H39122757   3.611   6.982   2.812  0.3687  1.7531 -1.5878
   54MOL   H39222758   3.421   7.084   2.681 -2.0947 -1.0125  0.3007
   54MOL   H39322759   3.328   7.127   2.821  1.1724 -0.8708  1.7521
   54MOL   H39422760   3.390   7.248   2.699 -2.8502 -2.1605 -1.5891
   54MOL   H39522761   3.604   7.331   2.690  0.5952  0.3270  0.4985
   54MOL   H39622762   3.638   7.174   2.642  0.7490  2.8380 -3.1477
   54MOL   H39722763   3.740   7.260   2.760 -0.4696  2.2266  0.1526
   54MOL   H39822764   3.617   7.289   2.998  0.4507 -2.2899  0.7223
   54MOL   H39922765   3.443   7.241   3.027  0.5540  0.0927  0.6111
   54MOL   H40022766   3.492   7.382   2.927  0.0040 -1.1678 -1.3700
   54MOL   C40122767   3.555   6.982   3.155 -1.0466 -0.1180 -0.3014
   54MOL   C40222768   3.688   6.898   3.166 -0.2778  0.1363  0.0191
   54MOL   C40322769   3.770   6.907   3.304 -0.6742 -0.1404 -0.5150
   54MOL   C40422770   3.895   6.818   3.325  0.1545 -0.0038 -0.3754
   54MOL   C40522771   3.846   6.675   3.336 -0.2535 -0.3069  0.0370
   54MOL   C40622772   3.965   6.870   3.448 -0.4532 -0.2263  0.6745
   54MOL   C40722773   3.998   6.829   3.212 -0.1785 -0.4251  0.6772
   54MOL   H40822774   3.554   7.088   3.179  1.6686  0.2913 -1.7909
   54MOL   H40922775   3.481   6.948   3.227  0.2170 -1.2167  0.5065
   54MOL   H41022776   3.666   6.791   3.155 -2.4459  0.6039 -0.3401
   54MOL   H41122777   3.703   6.881   3.386 -1.1178 -1.6240 -1.3395
   54MOL   H41222778   3.795   7.009   3.334  2.9193 -0.8640 -0.8677
   54MOL   H41322779   3.925   6.608   3.367 -0.2723  0.0585  0.8810
   54MOL   H41422780   3.797   6.629   3.250  1.5626 -1.1993 -0.5503
   54MOL   H41522781   3.768   6.669   3.411 -1.4184 -0.3357 -1.1513
   54MOL   H41622782   3.902   6.907   3.529  0.9270 -0.4631  1.8670
   54MOL   H41722783   4.025   6.955   3.416 -0.3815 -0.3684  0.4338
   54MOL   H41822784   4.033   6.790   3.476  1.0236  0.9017  0.3568
   54MOL   H41922785   3.967   6.783   3.118  1.8345 -1.6322  0.5748
   54MOL   H42022786   4.016   6.934   3.192  1.8095 -0.9324 -0.3615
   54MOL   H42122787   4.096   6.782   3.219  1.6154  3.3578  1.9941
   54MOL   H42222788   3.765   6.928   3.095  0.1816  0.8961  0.8373
   55MOL     C122789   0.665   0.364   1.117 -0.6023 -1.0989 -0.7192
   55MOL     C222790   0.520   0.366   1.173 -0.1124 -0.1217  0.9944
   55MOL     C322791   0.498   0.489   1.260  0.4561  0.5389 -0.0062
   55MOL     C422792   0.349   0.540   1.278  0.1428  0.0756  0.6594
   55MOL     C522793   0.277   0.555   1.140  0.0972  0.2422  0.0198
   55MOL     C622794   0.263   0.453   1.371  0.1906  0.1741  0.2418
   55MOL     C722795   0.358   0.686   1.336 -0.9360 -0.3228  0.3040
   55MOL     H822796   0.687   0.288   1.042  1.3826 -1.8575  0.6043
   55MOL     H922797   0.671   0.460   1.065  0.6947 -1.3312 -1.0218
   55MOL    H1022798   0.460   0.371   1.083  1.4155  1.0645  0.0105
   55MOL    H1122799   0.560   0.573   1.230  2.2482 -0.5061  0.6827
   55MOL    H1222800   0.539   0.467   1.359  2.8867 -0.8842 -1.2895
   55MOL    H1322801   0.183   0.610   1.141  1.6000  2.8537  0.5614
   55MOL    H1422802   0.247   0.458   1.099  3.5131 -0.1025 -1.7849
   55MOL    H1522803   0.343   0.602   1.067 -0.7454 -2.0141 -2.2706
   55MOL    H1622804   0.176   0.515   1.392 -0.4086 -0.8662  0.8706
   55MOL    H1722805   0.236   0.359   1.323  0.9601 -0.1255  0.3722
   55MOL    H1822806   0.318   0.434   1.464  0.3360  0.0958  0.1412
   55MOL    H1922807   0.377   0.692   1.444  1.4909 -2.5663  0.0484
   55MOL    H2022808   0.270   0.746   1.313 -1.6711 -0.8812  1.5878
   55MOL    H2122809   0.441   0.736   1.286 -2.7514  0.4484 -2.0045
   55MOL    H2222810   0.738   0.366   1.198  0.9820 -0.7939 -2.1130
   55MOL    C2322811   0.494   0.229   1.240 -0.0524  0.2240  0.0759
   55MOL    C2422812   0.454   0.109   1.146  0.2369 -0.6450  0.3406
   55MOL    C2522813   0.325   0.126   1.056  0.2620 -0.9150  0.4150
   55MOL    C2622814   0.321   0.063   0.910 -0.8959 -0.4683  0.1761
   55MOL    C2722815   0.177   0.083   0.861 -0.4964 -0.0538  0.0817
   55MOL    C2822816   0.430   0.135   0.818 -0.4417  0.1594 -0.5108
   55MOL    C2922817   0.353   7.673   0.898 -0.1521 -0.1221 -0.2264
   55MOL    H3022818   0.578   0.205   1.304 -0.8762  1.5419  1.6938
   55MOL    H3122819   0.417   0.246   1.315  1.2489  1.1379  1.2333
   55MOL    H3222820   0.542   0.109   1.081 -1.8556 -1.8307 -2.5767
   55MOL    H3322821   0.314   0.232   1.034  0.5194 -0.6582  1.4867
   55MOL    H3422822   0.242   0.096   1.119  0.3871 -0.4958  0.7822
   55MOL    H3522823   0.096   0.049   0.925 -0.0429  0.2934  0.8406
   55MOL    H3622824   0.155   0.186   0.832 -0.1230 -0.0299 -0.1261
   55MOL    H3722825   0.166   0.021   0.772 -0.2000 -0.6162  0.4361
   55MOL    H3822826   0.405   0.241   0.824  2.2170  0.9019 -1.8093
   55MOL    H3922827   0.535   0.128   0.845 -0.2389  0.8854 -1.0684
   55MOL    H4022828   0.425   0.116   0.711  1.3289  0.4461 -0.6613
   55MOL    H4122829   0.335   7.630   0.800 -0.8249  1.3460 -0.7631
   55MOL    H4222830   0.307   7.609   0.974 -1.2481 -0.0358 -0.7981
   55MOL    H4322831   0.458   7.657   0.923 -0.0007 -1.7034 -1.8183
   55MOL    C4422832   0.438   7.747   1.233  0.1377 -0.0379  0.0097
   55MOL    C4522833   0.564   7.681   1.290 -0.5432  0.1169  0.0493
   55MOL    C4622834   0.642   7.593   1.190  0.4647  0.0316 -0.3055
   55MOL    C4722835   0.795   7.624   1.171  0.3769  0.8970 -0.1307
   55MOL    C4822836   0.878   7.609   1.295 -0.2424  0.3695  0.3253
   55MOL    C4922837   0.819   7.757   1.100 -0.6188 -0.2075 -1.0202
   55MOL    C5022838   0.852   7.513   1.077  0.3721 -0.5141 -0.5846
   55MOL    H5122839   0.362   0.011   1.305 -1.0725 -1.2177 -0.7480
   55MOL    H5222840   0.390   7.666   1.178  0.2931 -0.3179  0.2844
   55MOL    H5322841   0.637   7.760   1.307 -1.8539  1.4794 -0.5628
   55MOL    H5422842   0.584   7.602   1.098  0.3765 -0.2272 -0.2745
   55MOL    H5522843   0.634   7.488   1.216 -0.4644  0.1978  0.1127
   55MOL    H5622844   0.897   7.503   1.314 -0.8933  0.2636  0.4129
   55MOL    H5722845   0.855   7.670   1.383 -0.2384 -0.2316  0.7454
   55MOL    H5822846   0.976   7.650   1.270  0.1458 -0.0433  1.1413
   55MOL    H5922847   0.805   0.057   1.185  0.9970 -0.4609 -0.5464
   55MOL    H6022848   0.923   7.765   1.071 -0.4786 -0.1176 -0.4850
   55MOL    H6122849   0.756   0.034   1.021  0.9798 -0.4080 -2.4331
   55MOL    H6222850   0.960   7.525   1.067  0.7828 -2.5783  1.1547
   55MOL    H6322851   0.830   7.415   1.120 -0.3669 -0.0169  0.1775
   55MOL    H6422852   0.803   7.516   0.979  1.7319 -0.8644 -1.2917
   55MOL    C6522853   0.538   7.597   1.421 -0.6159 -0.6070 -1.1153
   55MOL    C6622854   0.528   7.682   1.548 -0.7918  0.2876  0.3743
   55MOL    C6722855   0.666   7.720   1.614  0.0680 -0.7665 -0.0898
   55MOL    C6822856   0.747   7.618   1.708  0.5929 -0.2835  0.7276
   55MOL    C6922857   0.688   7.619   1.847 -0.8726 -0.1678  0.7882
   55MOL    C7022858   0.760   7.478   1.644  0.0644  0.0394 -0.1960
   55MOL    C7122859   0.886   7.689   1.720 -0.4193 -0.2659 -0.3163
   55MOL    H7222860   0.446   7.540   1.405  0.1295 -1.7956 -1.2637
   55MOL    H7322861   0.619   7.527   1.438  0.5892  0.5511 -2.0466
   55MOL    H7422862   0.479   0.009   1.519 -0.6292  0.6795  1.3016
   55MOL    H7522863   0.651   0.052   1.659 -0.7931 -1.0670  0.2789
   55MOL    H7622864   0.727   7.744   1.526 -2.8963 -0.1744 -2.0601
   55MOL    H7722865   0.610   7.546   1.868 -1.8894  0.1692 -1.6075
   55MOL    H7822866   0.762   7.590   1.921  1.6802 -2.7623 -2.5806
   55MOL    H7922867   0.652   7.717   1.876  0.0584 -0.0709  1.6331
   55MOL    H8022868   0.820   7.411   1.706  1.0104  0.9231 -0.1464
   55MOL    H8122869   0.803   7.474   1.544 -2.6773  2.5615 -1.5349
   55MOL    H8222870   0.667   7.421   1.640  0.3089 -0.3319 -0.6682
   55MOL    H8322871   0.959   7.630   1.775  1.4707  1.0024 -1.4038
   55MOL    H8422872   0.885   0.027   1.754  2.8063 -0.2326 -0.2014
   55MOL    H8522873   0.933   7.699   1.622  0.6522 -0.0212  0.2071
   55MOL    C8622874   0.436   7.612   1.650  0.4434 -0.4359 -0.2406
   55MOL    C8722875   0.279   7.628   1.625  0.8018  0.1794 -0.7426
   55MOL    C8822876   0.193   7.693   1.740 -0.4869  0.2240  0.0325
   55MOL    C8922877   0.163   0.081   1.736 -0.3569 -0.0650 -0.7882
   55MOL    C9022878   0.303   0.154   1.744 -0.0027  0.2472 -0.0112
   55MOL    C9122879   0.067   0.115   1.858 -0.4161 -0.1836  0.4063
   55MOL    C9222880   0.087   0.126   1.608 -0.7992 -0.4368  0.0994
   55MOL    H9322881   0.455   7.664   1.744  0.0668  0.2227 -0.5310
   55MOL    H9422882   0.459   7.507   1.668  0.0128 -1.4528 -5.0296
   55MOL    H9522883   0.258   7.685   1.534 -1.8053 -2.7680 -2.0737
   55MOL    H9622884   0.239   7.660   1.833  0.5722  2.9001  0.4848
   55MOL    H9722885   0.093   7.650   1.735 -0.4466  0.0885  0.4500
   55MOL    H9822886   0.359   0.118   1.831 -0.5984 -1.5819 -0.3613
   55MOL    H9922887   0.279   0.260   1.745 -0.8010  0.0931 -1.7351
   55MOL   H10022888   0.355   0.131   1.651 -0.5360 -0.7883 -0.0659
   55MOL   H10122889   0.022   0.213   1.842  0.6518  0.0044 -1.6927
   55MOL   H10222890   7.760   0.036   1.872  1.5302 -2.3262 -1.1956
   55MOL   H10322891   0.126   0.118   1.950 -2.2982  1.3794  1.5851
   55MOL   H10422892   0.053   0.229   1.608  0.3603  0.0110 -3.2605
   55MOL   H10522893   0.155   0.129   1.523  0.0451  1.0090  0.8183
   55MOL   H10622894   7.765   0.067   1.583 -1.0046 -0.2711  0.4433
   55MOL   C10722895   0.227   7.479   1.605  0.3474  0.2469  1.1604
   55MOL   C10822896   0.096   7.455   1.516 -0.0453 -0.6228 -0.2968
   55MOL   C10922897   0.124   7.498   1.364  0.2741 -0.3765 -0.6395
   55MOL   C11022898   0.004   7.516   1.264 -0.5543  0.1288 -0.1385
   55MOL   C11122899   7.754   7.390   1.175  0.3395 -1.0092 -0.0419
   55MOL   C11222900   0.050   7.625   1.167 -0.6381  0.0741  0.2854
   55MOL   C11322901   7.639   7.546   1.343 -0.0132 -0.1403  0.3293
   55MOL   H11422902   0.201   7.431   1.700  1.4095  1.0912  1.8861
   55MOL   H11522903   0.299   7.409   1.563 -2.1628 -1.1674 -0.9568
   55MOL   H11622904   0.027   7.529   1.556 -0.1171 -1.2783  0.8061
   55MOL   H11722905   0.188   7.586   1.369 -0.5344  0.1693  0.5610
   55MOL   H11822906   0.192   7.428   1.317  0.6766 -0.5336  0.1625
   55MOL   H11922907   7.721   7.304   1.234 -0.8250 -0.2958  0.3834
   55MOL   H12022908   7.683   7.399   1.094  1.2188 -1.4225 -0.8614
   55MOL   H12122909   0.077   7.357   1.121 -0.4380 -2.5937 -0.3707
   55MOL   H12222910   7.730   7.636   1.100  0.3289 -0.3587 -1.0381
   55MOL   H12322911   0.138   7.600   1.108 -0.7536  3.5917 -1.5093
   55MOL   H12422912   0.066   7.726   1.205  1.2664  0.1411 -0.6718
   55MOL   H12522913   7.568   7.591   1.273 -1.3194 -0.4864  1.4181
   55MOL   H12622914   7.659   7.623   1.417 -0.0702 -2.4364  2.7961
   55MOL   H12722915   7.605   7.462   1.402 -0.3391  0.0316  0.3848
   55MOL   C12822916   0.046   7.311   1.538  0.0445  0.5101  0.2204
   55MOL   C12922917   0.019   7.251   1.681  0.2212  0.2916 -0.5595
   55MOL   C13022918   7.672   7.347   1.742  0.0953 -0.0698 -0.2442
   55MOL   C13122919   7.671   7.363   1.895  0.8121  0.6304 -0.3943
   55MOL   C13222920   0.047   7.397   1.951 -0.1004  0.5786 -0.4298
   55MOL   C13322921   7.619   7.230   1.960 -0.1436 -0.8452  0.3620
   55MOL   C13422922   7.569   7.473   1.929  0.6074  0.2630 -0.0927
   55MOL   H13522923   0.096   7.238   1.475 -1.2922  0.0919 -0.3829
   55MOL   H13622924   7.715   7.302   1.488 -0.7052 -0.8870  1.8248
   55MOL   H13722925   0.115   7.254   1.732  0.9624  1.7692 -2.0130
   55MOL   H13822926   7.668   7.444   1.693  1.7307 -0.4668 -1.2051
   55MOL   H13922927   7.578   7.301   1.712 -0.5550 -0.0725  1.7041
   55MOL   H14022928   0.042   7.458   2.041 -1.3618  1.1844 -0.8967
   55MOL   H14122929   0.098   7.453   1.872  0.7601  1.4466  0.7191
   55MOL   H14222930   0.104   7.306   1.971  0.6171  1.5952  2.3553
   55MOL   H14322931   7.620   7.255   2.067  2.5173  2.9770 -0.4703
   55MOL   H14422932   7.692   7.152   1.938  2.9773  2.6120 -2.1857
   55MOL   H14522933   7.516   7.198   1.941  0.3165 -1.2048 -1.5726
   55MOL   H14622934   7.558   7.491   2.036  0.0253 -2.8262  0.4266
   55MOL   H14722935   7.602   7.565   1.881 -0.5932  0.2146 -1.0012
   55MOL   H14822936   7.472   7.449   1.886 -0.0806  1.9836  0.4461
   55MOL   C14922937   7.745   7.106   1.655  0.1141  0.0975 -0.1384
   55MOL   C15022938   0.097   7.005   1.635 -0.5726 -0.1018  0.9969
   55MOL   C15122939   0.185   6.988   1.759 -0.3533  0.5499 -0.3839
   55MOL   C15222940   0.338   7.026   1.749  0.5735  0.5064 -0.6847
   55MOL   C15322941   0.368   7.170   1.713  0.0152  0.1927 -0.6805
   55MOL   C15422942   0.415   6.943   1.647  0.2146 -0.2735  0.1043
   55MOL   C15522943   0.396   6.998   1.898  0.0616 -0.3890  0.7792
   55MOL   H15622944   7.670   7.101   1.577 -1.1268 -0.0581  1.0460
   55MOL   H15722945   7.684   7.081   1.742  0.7372  1.7691  0.8164
   55MOL   H15822946   0.159   7.041   1.553 -0.0086 -0.6321  1.1899
   55MOL   H15922947   0.164   6.895   1.812  2.2271  0.3104  0.3218
   55MOL   H16022948   0.151   7.050   1.842  0.6347 -0.4850  0.8211
   55MOL   H16122949   0.356   7.245   1.792 -0.8820 -0.2788 -0.3640
   55MOL   H16222950   0.473   7.176   1.681  1.1885 -0.2183  2.9184
   55MOL   H16322951   0.308   7.202   1.627 -2.1893 -1.9757  0.0278
   55MOL   H16422952   0.501   6.996   1.606  2.6093 -3.8858  0.2912
   55MOL   H16522953   0.346   6.918   1.567 -1.0811 -1.8178  1.6643
   55MOL   H16622954   0.456   6.851   1.689  0.5514  0.2895  1.0133
   55MOL   H16722955   0.504   7.011   1.911 -0.0192  0.7273  0.4183
   55MOL   H16822956   0.351   7.063   1.973 -1.1446 -1.9499  1.4306
   55MOL   H16922957   0.370   6.899   1.934 -0.6307 -1.6205 -2.8768
   55MOL   C17022958   0.044   6.871   1.595  0.3685 -0.0195 -0.6208
   55MOL   C17122959   7.754   6.848   1.451  0.0567 -1.3829 -0.1360
   55MOL   C17222960   7.647   6.739   1.446 -0.0074 -0.1262 -0.4371
   55MOL   C17322961   7.505   6.778   1.485  0.6556 -0.1687 -0.6548
   55MOL   C17422962   7.425   6.645   1.496 -0.0355 -0.2040 -0.0838
   55MOL   C17522963   7.450   6.871   1.379 -0.5211  0.0718  0.3835
   55MOL   C17622964   7.477   6.853   1.614 -0.1405 -0.3230 -0.0060
   55MOL   H17722965   7.731   6.845   1.666  0.4913  1.7319  0.1659
   55MOL   H17822966   0.120   6.794   1.610 -0.5887 -1.1196 -1.3188
   55MOL   H17922967   7.704   6.940   1.423  0.9245  0.3780  3.7914
   55MOL   H18022968   7.640   6.691   1.348  0.9337 -1.9587  0.3795
   55MOL   H18122969   7.685   6.661   1.512 -2.9523 -1.0714  0.2175
   55MOL   H18222970   7.429   6.601   1.396 -0.4846  0.8819 -0.5938
   55MOL   H18322971   7.462   6.565   1.559  0.7222 -1.0982 -1.6231
   55MOL   H18422972   7.320   6.659   1.519 -0.6887 -4.3221 -0.2826
   55MOL   H18522973   7.342   6.885   1.387 -0.5902 -0.1800 -0.0749
   55MOL   H18622974   7.497   6.969   1.377  0.3759 -0.3723 -3.0071
   55MOL   H18722975   7.471   6.826   1.282  0.8938  2.7382 -0.5984
   55MOL   H18822976   7.500   6.791   1.701  0.8240  0.4903  0.3273
   55MOL   H18922977   7.539   6.943   1.610 -0.7207  0.0558 -0.5402
   55MOL   H19022978   7.375   6.890   1.620 -0.3107 -0.3822 -2.1039
   55MOL   C19122979   0.107   6.817   1.359  0.4320 -0.6588 -0.5936
   55MOL   C19222980   0.111   6.879   1.216 -0.6653 -0.6436 -0.5435
   55MOL   C19322981   7.751   6.837   1.132  0.4210 -0.3312  0.4306
   55MOL   C19422982   7.702   6.909   0.993  0.4162  0.0449 -0.2022
   55MOL   C19522983   7.546   6.906   0.983  0.3717 -0.0651  0.0964
   55MOL   C19622984   7.764   6.844   0.870  0.3595 -0.1440  0.0917
   55MOL   C19722985   7.741   7.061   0.992 -0.2566 -0.1045  0.1996
   55MOL   H19822986   0.194   6.864   1.406 -1.2103  0.8253  1.0224
   55MOL   H19922987   0.115   6.708   1.359 -1.7601 -0.8532 -2.4664
   55MOL   H20022988   0.097   6.987   1.218 -1.4609 -0.7389 -0.7253
   55MOL   H20122989   7.670   6.853   1.203  0.6524 -0.2382  0.6718
   55MOL   H20222990   7.762   6.730   1.114  1.7320  0.4062 -3.7614
   55MOL   H20322991   7.504   6.951   0.892 -0.1515 -0.3982  0.1681
   55MOL   H20422992   7.505   6.805   0.976  0.1356  0.1033 -1.1813
   55MOL   H20522993   7.510   6.947   1.078 -0.3841 -1.9827  0.6563
   55MOL   H20622994   0.105   6.857   0.851  0.1629 -1.1773 -1.8403
   55MOL   H20722995   7.741   6.741   0.843 -1.2775  0.6087 -1.5062
   55MOL   H20822996   7.721   6.910   0.794 -3.0309 -1.8609  0.4221
   55MOL   H20922997   7.734   7.109   0.894  2.0921  0.6855  0.3775
   55MOL   H21022998   7.693   7.109   1.077 -0.8481 -1.5211  0.6905
   55MOL   H21122999   0.083   7.075   0.995 -0.2864  0.1179  0.2277
   55MOL   C21223000   0.241   6.837   1.141 -0.4883  0.3066 -0.1093
   55MOL   C21323001   0.378   6.904   1.182  0.6351  0.7790 -0.7007
   55MOL   C21423002   0.395   7.048   1.118 -0.3585  0.2919  0.1860
   55MOL   C21523003   0.433   7.169   1.215  0.3953  0.3791  0.2607
   55MOL   C21623004   0.342   7.181   1.335  0.0057  0.3046  0.4697
   55MOL   C21723005   0.571   7.151   1.275 -0.2143  0.0022  0.7042
   55MOL   C21823006   0.428   7.298   1.134 -0.8770 -0.6102  0.2542
   55MOL   H21923007   0.249   6.728   1.134 -3.5095  0.1367 -1.4551
   55MOL   H22023008   0.227   6.866   1.037  1.7381  3.2297  0.3239
   55MOL   H22123009   0.382   6.910   1.291 -1.7675  0.3609 -0.5436
   55MOL   H22223010   0.297   7.081   1.085 -1.0208  1.4116  3.1368
   55MOL   H22323011   0.461   7.057   1.032 -0.6863  2.1688  0.1150
   55MOL   H22423012   0.243   7.206   1.296 -0.0001 -1.4467 -0.7394
   55MOL   H22523013   0.371   7.263   1.400  1.4334  0.6349 -0.5640
   55MOL   H22623014   0.327   7.094   1.399 -1.0162 -1.4515 -2.0408
   55MOL   H22723015   0.585   7.055   1.323  5.5315  0.6630  0.7583
   55MOL   H22823016   0.648   7.150   1.197 -0.7767 -0.3655  0.1460
   55MOL   H22923017   0.595   7.233   1.343  0.2186 -0.3189  0.9421
   55MOL   H23023018   0.328   7.297   1.091 -0.3634 -1.6074 -0.9490
   55MOL   H23123019   0.493   7.291   1.047 -0.5654  1.1607  0.3323
   55MOL   H23223020   0.456   7.388   1.189  0.4999 -0.5454 -0.5281
   55MOL   C23323021   0.491   6.809   1.134 -0.4045 -0.4097  0.2583
   55MOL   C23423022   0.516   6.678   1.220  0.3797 -0.0810 -0.3217
   55MOL   C23523023   0.619   6.574   1.157 -0.0893 -0.1884  0.3764
   55MOL   C23623024   0.573   6.483   1.029 -0.9241  0.3653 -0.7909
   55MOL   C23723025   0.514   6.564   0.920  0.3954 -0.1387  0.5132
   55MOL   C23823026   0.703   6.406   0.976 -0.3523 -0.2129  0.1172
   55MOL   C23923027   0.475   6.375   1.080  0.1342 -0.1658  0.4498
   55MOL   H24023028   0.576   6.876   1.125 -0.6851 -0.0696  0.1144
   55MOL   H24123029   0.463   6.791   1.031 -0.4112  2.0003 -0.1896
   55MOL   H24223030   0.423   6.620   1.224  0.2634  0.1511  0.4652
   55MOL   H24323031   0.697   6.639   1.118 -1.0625  0.7602 -0.0153
   55MOL   H24423032   0.653   6.511   1.239 -2.1143  1.0799  2.2687
   55MOL   H24523033   0.411   6.588   0.946 -0.4621 -1.1345 -1.8754
   55MOL   H24623034   0.526   6.516   0.823  1.7934 -0.3909  0.8081
   55MOL   H24723035   0.583   6.648   0.916  3.7001 -2.7411  0.7171
   55MOL   H24823036   0.761   6.475   0.916 -2.8543 -1.2019 -3.5900
   55MOL   H24923037   0.769   6.379   1.058 -1.8282 -1.3080  0.9889
   55MOL   H25023038   0.679   6.330   0.902 -1.0431  0.1554 -0.0407
   55MOL   H25123039   0.456   6.313   0.993 -0.8697  1.1194 -0.2571
   55MOL   H25223040   0.505   6.318   1.168 -1.0092 -2.9599 -0.9248
   55MOL   H25323041   0.379   6.421   1.102 -0.9004 -1.5897 -1.0336
   55MOL   C25423042   0.574   6.722   1.354 -0.1019  0.0357  0.5436
   55MOL   C25523043   0.554   6.617   1.469 -0.4960  0.5875  0.3693
   55MOL   C25623044   0.404   6.609   1.507  0.4457 -0.2638 -0.2007
   55MOL   C25723045   0.355   6.468   1.561 -0.1235  0.6319  0.5772
   55MOL   C25823046   0.202   6.486   1.593  0.4645  0.3633  0.0544
   55MOL   C25923047   0.415   6.413   1.704 -0.4657 -0.3183 -0.1606
   55MOL   C26023048   0.372   6.362   1.443  0.9293  0.1074  0.4688
   55MOL   H26123049   0.521   6.813   1.382 -1.3513 -0.2032 -0.9560
   55MOL   H26223050   0.678   6.750   1.336 -0.8231  1.3624 -1.7529
   55MOL   H26323051   0.596   6.521   1.439 -0.3921  0.5129  0.7409
   55MOL   H26423052   0.372   6.677   1.586 -1.6072 -1.4497  0.0112
   55MOL   H26523053   0.344   6.645   1.424 -0.3625 -0.7948  0.1509
   55MOL   H26623054   0.188   6.556   1.675  3.6494 -0.4789  1.3901
   55MOL   H26723055   0.163   6.394   1.638  1.8332 -0.1768  0.1835
   55MOL   H26823056   0.144   6.521   1.508  2.0892  2.3461 -0.2755
   55MOL   H26923057   0.410   6.485   1.786 -0.6368 -0.9393  0.3872
   55MOL   H27023058   0.508   6.360   1.687 -2.5681 -3.8379 -1.3517
   55MOL   H27123059   0.352   6.329   1.735 -0.9926  0.7530  1.8285
   55MOL   H27223060   0.464   6.304   1.446  0.7390 -0.2303 -0.0770
   55MOL   H27323061   0.289   6.291   1.450 -1.1813  2.5821  1.2532
   55MOL   H27423062   0.363   6.407   1.345  1.1612 -1.4596 -0.2920
   55MOL   C27523063   0.637   6.653   1.598  0.2155 -0.0618  0.5653
   55MOL   C27623064   0.784   6.622   1.607 -0.3890 -1.0611  0.2386
   55MOL   C27723065   0.858   6.675   1.737  0.1388  0.3137  0.4734
   55MOL   C27823066   0.908   6.830   1.731 -0.1959  0.7887  0.6055
   55MOL   C27923067   0.964   6.868   1.875  0.1142  0.0220 -0.1207
   55MOL   C28023068   1.029   6.842   1.630 -0.3284 -0.4607 -0.1313
   55MOL   C28123069   0.806   6.939   1.697 -0.4037  0.6605 -0.2511
   55MOL   H28223070   0.632   6.758   1.627  0.8626 -0.3383  1.6896
   55MOL   H28323071   0.600   6.596   1.683  0.2817  0.3472  0.8724
   55MOL   H28423072   0.826   6.662   1.515  0.2595 -1.7884  0.2140
   55MOL   H28523073   0.940   6.605   1.752 -0.0200 -1.2909 -4.9572
   55MOL   H28623074   0.792   6.662   1.822  0.8421  2.4741  1.3654
   55MOL   H28723075   1.054   6.814   1.901 -0.0962  0.1971  0.9708
   55MOL   H28823076   0.988   6.973   1.895 -0.7721  0.4122 -1.0347
   55MOL   H28923077   0.898   6.832   1.954 -0.4992  3.5067  1.0482
   55MOL   H29023078   1.005   6.834   1.523  0.4876 -1.3307 -0.2500
   55MOL   H29123079   1.107   6.771   1.657  0.0747  0.2121  0.4729
   55MOL   H29223080   1.088   6.933   1.635 -0.2091 -0.4437 -1.4514
   55MOL   H29323081   0.720   6.939   1.764  0.0578 -0.4692  0.3520
   55MOL   H29423082   0.764   6.919   1.599 -1.8238  0.0325  0.4719
   55MOL   H29523083   0.841   7.042   1.686  1.7444  0.0079  0.3200
   55MOL   C29623084   0.809   6.465   1.597 -0.1811 -0.8641 -0.2197
   55MOL   C29723085   0.936   6.426   1.531 -0.3135 -0.3204 -0.1980
   55MOL   C29823086   0.938   6.444   1.382  0.4453 -0.4383 -0.0099
   55MOL   C29923087   1.054   6.497   1.299  0.0194  0.7406  0.2227
   55MOL   C30023088   1.174   6.411   1.314  0.2692 -0.6534  0.0009
   55MOL   C30123089   1.009   6.504   1.154 -0.3428  0.0968  0.3320
   55MOL   C30223090   1.085   6.648   1.338 -0.1802 -0.2077  0.1247
   55MOL   H30323091   0.729   6.414   1.543 -0.2481 -0.6644 -0.3096
   55MOL   H30423092   0.800   6.426   1.698 -0.2650 -0.5985 -0.1233
   55MOL   H30523093   1.007   6.487   1.587 -0.4859  0.8352 -1.2179
   55MOL   H30623094   0.848   6.500   1.354  0.7140  0.8095  1.5672
   55MOL   H30723095   0.913   6.344   1.344 -1.5340  0.4430 -1.1178
   55MOL   H30823096   1.244   6.441   1.236  0.5166  0.2661  0.5579
   55MOL   H30923097   1.223   6.423   1.410 -0.9775 -0.0088  0.5706
   55MOL   H31023098   1.151   6.305   1.311 -1.3793 -0.2845 -1.8974
   55MOL   H31123099   1.091   6.547   1.096 -1.3338  1.5160 -0.0485
   55MOL   H31223100   0.990   6.405   1.112  0.0119 -0.6227  1.8346
   55MOL   H31323101   0.919   6.565   1.142 -0.4425 -0.3888 -1.6258
   55MOL   H31423102   0.992   6.703   1.327 -1.3745 -2.4134 -1.0377
   55MOL   H31523103   1.131   6.648   1.437  1.0975 -0.6787 -0.4529
   55MOL   H31623104   1.151   6.702   1.270  1.0982 -1.4537  0.3405
   55MOL   C31723105   0.963   6.276   1.560  0.3812  0.2925  0.2338
   55MOL   C31823106   0.998   6.246   1.709  0.2662  0.0482 -0.2579
   55MOL   C31923107   0.958   6.096   1.738 -0.4319 -0.3881 -0.0898
   55MOL   C32023108   0.805   6.052   1.763 -0.5795  0.0115  0.0111
   55MOL   C32123109   0.787   5.902   1.756 -1.2600  0.5877 -0.6810
   55MOL   C32223110   0.700   6.122   1.674  0.1681  0.0065  0.1884
   55MOL   C32323111   0.774   6.089   1.912 -0.0662  0.2816  0.6149
   55MOL   H32423112   0.880   6.211   1.533  0.2466  0.7031 -0.3382
   55MOL   H32523113   1.046   6.240   1.498 -1.6049 -0.7464 -1.8794
   55MOL   H32623114   0.930   6.307   1.769  0.8009  0.1226  0.2737
   55MOL   H32723115   1.013   6.064   1.826 -0.9554  0.2670  0.4797
   55MOL   H32823116   0.987   6.042   1.648 -1.0156 -0.1356 -0.4392
   55MOL   H32923117   0.857   5.852   1.690 -0.4356 -0.1190  0.6970
   55MOL   H33023118   0.687   5.876   1.721  0.2543 -1.4299 -3.6672
   55MOL   H33123119   0.803   5.849   1.850  2.1324  1.6647 -0.5733
   55MOL   H33223120   0.597   6.101   1.703 -0.0113  1.0865  0.3455
   55MOL   H33323121   0.708   6.230   1.675 -3.1851  0.3196 -0.3740
   55MOL   H33423122   0.689   6.089   1.571 -1.1288 -3.1212  1.2686
   55MOL   H33523123   0.846   6.037   1.976  0.5189  1.3024  0.8176
   55MOL   H33623124   0.671   6.073   1.944 -0.2623  2.2117  1.0188
   55MOL   H33723125   0.791   6.197   1.913 -0.3128  0.3554 -2.0505
   55MOL   C33823126   1.148   6.268   1.745 -0.1577 -0.3293 -0.4051
   55MOL   C33923127   1.173   6.353   1.873 -0.8091  0.1649 -0.7409
   55MOL   C34023128   1.321   6.388   1.893  0.9231  0.4480  0.3123
   55MOL   C34123129   1.369   6.531   1.855  0.6941 -0.0641  1.0453
   55MOL   C34223130   1.296   6.631   1.946 -0.0944  0.7705  0.1897
   55MOL   C34323131   1.519   6.533   1.886  0.2308 -0.0647  0.6664
   55MOL   C34423132   1.343   6.565   1.705 -0.3301  0.0649 -0.0049
   55MOL   H34523133   1.192   6.329   1.667  0.3370 -0.7042 -0.4181
   55MOL   H34623134   1.205   6.176   1.732  1.2994  0.6467 -0.9786
   55MOL   H34723135   1.120   6.444   1.845  1.8706  1.7515 -0.7712
   55MOL   H34823136   1.375   6.317   1.831  0.4756  1.5340 -1.3581
   55MOL   H34923137   1.351   6.365   1.995 -0.5661 -1.1660  0.4267
   55MOL   H35023138   1.288   6.730   1.900 -1.7733 -0.3045 -1.8999
   55MOL   H35123139   1.189   6.609   1.945  0.2508 -0.8932 -0.9476
   55MOL   H35223140   1.333   6.631   2.049 -1.9091 -1.4973  0.8736
   55MOL   H35323141   1.560   6.632   1.869  1.3301 -0.9626 -2.1679
   55MOL   H35423142   1.546   6.514   1.990 -0.0686  0.2824  0.8099
   55MOL   H35523143   1.569   6.445   1.846 -0.2350 -0.8461  1.7802
   55MOL   H35623144   1.396   6.506   1.630  1.4724  0.4506  0.9248
   55MOL   H35723145   1.237   6.572   1.681 -0.6426 -2.0565  0.6339
   55MOL   H35823146   1.395   6.659   1.686 -0.6260  0.1255 -0.5000
   55MOL   C35923147   1.116   6.288   2.003  0.1515 -0.5746  0.0503
   55MOL   C36023148   1.084   6.377   2.125 -0.7147  0.4283 -0.4016
   55MOL   C36123149   1.058   6.274   2.241  0.1587 -0.0831  0.6755
   55MOL   C36223150   1.164   6.265   2.348  0.0270  0.4408  0.4560
   55MOL   C36323151   1.189   6.402   2.413 -0.4195 -0.6672 -0.1596
   55MOL   C36423152   1.301   6.206   2.287  0.8846 -0.8714 -0.1844
   55MOL   C36523153   1.126   6.171   2.462  0.2692  0.6397 -0.7733
   55MOL   H36623154   1.190   6.213   2.032 -1.5207 -2.1634  0.3444
   55MOL   H36723155   1.028   6.228   1.980  0.4065 -1.0157  0.2131
   55MOL   H36823156   1.172   6.440   2.140  0.3732 -0.7774 -1.5694
   55MOL   H36923157   0.953   6.283   2.271 -0.4080 -0.6511 -1.0583
   55MOL   H37023158   1.044   6.174   2.199 -0.4501  0.2116  0.1636
   55MOL   H37123159   1.246   6.396   2.506  0.6117  1.1957 -0.6376
   55MOL   H37223160   1.250   6.469   2.352  0.1318 -1.0117  0.0117
   55MOL   H37323161   1.095   6.450   2.444 -0.6385  0.0416 -1.8593
   55MOL   H37423162   1.284   6.103   2.256 -2.1183 -0.7334  0.8264
   55MOL   H37523163   1.372   6.212   2.369  1.6915  2.2552 -1.0401
   55MOL   H37623164   1.339   6.264   2.202  1.0122 -1.9784 -0.8923
   55MOL   H37723165   1.100   6.076   2.415 -0.2245  0.2257  0.3226
   55MOL   H37823166   1.048   6.208   2.528 -0.4557 -0.6419 -0.8890
   55MOL   H37923167   1.207   6.161   2.534  0.2431 -0.2270 -0.8612
   55MOL   C38023168   0.968   6.474   2.097 -0.3121 -0.6510 -0.3115
   55MOL   C38123169   0.932   6.579   2.205  0.1972  0.2101  0.0467
   55MOL   C38223170   0.791   6.648   2.178  0.0137  0.1223 -0.0870
   55MOL   C38323171   0.677   6.596   2.262  0.2864 -0.5359  0.8246
   55MOL   C38423172   0.658   6.439   2.246  0.4474 -0.4557 -0.0144
   55MOL   C38523173   0.541   6.647   2.212 -0.4838 -0.3731 -0.2901
   55MOL   C38623174   0.681   6.618   2.417  0.1291  0.1392  0.0009
   55MOL   H38723175   0.877   6.423   2.066 -0.5846  0.0276 -0.6359
   55MOL   H38823176   0.983   6.537   2.009 -2.8056 -1.1617 -1.1371
   55MOL   H38923177   0.917   6.514   2.292  0.0803 -0.5283 -0.5227
   55MOL   H39023178   0.795   6.755   2.196  0.1608  0.1715 -0.4125
   55MOL   H39123179   0.762   6.643   2.073 -0.3155 -0.2239  0.0180
   55MOL   H39223180   0.563   6.398   2.282 -0.8411  0.8132 -1.8163
   55MOL   H39323181   0.688   6.424   2.143  0.0993 -0.9083 -0.0492
   55MOL   H39423182   0.738   6.390   2.301 -0.0941 -1.7499 -0.3802
   55MOL   H39523183   0.547   6.644   2.103 -0.5127  1.2991 -0.3470
   55MOL   H39623184   0.528   6.749   2.248 -2.8441  0.1335 -2.4003
   55MOL   H39723185   0.458   6.584   2.245 -2.1652  1.3995 -0.9761
   55MOL   H39823186   0.708   6.721   2.438 -0.3725  0.6808 -1.8321
   55MOL   H39923187   0.756   6.565   2.475  0.7184  0.4502 -0.4770
   55MOL   H40023188   0.584   6.593   2.460 -0.7732  0.2017 -1.9309
   55MOL   C40123189   1.045   6.687   2.232  0.2773 -0.6026 -0.3599
   55MOL   C40223190   1.044   6.721   2.380  0.9663 -0.1519 -0.0545
   55MOL   C40323191   1.062   6.868   2.410 -0.7748  0.1555  0.6201
   55MOL   C40423192   1.110   6.910   2.549  0.4248  0.1912  0.2760
   55MOL   C40523193   1.026   6.848   2.655 -0.1309 -0.4999 -0.1265
   55MOL   C40623194   1.088   7.061   2.562 -0.3958 -0.0743 -0.0477
   55MOL   C40723195   1.259   6.881   2.563  0.1491  0.1308  0.5630
   55MOL   H40823196   1.142   6.649   2.202  0.5896  0.7205 -1.0755
   55MOL   H40923197   1.029   6.775   2.170 -0.4906  2.1299  3.4865
   55MOL   H41023198   0.950   6.693   2.427 -0.5471  2.7668 -1.1961
   55MOL   H41123199   0.961   6.908   2.396  0.4974  3.0588 -0.6228
   55MOL   H41223200   1.129   6.920   2.342  0.4940 -3.1578 -0.7903
   55MOL   H41323201   1.030   6.739   2.658 -2.4473 -0.6231 -0.7047
   55MOL   H41423202   0.922   6.868   2.630  0.9383  1.5750 -3.2895
   55MOL   H41523203   1.044   6.881   2.758 -0.9380 -0.0694 -0.1241
   55MOL   H41623204   1.133   7.111   2.477 -0.1655  0.6964  0.5259
   55MOL   H41723205   1.132   7.106   2.651 -2.0024 -1.8062  1.6828
   55MOL   H41823206   0.986   7.099   2.567 -0.4472 -0.4337  1.9749
   55MOL   H41923207   1.287   6.777   2.549 -0.4197  0.2031 -1.2614
   55MOL   H42023208   1.321   6.943   2.498 -1.0265  0.3956 -0.3315
   55MOL   H42123209   1.289   6.914   2.663 -0.1131  0.4012  0.5564
   55MOL   H42223210   1.125   6.667   2.429  0.8289 -0.5735 -0.2949
   56MOL     C123211   1.531   7.576   5.603 -0.4211  0.1867 -0.3169
   56MOL     C223212   1.579   7.721   5.606 -0.6480 -0.1079  0.1388
   56MOL     C323213   1.541   0.034   5.739 -0.0828  0.1840 -0.0384
   56MOL     C423214   1.631   0.025   5.870 -0.0836 -0.4778 -0.2886
   56MOL     C523215   1.778   0.041   5.838  0.2950 -0.4748 -0.3067
   56MOL     C623216   1.590   0.134   5.971 -0.0164  0.3332 -0.2472
   56MOL     C723217   1.597   7.654   5.944 -0.0645 -0.6494  0.0201
   56MOL     H823218   1.579   7.518   5.681 -1.0463 -1.2036 -0.9522
   56MOL     H923219   1.422   7.573   5.605 -0.5192  1.7304 -1.6596
   56MOL    H1023220   1.688   7.710   5.602 -0.7007 -0.3911 -0.5036
   56MOL    H1123221   1.440   0.008   5.771 -0.0240  1.2571  1.0389
   56MOL    H1223222   1.540   0.139   5.710  2.1645  0.7639  1.8202
   56MOL    H1323223   1.820   0.087   5.927  1.7502 -1.7062 -0.3341
   56MOL    H1423224   1.803   0.111   5.758  2.9096 -0.9498  0.0640
   56MOL    H1523225   1.835   7.716   5.819 -0.0162 -1.4475  3.1052
   56MOL    H1623226   1.585   0.234   5.927  0.7098  0.5359  0.1146
   56MOL    H1723227   1.487   0.130   6.006 -0.3559 -0.6959 -1.3237
   56MOL    H1823228   1.643   0.129   6.066 -1.1562  1.4658  0.4599
   56MOL    H1923229   1.489   7.645   5.961 -0.1827  0.4846 -0.0452
   56MOL    H2023230   1.619   7.655   6.051 -2.2799  0.9021  0.5183
   56MOL    H2123231   1.631   7.565   5.892 -0.1732 -0.3957 -0.4919
   56MOL    H2223232   1.553   7.527   5.508 -0.7964 -1.7507  0.5917
   56MOL    C2323233   1.522   0.030   5.482 -0.6784  0.5256  0.3210
   56MOL    C2423234   1.629   0.110   5.393 -0.3446  0.6508  0.0135
   56MOL    C2523235   1.708   0.221   5.470  0.2002 -0.7383  0.2656
   56MOL    C2623236   1.850   0.263   5.423 -0.2568  0.3801 -1.0056
   56MOL    C2723237   1.846   0.368   5.308  0.6363  0.4443  0.3144
   56MOL    C2823238   1.918   0.330   5.553  0.0544  0.4012 -0.0288
   56MOL    C2923239   1.940   0.139   5.384  0.2969 -0.3309  0.2431
   56MOL    H3023240   1.477   7.729   5.409 -1.7785  0.4742  1.0357
   56MOL    H3123241   1.440   0.095   5.513  0.1185  0.7451  2.0040
   56MOL    H3223242   1.702   0.035   5.364  0.7113  1.2566  1.0673
   56MOL    H3323243   1.717   0.186   5.573  1.3801  0.6515  0.6421
   56MOL    H3423244   1.636   0.302   5.464  0.5613 -0.5469 -1.9606
   56MOL    H3523245   1.946   0.409   5.298  1.7283 -2.3795 -0.9274
   56MOL    H3623246   1.837   0.323   5.209 -0.9046  4.0161 -1.2710
   56MOL    H3723247   1.776   0.447   5.335 -0.4688 -0.5721  0.4537
   56MOL    H3823248   1.897   0.437   5.557  1.3014  0.6762 -0.6830
   56MOL    H3923249   1.899   0.273   5.644  1.1170  2.4438  1.4983
   56MOL    H4023250   2.023   0.330   5.526  0.1294 -0.2810  0.2630
   56MOL    H4123251   1.943   0.083   5.477  1.0621  0.3496  0.6396
   56MOL    H4223252   2.035   0.178   5.349  0.4380 -1.3493 -0.5228
   56MOL    H4323253   1.908   0.078   5.299 -2.7194  2.7854 -1.0366
   56MOL    C4423254   1.556   0.175   5.276 -0.0296  0.3080 -0.6026
   56MOL    C4523255   1.539   0.091   5.150  0.4480 -0.2084  0.5776
   56MOL    C4623256   1.672   0.068   5.080  0.5341 -1.0803 -0.2989
   56MOL    C4723257   1.710   7.699   5.021  0.1961 -0.4817  0.3437
   56MOL    C4823258   1.601   7.642   4.933  0.1186 -0.0710 -0.3922
   56MOL    C4923259   1.739   7.604   5.140  0.1336 -0.2682 -0.3018
   56MOL    C5023260   1.838   7.730   4.941  0.4370  0.1066 -0.0315
   56MOL    H5123261   1.455   0.184   5.315 -0.4492  0.0501 -1.6163
   56MOL    H5223262   1.606   0.270   5.255  0.7898 -0.3183 -1.5186
   56MOL    H5323263   1.499   7.761   5.184 -1.0241 -0.2151 -1.1378
   56MOL    H5423264   1.748   0.083   5.156 -1.4465  2.4904  1.0582
   56MOL    H5523265   1.689   0.151   5.011 -2.7473  2.0677  2.5162
   56MOL    H5623266   1.509   7.631   4.992 -1.2718  1.2358 -2.2589
   56MOL    H5723267   1.629   7.542   4.901 -2.0104 -1.0924  0.8064
   56MOL    H5823268   1.571   7.715   4.857 -2.0222 -1.9268 -1.3923
   56MOL    H5923269   1.821   7.630   5.207  1.2415 -0.6912 -1.4776
   56MOL    H6023270   1.656   7.582   5.207 -1.6947 -0.2473 -2.4961
   56MOL    H6123271   1.765   7.508   5.096  1.1097 -0.0740 -0.1706
   56MOL    H6223272   1.826   0.028   4.854 -0.5053 -1.0879 -0.7998
   56MOL    H6323273   1.925   0.001   4.994  0.1736 -0.3610  0.7286
   56MOL    H6423274   1.860   7.639   4.885 -1.5375  1.2988 -2.9022
   56MOL    C6523275   1.432   0.143   5.041 -0.3151  0.2600 -0.1183
   56MOL    C6623276   1.279   0.123   5.079 -0.8266  0.1382 -1.0098
   56MOL    C6723277   1.238   7.743   5.092 -0.3362 -0.8313  0.2378
   56MOL    C6823278   1.135   7.701   5.197  0.3605 -1.0223 -0.4437
   56MOL    C6923279   1.009   0.021   5.184  0.2010 -0.9157 -0.0449
   56MOL    C7023280   1.092   7.557   5.167  0.0747 -0.3578 -0.2261
   56MOL    C7123281   1.197   7.712   5.335  0.5695  0.1571 -0.2172
   56MOL    H7223282   1.457   0.248   5.022 -1.1426  0.5692  0.4964
   56MOL    H7323283   1.450   0.104   4.941 -0.2903  1.3657 -0.5628
   56MOL    H7423284   1.262   0.174   5.174  2.7320 -1.6865  0.6956
   56MOL    H7523285   1.322   7.674   5.102  2.0747  2.1603  1.3238
   56MOL    H7623286   1.196   7.725   4.992  3.4159  0.4398 -1.6488
   56MOL    H7723287   0.949   0.022   5.093 -0.5710 -0.4372  0.4606
   56MOL    H7823288   0.934   7.738   5.246  2.3128 -2.3270  1.4448
   56MOL    H7923289   1.023   0.124   5.218 -0.9585 -0.2258 -1.6063
   56MOL    H8023290   1.074   7.544   5.061  2.7248  1.0107 -0.8755
   56MOL    H8123291   1.012   7.520   5.231 -0.3846  2.9422  1.2400
   56MOL    H8223292   1.178   7.494   5.189 -0.1649 -0.3131  0.8874
   56MOL    H8323293   1.281   7.643   5.338  0.7600  0.4209  0.8604
   56MOL    H8423294   1.128   7.697   5.418  1.5754  1.4600  0.8737
   56MOL    H8523295   1.246   0.043   5.348  1.9605 -0.5779  0.1416
   56MOL    C8623296   1.184   0.197   4.977 -0.4851 -0.2228 -0.4947
   56MOL    C8723297   1.190   0.352   4.970 -0.1262 -0.8258  0.5228
   56MOL    C8823298   1.143   0.427   5.102 -0.3982 -0.4130  0.3169
   56MOL    C8923299   1.231   0.551   5.151  0.4543  0.3118  0.3188
   56MOL    C9023300   1.152   0.621   5.265 -0.5873  0.1713  0.0981
   56MOL    C9123301   1.239   0.655   5.035 -0.3470  0.4838  0.6493
   56MOL    C9223302   1.371   0.500   5.201 -0.2051  0.2559 -0.2723
   56MOL    H9323303   1.079   0.171   4.996  0.3010 -1.2204  2.7598
   56MOL    H9423304   1.211   0.154   4.881  0.8776  0.5020 -0.4415
   56MOL    H9523305   1.287   0.383   4.932  0.4679 -2.5506  0.6049
   56MOL    H9623306   1.138   0.358   5.186  1.2188 -0.8164  0.1016
   56MOL    H9723307   1.040   0.460   5.093  0.0704  0.7308 -0.9839
   56MOL    H9823308   1.213   0.704   5.299  0.4978  0.3442 -2.2357
   56MOL    H9923309   1.130   0.559   5.353  0.4226  0.4465  0.5551
   56MOL   H10023310   1.055   0.662   5.237 -0.8955 -0.0536  0.7999
   56MOL   H10123311   1.287   0.614   4.946  0.1599  0.9841  0.6890
   56MOL   H10223312   1.135   0.679   5.008  0.2265  0.9604 -1.2215
   56MOL   H10323313   1.288   0.744   5.074 -2.9442  1.9473  0.7440
   56MOL   H10423314   1.359   0.435   5.287  0.4118  0.7160  0.1614
   56MOL   H10523315   1.425   0.447   5.123  0.0814  0.3709 -0.1519
   56MOL   H10623316   1.430   0.589   5.220  1.2081 -0.6341 -0.4040
   56MOL   C10723317   1.100   0.398   4.848 -0.0270 -0.3975 -0.2600
   56MOL   C10823318   1.144   0.337   4.710 -0.1595 -0.0973  0.6437
   56MOL   C10923319   1.031   0.259   4.641  0.1520 -0.3000 -0.6597
   56MOL   C11023320   1.060   0.143   4.538 -0.0889  0.3385  0.5179
   56MOL   C11123321   1.129   0.176   4.405 -0.1515 -0.5962  0.5452
   56MOL   C11223322   0.925   0.087   4.507 -0.5389  0.8566  0.1719
   56MOL   C11323323   1.149   0.029   4.604  0.2976 -0.1972  0.5079
   56MOL   H11423324   1.091   0.506   4.839  0.7678 -0.3247 -0.2255
   56MOL   H11523325   1.001   0.356   4.862  0.2638 -0.8388  0.5223
   56MOL   H11623326   1.227   0.269   4.723  0.0842 -0.2443 -1.5100
   56MOL   H11723327   0.976   0.208   4.721 -0.0802 -2.1407 -1.9738
   56MOL   H11823328   0.952   0.318   4.593 -1.8268 -1.0977  1.4753
   56MOL   H11923329   1.228   0.221   4.413 -0.5313  0.5510 -1.0967
   56MOL   H12023330   1.140   0.088   4.342  1.3356  1.9493 -2.9055
   56MOL   H12123331   1.079   0.253   4.347  2.1358  0.7835  0.3561
   56MOL   H12223332   0.919   0.007   4.432 -0.7875 -0.2606  1.3619
   56MOL   H12323333   0.872   0.170   4.460 -0.0717  0.4061 -1.2014
   56MOL   H12423334   0.861   0.074   4.594 -0.3750  0.7595  0.2784
   56MOL   H12523335   1.153   7.704   4.545 -0.2046  1.6890 -2.5833
   56MOL   H12623336   1.130   0.005   4.709  0.4169 -1.3365  0.2699
   56MOL   H12723337   1.255   0.055   4.604 -0.2665  2.2250  0.0929
   56MOL   C12823338   1.190   0.445   4.621 -0.4920  0.3543 -0.1168
   56MOL   C12923339   1.342   0.489   4.629  0.2610 -0.1668 -0.0323
   56MOL   C13023340   1.423   0.372   4.572 -0.1252 -0.2578  0.0365
   56MOL   C13123341   1.549   0.332   4.657 -0.4841  0.1335 -0.4141
   56MOL   C13223342   1.567   0.182   4.632  0.2283 -0.0164  0.5624
   56MOL   C13323343   1.534   0.356   4.807 -0.6146  0.6339  0.1040
   56MOL   C13423344   1.677   0.406   4.602  0.2404  0.2690 -0.0592
   56MOL   H13523345   1.130   0.535   4.633  0.6117  0.7960  2.2564
   56MOL   H13623346   1.169   0.410   4.519 -1.9237  0.5136  0.1067
   56MOL   H13723347   1.363   0.501   4.735  1.6040  1.7424 -0.4963
   56MOL   H13823348   1.365   0.281   4.555 -1.8207  0.7339  0.3047
   56MOL   H13923349   1.457   0.398   4.472  0.0114  1.2641  0.4654
   56MOL   H14023350   1.568   0.152   4.527 -0.1599 -1.7791  1.0290
   56MOL   H14123351   1.481   0.129   4.674  0.4869 -2.0492 -1.3928
   56MOL   H14223352   1.650   0.128   4.678 -0.6307 -1.0534  0.9330
   56MOL   H14323353   1.439   0.309   4.831 -0.2571 -1.5105 -2.4552
   56MOL   H14423354   1.529   0.462   4.831 -2.4342 -0.1601  3.5433
   56MOL   H14523355   1.617   0.321   4.869  0.0402  2.3497  0.2428
   56MOL   H14623356   1.758   0.382   4.671 -0.1559  0.0549  0.3394
   56MOL   H14723357   1.707   0.372   4.503  0.1931  0.5899 -0.1843
   56MOL   H14823358   1.672   0.515   4.603  0.9774  0.3062 -0.1752
   56MOL   C14923359   1.380   0.614   4.555 -0.7745 -0.1379  0.0831
   56MOL   C15023360   1.320   0.748   4.589  0.5884  0.0748 -0.3284
   56MOL   C15123361   1.427   0.857   4.598  0.3505  0.5849  0.0541
   56MOL   C15223362   1.495   0.885   4.727 -0.1577  0.0277 -0.6371
   56MOL   C15323363   1.401   0.939   4.836  0.5709  0.7958  0.5176
   56MOL   C15423364   1.601   0.994   4.712  0.3500 -0.2116 -0.0037
   56MOL   C15523365   1.571   0.758   4.779  0.1061 -0.3822  0.2672
   56MOL   H15623366   1.364   0.599   4.448 -1.3954 -0.1241  0.1700
   56MOL   H15723367   1.487   0.622   4.574 -0.5496 -3.1520  0.3625
   56MOL   H15823368   1.274   0.739   4.688  0.8429 -0.4624 -0.2562
   56MOL   H15923369   1.385   0.951   4.561 -2.2307 -0.1183  1.0361
   56MOL   H16023370   1.502   0.851   4.519  1.3714 -1.6483  1.1610
   56MOL   H16123371   1.311   0.878   4.849  0.7243  0.1322 -1.3665
   56MOL   H16223372   1.446   0.937   4.935  0.7295  0.0591  0.4389
   56MOL   H16323373   1.360   1.038   4.819 -1.3988 -0.1554 -0.4629
   56MOL   H16423374   1.556   1.079   4.661 -0.2529 -0.1672  0.5864
   56MOL   H16523375   1.673   0.964   4.636  0.0183 -0.0350 -0.3925
   56MOL   H16623376   1.649   1.032   4.802 -0.9350 -0.2404  0.6977
   56MOL   H16723377   1.619   0.779   4.874  1.3555 -0.1658 -0.3969
   56MOL   H16823378   1.495   0.681   4.793 -0.4391 -0.2327 -1.7020
   56MOL   H16923379   1.647   0.719   4.712 -0.0477 -0.4128  0.1088
   56MOL   C17023380   1.215   0.792   4.483 -0.0704  0.1415  0.3715
   56MOL   C17123381   1.101   0.881   4.527 -0.3577  0.6013 -0.4172
   56MOL   C17223382   1.014   0.790   4.630 -0.4399  0.0449  0.2002
   56MOL   C17323383   0.912   0.858   4.728 -0.8463 -0.8860  0.0604
   56MOL   C17423384   0.979   0.958   4.828 -0.4316  0.2284  0.1679
   56MOL   C17523385   0.835   0.747   4.815 -0.3456  0.3908 -0.5685
   56MOL   C17623386   0.798   0.921   4.642 -0.1546  0.5525  0.1674
   56MOL   H17723387   1.168   0.700   4.447 -1.2449  0.7726  0.2653
   56MOL   H17823388   1.260   0.834   4.393  1.5114  1.3538  1.7126
   56MOL   H17923389   1.142   0.967   4.580 -1.0046  1.1441 -0.7992
   56MOL   H18023390   0.974   0.709   4.569  1.1303  0.4147 -1.3581
   56MOL   H18123391   1.075   0.740   4.706 -1.4226 -1.6105 -0.0706
   56MOL   H18223392   1.043   0.909   4.902  0.0520 -1.8338 -1.5680
   56MOL   H18323393   1.042   1.035   4.784  1.2340 -0.5175  1.1737
   56MOL   H18423394   0.898   0.999   4.889  0.1800 -0.5049  1.4873
   56MOL   H18523395   0.898   0.705   4.894 -0.1150  1.0702 -0.3893
   56MOL   H18623396   0.743   0.776   4.866  0.0203  0.1859  0.2201
   56MOL   H18723397   0.801   0.659   4.760 -0.0751 -0.2590  0.2851
   56MOL   H18823398   0.713   0.943   4.707 -0.4888 -0.9061  0.2550
   56MOL   H18923399   0.826   1.014   4.594  1.0561 -1.1147 -2.4773
   56MOL   H19023400   0.773   0.838   4.576  0.8497  0.1291  0.3067
   56MOL   C19123401   1.021   0.933   4.399  0.4204 -0.4529  0.0942
   56MOL   C19223402   1.080   1.069   4.346 -0.0040  0.3525  0.4687
   56MOL   C19323403   1.026   1.187   4.430  0.0276 -0.6288 -0.3493
   56MOL   C19423404   1.129   1.296   4.478  0.1180 -0.5613  0.7317
   56MOL   C19523405   1.233   1.247   4.577  0.3454  0.1858  0.3036
   56MOL   C19623406   1.050   1.407   4.551 -0.4867 -0.3109 -0.6081
   56MOL   C19723407   1.195   1.363   4.348  0.1092 -0.0282 -0.3698
   56MOL   H19823408   1.044   0.863   4.318  2.0152  1.1635 -0.8910
   56MOL   H19923409   0.913   0.936   4.410  0.3370  0.8956 -0.8587
   56MOL   H20023410   1.189   1.069   4.346  0.0037  0.4313 -0.6863
   56MOL   H20123411   0.989   1.154   4.527 -0.7147 -0.6542 -0.6416
   56MOL   H20223412   0.930   1.228   4.401 -0.4381 -0.2622  1.6391
   56MOL   H20323413   1.183   1.191   4.656  1.1897 -0.0385  0.6827
   56MOL   H20423414   1.316   1.193   4.530  1.4503  1.5395  0.6583
   56MOL   H20523415   1.272   1.336   4.626 -0.7695  1.7502 -1.5937
   56MOL   H20623416   1.021   1.377   4.652 -0.7389  2.1380  0.0827
   56MOL   H20723417   1.106   1.498   4.571 -1.2985 -0.1959  1.2263
   56MOL   H20823418   0.964   1.430   4.488 -3.5364 -0.2402  3.3330
   56MOL   H20923419   1.266   1.442   4.372  2.3421 -1.5288 -1.8421
   56MOL   H21023420   1.249   1.284   4.296 -2.4056 -1.2341 -1.1986
   56MOL   H21123421   1.127   1.404   4.273  2.8806  2.6129 -1.5858
   56MOL   C21223422   1.043   1.092   4.200 -0.8967  0.5878 -0.0437
   56MOL   C21323423   1.124   1.004   4.098 -0.0398 -0.0631 -0.3916
   56MOL   C21423424   1.251   1.088   4.046  0.2372  0.0243 -0.3580
   56MOL   C21523425   1.383   1.010   4.025 -0.4395  0.1376 -0.1421
   56MOL   C21623426   1.372   0.909   3.911 -0.0637 -0.5265  0.1841
   56MOL   C21723427   1.494   1.107   3.978  0.4448  0.5498 -0.4867
   56MOL   C21823428   1.446   0.937   4.151 -0.1814 -0.7273  0.5490
   56MOL   H21923429   0.935   1.085   4.188 -0.8174 -0.0225 -0.3989
   56MOL   H22023430   1.061   1.199   4.184  1.8919  0.4722  1.9467
   56MOL   H22123431   1.169   0.917   4.144 -2.3429 -0.8545  0.4364
   56MOL   H22223432   1.272   1.173   4.110 -0.8657  0.9789 -1.2350
   56MOL   H22323433   1.217   1.144   3.959 -1.3509  0.8318  0.7673
   56MOL   H22423434   1.335   0.955   3.819  0.1240 -0.9224 -0.0958
   56MOL   H22523435   1.293   0.837   3.934 -1.4602  0.8811 -0.1055
   56MOL   H22623436   1.463   0.850   3.902  0.6461  0.5580  0.2220
   56MOL   H22723437   1.481   1.148   3.878  0.1316 -0.5487 -0.9011
   56MOL   H22823438   1.492   1.192   4.047 -0.7374 -1.4963  2.0940
   56MOL   H22923439   1.597   1.076   3.993 -0.1083 -0.1345  2.3237
   56MOL   H23023440   1.389   0.847   4.172  0.8808 -1.4909  0.2472
   56MOL   H23123441   1.443   0.996   4.242  1.5268 -0.3519  0.3843
   56MOL   H23223442   1.545   0.896   4.126 -0.3356 -0.7972  0.0315
   56MOL   C23323443   1.047   0.957   3.970 -0.5869  0.2673 -0.3828
   56MOL   C23423444   0.953   0.840   4.001 -0.5926  0.3627  0.3288
   56MOL   C23523445   0.864   0.822   3.871  0.6185 -0.3390  0.7774
   56MOL   C23623446   0.724   0.888   3.865 -0.1005 -0.1614  0.0871
   56MOL   C23723447   0.740   1.045   3.881 -0.0748  0.0731  0.1555
   56MOL   C23823448   0.659   0.868   3.722 -0.1635  0.5208  0.1319
   56MOL   C23923449   0.625   0.840   3.972 -0.7157 -0.9604  0.4149
   56MOL   H24023450   1.118   0.943   3.888  1.5181 -0.4651  1.5080
   56MOL   H24123451   0.985   1.043   3.947 -0.7675  0.1120 -0.4845
   56MOL   H24223452   0.890   0.883   4.079  1.2178 -0.2414  2.1952
   56MOL   H24323453   0.911   0.859   3.780 -1.5248 -2.0762 -1.1018
   56MOL   H24423454   0.842   0.716   3.862  0.5778 -0.2373 -0.4174
   56MOL   H24523455   0.758   1.065   3.986 -0.8257  0.7493  0.1562
   56MOL   H24623456   0.638   1.078   3.860 -0.0698  0.5270  0.8382
   56MOL   H24723457   0.807   1.097   3.812  0.8678 -1.0159  0.2180
   56MOL   H24823458   0.566   0.924   3.714 -0.6104 -0.0727  1.0168
   56MOL   H24923459   0.730   0.916   3.655 -0.2950  0.0703 -0.3331
   56MOL   H25023460   0.648   0.764   3.692  0.5436  1.0724 -2.0987
   56MOL   H25123461   0.658   0.858   4.074  2.1456 -1.6830 -0.3424
   56MOL   H25223462   0.526   0.885   3.956 -1.0642 -1.4260  1.2538
   56MOL   H25323463   0.616   0.734   3.949 -0.0048 -1.1775  1.1406
   56MOL   C25423464   1.029   0.708   4.048  0.0681 -0.1010  0.4032
   56MOL   C25523465   0.941   0.596   4.106  0.1115  0.1358  0.0462
   56MOL   C25623466   0.867   0.632   4.233 -0.8160 -0.3106  0.1814
   56MOL   C25723467   0.743   0.550   4.288 -0.3492 -0.1456  0.1297
   56MOL   C25823468   0.664   0.645   4.386  0.8648  0.1554  0.0185
   56MOL   C25923469   0.789   0.430   4.370  0.2059  0.3977 -0.1480
   56MOL   C26023470   0.650   0.510   4.172  0.6266 -0.2629  0.9851
   56MOL   H26123471   1.105   0.736   4.121  1.4294 -0.9846 -0.6560
   56MOL   H26223472   1.080   0.691   3.953 -0.4123  0.2399  0.0829
   56MOL   H26323473   0.857   0.580   4.039 -1.4627  2.6297  1.3739
   56MOL   H26423474   0.940   0.643   4.313 -0.7871  1.4659 -0.0866
   56MOL   H26523475   0.837   0.735   4.218  3.2519  0.9460  0.3779
   56MOL   H26623476   0.562   0.610   4.403 -0.1607  2.6514 -0.6135
   56MOL   H26723477   0.664   0.752   4.362 -2.0666  0.2644  0.3388
   56MOL   H26823478   0.710   0.631   4.484 -0.1337 -1.3984  0.2800
   56MOL   H26923479   0.873   0.457   4.434 -0.3827 -0.9129  1.1964
   56MOL   H27023480   0.826   0.343   4.314  0.7284 -0.9741  2.2576
   56MOL   H27123481   0.715   0.386   4.436 -2.3791  0.4766 -2.9118
   56MOL   H27223482   0.690   0.441   4.098 -1.1325 -1.1191  0.8023
   56MOL   H27323483   0.554   0.464   4.195  0.2771  0.6507  1.3479
   56MOL   H27423484   0.614   0.597   4.117 -1.5260 -0.2261  2.4054
   56MOL   C27523485   1.015   0.458   4.130 -0.3251 -0.3140 -0.0589
   56MOL   C27623486   1.107   0.410   4.008  0.2832  0.0114  0.0571
   56MOL   C27723487   1.196   0.287   4.047 -0.6163  0.6954 -0.1612
   56MOL   C27823488   1.340   0.327   4.094  0.1745  0.2791  0.2218
   56MOL   C27923489   1.346   0.422   4.222  0.3070 -0.4836 -0.4103
   56MOL   C28023490   1.413   0.189   4.117 -0.5664  0.4877 -0.6894
   56MOL   C28123491   1.416   0.398   3.969 -0.8349 -0.0812  0.3813
   56MOL   H28223492   1.065   0.470   4.226 -1.6026 -0.8817  0.6849
   56MOL   H28323493   0.943   0.378   4.148  0.5177 -1.4243 -1.5170
   56MOL   H28423494   1.174   0.486   3.967 -0.4289 -1.5736 -4.2864
   56MOL   H28523495   1.209   0.212   3.968  2.5107  0.1981  0.7600
   56MOL   H28623496   1.143   0.243   4.131 -1.0415 -1.2638 -1.4326
   56MOL   H28723497   1.451   0.441   4.245  0.4980 -2.4889  0.4992
   56MOL   H28823498   1.294   0.515   4.202  0.6998 -0.0793  0.4264
   56MOL   H28923499   1.287   0.380   4.304 -1.1734  1.5549 -0.3934
   56MOL   H29023500   1.522   0.200   4.118 -0.4482 -0.5701  0.7517
   56MOL   H29123501   1.406   0.119   4.033  1.9976 -1.3083  0.5200
   56MOL   H29223502   1.378   0.133   4.204 -0.2271  0.8940 -0.2962
   56MOL   H29323503   1.374   0.498   3.963 -0.0521  0.1610 -1.2991
   56MOL   H29423504   1.401   0.344   3.876  0.9959 -0.5699  0.3529
   56MOL   H29523505   1.524   0.409   3.986 -0.7718 -0.9608  0.5806
   56MOL   C29623506   1.012   0.356   3.900  0.0208  0.4016 -0.5038
   56MOL   C29723507   1.066   0.346   3.755 -0.2790 -0.3310 -0.5127
   56MOL   C29823508   1.041   0.475   3.684  0.5353 -0.5403 -0.1362
   56MOL   C29923509   1.155   0.533   3.583  0.4873  0.3190 -0.5533
   56MOL   C30023510   1.120   0.665   3.524  0.0282 -0.1598 -0.2523
   56MOL   C30123511   1.289   0.563   3.660 -0.3228 -0.8736 -0.9814
   56MOL   C30223512   1.178   0.437   3.464 -0.4700 -0.4831  0.2201
   56MOL   H30323513   0.931   0.430   3.897 -0.5282 -0.1284  0.6858
   56MOL   H30423514   0.965   0.267   3.941  0.2567  1.4276  2.1413
   56MOL   H30523515   1.173   0.326   3.765  0.0941  1.8068  0.0260
   56MOL   H30623516   1.018   0.555   3.754 -2.2649 -0.9482 -0.5706
   56MOL   H30723517   0.946   0.468   3.631 -0.5445 -2.2952  1.9681
   56MOL   H30823518   1.109   0.746   3.596  0.7342  1.1556 -1.5990
   56MOL   H30923519   1.195   0.704   3.456  0.3339 -0.2924  0.0052
   56MOL   H31023520   1.023   0.662   3.473 -0.8169  0.0539  1.2840
   56MOL   H31123521   1.360   0.608   3.591 -0.8928 -0.5132 -1.3437
   56MOL   H31223522   1.269   0.632   3.743 -0.5602  1.2140 -2.7227
   56MOL   H31323523   1.336   0.476   3.705  2.1082  0.3807 -1.0384
   56MOL   H31423524   1.237   0.353   3.502  1.8365  1.1548  0.3563
   56MOL   H31523525   1.082   0.415   3.417 -1.5644  1.3240  1.5526
   56MOL   H31623526   1.232   0.484   3.381 -0.8627 -2.5383 -1.2417
   56MOL   C31723527   1.006   0.226   3.676  0.1407  1.4778 -0.1438
   56MOL   C31823528   1.055   0.084   3.715  1.1694  0.5146  0.2862
   56MOL   C31923529   0.942   7.745   3.673  0.2637 -0.2187  0.0450
   56MOL   C32023530   0.823   7.716   3.770 -0.3300 -0.0002 -0.5480
   56MOL   C32123531   0.735   7.603   3.701 -0.3470  0.5121 -0.0307
   56MOL   C32223532   0.727   0.070   3.791  0.0663  0.1591  0.4389
   56MOL   C32323533   0.868   7.665   3.911 -0.1103  0.8750 -0.3444
   56MOL   H32423534   0.897   0.232   3.671 -0.1873 -1.1866  2.2857
   56MOL   H32523535   1.041   0.245   3.575 -0.8848  1.8602 -0.4335
   56MOL   H32623536   1.070   0.081   3.823 -0.4586 -1.4833  0.4975
   56MOL   H32723537   0.980   7.647   3.642 -1.1846 -1.0580  0.8667
   56MOL   H32823538   0.905   0.008   3.574  1.4186 -0.7788 -0.5684
   56MOL   H32923539   0.652   7.583   3.769  0.3314  1.6839  1.1612
   56MOL   H33023540   0.796   7.515   3.679 -1.9550 -0.3866 -0.9922
   56MOL   H33123541   0.701   7.638   3.603  1.0776  2.2183  0.0747
   56MOL   H33223542   0.640   0.043   3.851 -1.1858  0.1206 -1.3701
   56MOL   H33323543   0.771   0.160   3.834  0.5440  0.7561 -1.2420
   56MOL   H33423544   0.688   0.103   3.695 -0.0070  1.1780  0.8189
   56MOL   H33523545   0.787   7.632   3.977  2.1396 -1.8299  1.1891
   56MOL   H33623546   0.922   7.741   3.967  0.2435 -0.8260  1.7051
   56MOL   H33723547   0.934   7.578   3.917 -0.7318  0.0305 -4.5152
   56MOL   C33823548   1.179   0.052   3.632 -0.2552  0.8970  0.2277
   56MOL   C33923549   1.256   7.684   3.663 -0.9645 -0.0975  0.0851
   56MOL   C34023550   1.314   7.680   3.803  0.1675 -0.0933 -0.1861
   56MOL   C34123551   1.331   7.546   3.879 -0.3010  1.0504  0.5237
   56MOL   C34223552   1.199   7.486   3.925  0.8555 -0.4422 -0.2092
   56MOL   C34323553   1.408   7.440   3.792  0.0297 -0.3072  0.3467
   56MOL   C34423554   1.414   7.567   4.005 -0.1217  0.0245  0.5507
   56MOL   H34523555   1.258   0.124   3.657 -0.0996  1.0619 -0.7150
   56MOL   H34623556   1.166   0.055   3.524  1.8250  1.3256 -0.0371
   56MOL   H34723557   1.193   7.596   3.650 -0.6086 -0.4694  0.8732
   56MOL   H34823558   1.257   7.745   3.869  0.9996  0.1768  0.2687
   56MOL   H34923559   1.408   7.735   3.803  1.2460 -1.8841  0.8497
   56MOL   H35023560   1.151   7.451   3.834  0.8562  0.3118 -0.4962
   56MOL   H35123561   1.215   7.396   3.985  2.1976 -0.5223 -0.6772
   56MOL   H35223562   1.139   7.556   3.984 -1.2386 -1.2546 -1.3502
   56MOL   H35323563   1.352   7.411   3.702  0.9251  1.2617 -0.7384
   56MOL   H35423564   1.501   7.486   3.759 -0.0684  0.0420  0.5545
   56MOL   H35523565   1.425   7.352   3.854 -0.8368  1.5407  3.2815
   56MOL   H35623566   1.515   7.601   3.982 -0.4035 -0.1138 -0.9198
   56MOL   H35723567   1.359   7.635   4.071 -0.0204 -1.6305  2.3959
   56MOL   H35823568   1.428   7.470   4.053  0.0817  0.4568  1.3789
   56MOL   C35923569   1.367   7.666   3.556 -0.0357 -0.2069  0.0366
   56MOL   C36023570   1.336   7.582   3.431  0.0490  0.2787 -0.3183
   56MOL   C36123571   1.457   7.577   3.339 -0.0995 -0.1699 -0.6411
   56MOL   C36223572   1.540   7.444   3.331  0.0124 -0.2944  1.0903
   56MOL   C36323573   1.457   7.315   3.296  0.4480 -0.7077 -0.0930
   56MOL   C36423574   1.614   7.424   3.463 -0.2816 -0.0213  0.1286
   56MOL   C36523575   1.654   7.458   3.221  1.3245 -0.6335 -0.0111
   56MOL   H36623576   1.454   7.627   3.608 -0.9441 -0.9790  1.0058
   56MOL   H36723577   1.403   7.761   3.517  2.5502 -1.3531 -0.4728
   56MOL   H36823578   1.309   7.486   3.474  1.5742  1.7120  4.1166
   56MOL   H36923579   1.427   7.612   3.241 -1.6453 -0.6599 -0.3721
   56MOL   H37023580   1.521   7.661   3.366 -0.9858  0.6198 -0.9886
   56MOL   H37123581   1.398   7.346   3.209 -0.8661 -0.1156  1.0016
   56MOL   H37223582   1.522   7.233   3.264  0.1446 -0.5616 -1.1081
   56MOL   H37323583   1.395   7.279   3.378 -0.0108  0.8600  0.2491
   56MOL   H37423584   1.551   7.370   3.533 -0.8204  0.6191  0.1416
   56MOL   H37523585   1.636   7.519   3.511 -1.9836  0.5627 -0.2171
   56MOL   H37623586   1.708   7.369   3.469 -0.4426 -0.4537 -1.0698
   56MOL   H37723587   1.740   7.519   3.249  1.4789 -0.8802  0.0440
   56MOL   H37823588   1.617   7.486   3.122  0.1255  0.3456  0.6963
   56MOL   H37923589   1.698   7.360   3.204 -2.4974 -2.6037  1.0015
   56MOL   C38023590   1.209   7.628   3.345  0.6502  0.2268  0.0149
   56MOL   C38123591   1.166   7.536   3.231  0.5958 -0.5595 -0.1226
   56MOL   C38223592   1.060   7.612   3.147 -0.1963  0.4203  0.1923
   56MOL   C38323593   1.100   7.677   3.014  0.1555  0.3254  0.5027
   56MOL   C38423594   1.207   0.018   3.034  0.0718  0.4415 -0.0915
   56MOL   C38523595   0.967   7.745   2.959 -0.5447 -0.4389  0.2073
   56MOL   C38623596   1.146   7.577   2.914 -0.8353  0.3695  0.6917
   56MOL   H38723597   1.216   7.732   3.310 -1.0672  0.1243 -0.6598
   56MOL   H38823598   1.132   7.632   3.421  1.2401  0.0729  0.6267
   56MOL   H38923599   1.254   7.539   3.167 -0.2099 -0.4712 -1.2586
   56MOL   H39023600   0.987   7.534   3.126  1.4311 -0.7029 -1.4746
   56MOL   H39123601   1.012   7.690   3.205 -0.2648  1.3529 -1.0953
   56MOL   H39223602   1.303   7.738   3.059 -0.5913 -1.6002 -1.2198
   56MOL   H39323603   1.213   0.068   2.938  0.4445 -0.2812 -0.4486
   56MOL   H39423604   1.182   0.093   3.109  1.1706  0.6352  0.0957
   56MOL   H39523605   0.885   7.673   2.965 -1.0016  0.0602  0.0249
   56MOL   H39623606   0.985   0.015   2.857 -0.4422 -4.1128 -1.1626
   56MOL   H39723607   0.937   0.066   3.017 -0.1489 -1.1066  1.4148
   56MOL   H39823608   1.249   7.550   2.938 -0.9521 -0.7137 -0.0057
   56MOL   H39923609   1.163   7.616   2.813  4.2291 -0.8428  0.9404
   56MOL   H40023610   1.080   7.490   2.909 -2.2066  1.4928 -1.5223
   56MOL   C40123611   1.126   7.391   3.267  0.1408 -0.3820  0.5145
   56MOL   C40223612   1.114   7.286   3.154 -0.2820  0.0098  0.4031
   56MOL   C40323613   1.071   7.145   3.189  0.3113 -0.4590 -0.2264
   56MOL   C40423614   1.072   7.045   3.070 -0.2908  0.2635  0.3491
   56MOL   C40523615   1.220   7.007   3.029 -0.7835 -0.2940  0.1854
   56MOL   C40623616   0.987   7.094   2.949 -0.4511 -0.3173 -0.9254
   56MOL   C40723617   1.009   6.911   3.122  0.2444  0.6269 -0.8044
   56MOL   H40823618   1.183   7.357   3.353  4.2602  2.1580 -1.0645
   56MOL   H40923619   1.028   7.396   3.313 -0.7066 -1.7527 -1.0797
   56MOL   H41023620   1.045   7.323   3.078 -0.5628  2.3886  1.7851
   56MOL   H41123621   0.969   7.142   3.226  0.3863 -1.7388 -0.0956
   56MOL   H41223622   1.136   7.096   3.261  1.1458 -0.7860 -1.1839
   56MOL   H41323623   1.274   6.999   3.124 -0.7303  1.8439  0.3557
   56MOL   H41423624   1.264   7.081   2.963 -0.0320 -1.1331 -0.2611
   56MOL   H41523625   1.236   6.918   2.968  0.3004 -1.0510  1.5493
   56MOL   H41623626   0.896   7.136   2.991 -1.6993 -2.0041 -1.9095
   56MOL   H41723627   0.960   7.013   2.882 -2.1455  0.4975 -1.2438
   56MOL   H41823628   1.045   7.172   2.899  0.9867 -2.3380 -2.5014
   56MOL   H41923629   0.908   6.937   3.156  0.6247  1.6814 -0.4889
   56MOL   H42023630   1.000   6.836   3.044  0.5490 -0.4885  0.2070
   56MOL   H42123631   1.062   6.863   3.205  0.0578 -0.8202 -1.5074
   56MOL   H42223632   1.211   7.272   3.106  0.2420 -2.6372  2.1052
   57MOL     C123633   2.165   6.442   4.769 -0.6257  0.6556 -0.1462
   57MOL     C223634   2.241   6.504   4.649  0.6378  0.6297  0.6443
   57MOL     C323635   2.220   6.414   4.518  0.8486 -0.0132  0.3305
   57MOL     C423636   2.277   6.460   4.378  0.4735 -0.0237  0.7702
   57MOL     C523637   2.221   6.379   4.261 -0.1627  0.2995 -0.1306
   57MOL     C623638   2.246   6.602   4.354  0.4517  0.5358 -0.5705
   57MOL     C723639   2.430   6.438   4.375 -0.1879 -0.6343  0.3058
   57MOL     H823640   2.160   6.507   4.857  0.7357  0.8779 -0.2215
   57MOL     H923641   2.064   6.409   4.745  0.1564 -1.5130 -0.5661
   57MOL    H1023642   2.194   6.601   4.633  0.7116  0.6714  0.6811
   57MOL    H1123643   2.113   6.406   4.497  1.0627 -1.2456 -0.3122
   57MOL    H1223644   2.257   6.315   4.545 -0.3409 -0.5259  0.1054
   57MOL    H1323645   2.260   6.410   4.165  2.7771 -0.3420  0.8204
   57MOL    H1423646   2.113   6.394   4.259 -0.1216  0.7694  0.9171
   57MOL    H1523647   2.239   6.271   4.261 -1.8826 -0.0288 -2.6237
   57MOL    H1623648   2.291   6.633   4.259 -0.0924 -2.5988 -1.9140
   57MOL    H1723649   2.138   6.618   4.352  0.5205  1.2112  0.4580
   57MOL    H1823650   2.285   6.662   4.436 -0.7273 -1.4773  1.5198
   57MOL    H1923651   2.468   6.374   4.296  0.5816  0.2746 -0.0649
   57MOL    H2023652   2.463   6.383   4.463 -2.1123 -0.3288  1.2467
   57MOL    H2123653   2.485   6.531   4.361 -0.2255 -0.6601 -0.0095
   57MOL    H2223654   2.217   6.350   4.795 -1.3664  0.3211  0.1500
   57MOL    C2323655   2.392   6.529   4.680  0.6560  0.1170  0.7231
   57MOL    C2423656   2.421   6.629   4.805  0.2958  0.7773  0.1475
   57MOL    C2523657   2.391   6.779   4.766 -0.6234 -0.4586  0.5241
   57MOL    C2623658   2.327   6.868   4.877  0.1853  0.1852  0.0660
   57MOL    C2723659   2.187   6.819   4.924 -0.5599  0.4492 -0.0504
   57MOL    C2823660   2.419   6.870   5.002  0.2158  0.2944  0.6278
   57MOL    C2923661   2.300   7.005   4.818  0.2784 -0.3559 -0.0431
   57MOL    H3023662   2.440   6.432   4.697 -1.9159 -1.3045  0.0750
   57MOL    H3123663   2.438   6.583   4.597  0.6722 -1.1619 -0.1183
   57MOL    H3223664   2.360   6.602   4.892 -0.4909 -3.1414 -1.4749
   57MOL    H3323665   2.318   6.781   4.685  0.2113 -0.6585 -0.2345
   57MOL    H3423666   2.476   6.836   4.729 -0.9656  0.5287  1.2280
   57MOL    H3523667   2.197   6.736   4.994  1.4971  1.2443  0.6266
   57MOL    H3623668   2.134   6.898   4.977  0.8893  1.7149 -0.4802
   57MOL    H3723669   2.121   6.789   4.842 -0.7016 -0.1036  0.2565
   57MOL    H3823670   2.359   6.931   5.070 -0.2156 -0.0375  0.5449
   57MOL    H3923671   2.432   6.775   5.052 -0.3967 -0.6746 -0.9929
   57MOL    H4023672   2.516   6.918   4.983  0.1703  0.5932  1.1484
   57MOL    H4123673   2.231   7.002   4.734  1.0858 -1.8614 -0.6770
   57MOL    H4223674   2.395   7.040   4.777 -0.0314 -0.7893 -1.1558
   57MOL    H4323675   2.259   7.070   4.895  0.9255  0.6985 -0.5726
   57MOL    C4423676   2.562   6.604   4.847 -0.2133  0.0124  0.5306
   57MOL    C4523677   2.606   6.476   4.929  0.3861  0.3380 -0.3055
   57MOL    C4623678   2.564   6.498   5.078 -0.0179 -0.8233 -0.5473
   57MOL    C4723679   2.528   6.372   5.158  0.3042  0.4436 -0.7775
   57MOL    C4823680   2.655   6.288   5.177 -0.1239  0.2657 -0.0983
   57MOL    C4923681   2.419   6.288   5.089 -0.5332 -0.3807 -0.1023
   57MOL    C5023682   2.484   6.409   5.294  0.4782  0.1413  0.5429
   57MOL    H5123683   2.623   6.600   4.756 -0.2852 -1.1585  0.5216
   57MOL    H5223684   2.609   6.685   4.903  3.6467 -2.2224  0.7550
   57MOL    H5323685   2.562   6.382   4.894  2.4869 -0.6984 -0.2861
   57MOL    H5423686   2.474   6.560   5.074 -0.2827 -1.1653  0.0796
   57MOL    H5523687   2.638   6.565   5.122  0.4000 -2.6600  1.6358
   57MOL    H5623688   2.737   6.354   5.204 -1.8903  2.8920 -0.8924
   57MOL    H5723689   2.684   6.235   5.086  0.2705  1.1429 -0.4872
   57MOL    H5823690   2.649   6.216   5.259 -0.8734 -0.7191 -0.9988
   57MOL    H5923691   2.381   6.215   5.160  1.4428 -2.0099 -0.6751
   57MOL    H6023692   2.337   6.349   5.051 -1.4037 -1.2997  0.2632
   57MOL    H6123693   2.459   6.228   5.007  0.9185  1.4700 -0.7655
   57MOL    H6223694   2.389   6.460   5.278 -1.1927 -2.9440  0.1741
   57MOL    H6323695   2.465   6.325   5.360 -1.6871 -1.0037 -1.4629
   57MOL    H6423696   2.553   6.473   5.348 -0.1482 -0.6796  2.3727
   57MOL    C6523697   2.759   6.452   4.909  0.1540 -0.0462 -0.2506
   57MOL    C6623698   2.813   6.381   4.780  0.1910 -1.2775 -0.3955
   57MOL    C6723699   2.783   6.224   4.785 -0.2883  0.1699 -0.4946
   57MOL    C6823700   2.782   6.136   4.661  0.7053  0.1578  0.1651
   57MOL    C6923701   2.658   6.182   4.586 -0.0710  0.4825 -0.1662
   57MOL    C7023702   2.911   6.153   4.579 -0.0751 -0.4655 -0.7728
   57MOL    C7123703   2.774   5.993   4.706  0.3585  0.6529 -0.0563
   57MOL    H7223704   2.812   6.547   4.915  3.7090 -1.9211 -0.5057
   57MOL    H7323705   2.797   6.390   4.991  1.2409 -0.6879 -1.2111
   57MOL    H7423706   2.755   6.420   4.697  1.7676 -0.3591 -1.0827
   57MOL    H7523707   2.681   6.226   4.825  0.6368 -0.1432  1.9964
   57MOL    H7623708   2.840   6.173   4.863  1.4657  0.6754 -1.4244
   57MOL    H7723709   2.634   6.111   4.506  0.1987 -0.1909  0.3402
   57MOL    H7823710   2.570   6.173   4.649  1.0280  1.0272  1.4838
   57MOL    H7923711   2.656   6.277   4.533  0.7185  0.9860  0.7019
   57MOL    H8023712   2.911   6.248   4.526  0.3953  0.5224  0.9409
   57MOL    H8123713   2.909   6.085   4.494 -0.7941 -2.4626  0.8009
   57MOL    H8223714   2.995   6.139   4.647 -0.2161  2.4996  0.0584
   57MOL    H8323715   2.692   5.977   4.776  1.3586  0.2599  1.0380
   57MOL    H8423716   2.859   5.946   4.756  1.1203  0.1712 -1.7851
   57MOL    H8523717   2.755   5.922   4.626 -1.1396 -1.1089  1.8057
   57MOL    C8623718   2.956   6.420   4.762  0.1740 -0.2191 -0.1373
   57MOL    C8723719   2.967   6.559   4.690 -0.3987  1.2343 -0.3802
   57MOL    C8823720   2.939   6.549   4.534 -0.2086 -0.5372  0.5292
   57MOL    C8923721   2.890   6.678   4.471 -0.2039 -0.5310 -0.3849
   57MOL    C9023722   2.988   6.800   4.478  0.0710 -0.1927  0.1448
   57MOL    C9123723   2.750   6.729   4.520  0.0943  0.7361  0.4144
   57MOL    C9223724   2.890   6.648   4.320 -0.2752  0.0827  0.2447
   57MOL    H9323725   3.009   6.346   4.702  1.2046  0.9929 -0.7589
   57MOL    H9423726   2.999   6.430   4.862 -0.7054  1.6248  0.0728
   57MOL    H9523727   2.873   6.598   4.730 -0.4207  0.6765  0.1278
   57MOL    H9623728   2.871   6.466   4.512 -0.0352 -0.4329 -0.4437
   57MOL    H9723729   3.034   6.516   4.491 -0.9857 -2.6097  0.3530
   57MOL    H9823730   2.997   6.845   4.577 -0.7101 -0.2903  0.2637
   57MOL    H9923731   2.943   6.877   4.415 -1.3995 -2.3889 -1.5635
   57MOL   H10023732   3.090   6.776   4.448  0.0822  0.6430 -0.5156
   57MOL   H10123733   2.714   6.813   4.461 -1.0707 -1.4332 -2.0722
   57MOL   H10223734   2.672   6.653   4.518  0.6488  0.1809 -1.3352
   57MOL   H10323735   2.767   6.774   4.617 -0.5010 -0.0587  0.8878
   57MOL   H10423736   2.847   6.551   4.295  0.8177  0.0122 -1.4576
   57MOL   H10523737   2.834   6.725   4.268  1.5971  3.2271  2.6925
   57MOL   H10623738   2.994   6.654   4.290 -0.3130 -1.5563 -0.2706
   57MOL   C10723739   3.104   6.621   4.741  0.5858 -0.1026  0.4824
   57MOL   C10823740   3.110   6.694   4.883 -0.2383 -0.4949  0.6785
   57MOL   C10923741   3.258   6.719   4.938 -0.7855 -0.2910  0.1328
   57MOL   C11023742   3.339   6.600   5.000  0.5376 -0.2169  0.2327
   57MOL   C11123743   3.355   6.483   4.898 -0.0588  0.1164  0.0274
   57MOL   C11223744   3.279   6.555   5.137  0.5737 -0.1043 -0.2621
   57MOL   C11323745   3.481   6.650   5.032 -0.0408  0.1784 -0.5839
   57MOL   H11423746   3.144   6.695   4.671  0.9341  1.7456  2.5978
   57MOL   H11523747   3.173   6.537   4.736 -0.5540 -1.1672  2.4862
   57MOL   H11623748   3.051   6.634   4.952 -1.0430  0.6942  1.0330
   57MOL   H11723749   3.312   6.767   4.856 -1.2400 -0.8816 -0.5236
   57MOL   H11823750   3.258   6.797   5.014 -2.5787 -1.7224  1.6558
   57MOL   H11923751   3.426   6.415   4.945  0.8511 -0.9354 -2.7726
   57MOL   H12023752   3.261   6.428   4.889  0.9987 -1.5432 -1.1280
   57MOL   H12123753   3.398   6.517   4.804  0.5218 -0.1732  0.1874
   57MOL   H12223754   3.344   6.482   5.185  2.8271  1.8313 -0.2995
   57MOL   H12323755   3.188   6.495   5.128  1.8702 -1.7163 -3.6725
   57MOL   H12423756   3.259   6.635   5.208  0.6928 -0.3133  0.0083
   57MOL   H12523757   3.540   6.666   4.942  2.4379 -2.5138  0.4668
   57MOL   H12623758   3.530   6.576   5.095 -2.6377  0.7731  2.2608
   57MOL   H12723759   3.475   6.735   5.100  1.1093 -0.5505  0.4530
   57MOL   C12823760   3.027   6.824   4.858  0.2042  0.4713 -0.5683
   57MOL   C12923761   2.994   6.911   4.982 -0.2861  0.1609  0.1443
   57MOL   C13023762   2.893   7.022   4.953  0.4051  0.4114  0.2081
   57MOL   C13123763   2.918   7.145   4.856  0.5250 -0.3056  0.2431
   57MOL   C13223764   3.065   7.206   4.858  0.3842  0.1227  0.3143
   57MOL   C13323765   2.812   7.257   4.899  0.2595 -0.2946  0.3213
   57MOL   C13423766   2.896   7.117   4.706 -0.0805 -0.0957 -0.6691
   57MOL   H13523767   2.935   6.803   4.804  0.4439  0.4204 -0.9601
   57MOL   H13623768   3.086   6.879   4.785 -2.0266  1.0160 -1.9946
   57MOL   H13723769   3.090   6.954   5.010  0.6108 -0.8761 -1.3037
   57MOL   H13823770   2.791   6.985   4.942  0.7243 -0.4122 -0.0532
   57MOL   H13923771   2.880   7.072   5.049 -0.9898 -0.9357  0.7454
   57MOL   H14023772   3.073   7.309   4.822  0.6930  0.3255  0.9531
   57MOL   H14123773   3.133   7.158   4.787  0.2381  0.8670 -0.3380
   57MOL   H14223774   3.112   7.205   4.957 -0.4602 -2.7213  0.7348
   57MOL   H14323775   2.830   7.343   4.835  2.8235 -1.3048 -0.3950
   57MOL   H14423776   2.823   7.304   4.996 -2.6917  1.8546 -0.2928
   57MOL   H14523777   2.709   7.223   4.890  0.4682 -0.4757 -1.6353
   57MOL   H14623778   2.974   7.050   4.670  1.5399  1.6673 -0.4876
   57MOL   H14723779   2.802   7.075   4.670 -1.3674  1.5534  0.6518
   57MOL   H14823780   2.907   7.209   4.649  2.1506  0.9620  1.3884
   57MOL   C14923781   2.938   6.838   5.106 -0.1880 -0.1827 -0.0829
   57MOL   C15023782   2.943   6.912   5.247  0.6823 -0.8780  0.3669
   57MOL   C15123783   2.847   6.830   5.351  0.3463  0.4579 -0.2040
   57MOL   C15223784   2.707   6.885   5.378  0.0993  0.5495 -0.7834
   57MOL   C15323785   2.619   6.876   5.253 -0.1960  0.0607  0.1596
   57MOL   C15423786   2.702   7.024   5.435 -0.7014 -0.0866 -0.3476
   57MOL   C15523787   2.642   6.789   5.485  0.2990 -0.6266 -0.0676
   57MOL   H15623788   3.002   6.751   5.123 -0.4802 -0.5695 -0.9582
   57MOL   H15723789   2.836   6.804   5.089 -0.3269  0.4274 -0.4613
   57MOL   H15823790   2.899   7.011   5.244 -0.5315 -1.4148  0.0136
   57MOL   H15923791   2.899   6.817   5.445 -0.6486 -2.5541 -0.0238
   57MOL   H16023792   2.835   6.727   5.316  0.1143  0.7240 -0.9185
   57MOL   H16123793   2.597   6.772   5.229  2.0782 -0.7449  1.4644
   57MOL   H16223794   2.522   6.925   5.255 -0.5116 -0.4957 -1.0244
   57MOL   H16323795   2.678   6.905   5.166 -0.2716  0.4888  0.2484
   57MOL   H16423796   2.606   7.042   5.484 -0.9903 -2.5581  0.0858
   57MOL   H16523797   2.731   7.098   5.361  1.2167 -0.0584  0.4030
   57MOL   H16623798   2.770   7.026   5.520 -1.5022 -0.4781  0.3117
   57MOL   H16723799   2.545   6.827   5.517  0.8046  2.1964 -1.7149
   57MOL   H16823800   2.633   6.684   5.457 -0.5404 -0.3536 -0.8711
   57MOL   H16923801   2.701   6.793   5.576 -0.2050  0.4633  0.2184
   57MOL   C17023802   3.093   6.918   5.295  0.3651  0.0914 -0.4191
   57MOL   C17123803   3.142   7.050   5.359 -0.3921  0.1225  0.1136
   57MOL   C17223804   3.093   7.068   5.505 -0.0278 -0.2620 -0.2978
   57MOL   C17323805   3.166   7.002   5.629  0.7180 -0.0898  0.4130
   57MOL   C17423806   3.085   7.042   5.750  0.4132  0.2218 -0.5307
   57MOL   C17523807   3.304   7.064   5.640  0.0330  0.5514  0.3981
   57MOL   C17623808   3.171   6.848   5.628 -0.0565  0.1713  0.6135
   57MOL   H17723809   3.152   6.895   5.207 -1.5793  0.7486 -1.9282
   57MOL   H17823810   3.112   6.841   5.370 -0.6918 -0.0873 -0.3215
   57MOL   H17923811   3.249   7.033   5.368 -0.6082 -0.3191  2.1036
   57MOL   H18023812   3.090   7.174   5.532  0.2578 -0.5715  0.9850
   57MOL   H18123813   2.991   7.028   5.503 -0.4854  0.9055 -0.5711
   57MOL   H18223814   3.065   7.149   5.741  0.2504  0.2215 -0.1975
   57MOL   H18323815   2.985   6.998   5.748 -0.2009  1.6046 -0.8469
   57MOL   H18423816   3.143   7.025   5.840 -0.0376  1.5585  0.0298
   57MOL   H18523817   3.370   7.022   5.564  1.1077  0.9807  1.0791
   57MOL   H18623818   3.327   7.170   5.648  1.4066  0.1247  2.3971
   57MOL   H18723819   3.341   7.027   5.736  0.4298 -0.3468 -0.0899
   57MOL   H18823820   3.071   6.812   5.606  0.8470 -2.5310  0.8062
   57MOL   H18923821   3.241   6.811   5.553  0.1266  0.2707  0.7331
   57MOL   H19023822   3.203   6.806   5.724  0.5370 -3.0811 -0.9486
   57MOL   C19123823   3.122   7.170   5.270 -0.1907  0.2547 -0.5852
   57MOL   C19223824   3.207   7.290   5.298 -0.5833 -0.3035 -0.7115
   57MOL   C19323825   3.160   7.428   5.257 -0.0436  0.4324  0.0521
   57MOL   C19423826   3.044   7.492   5.346 -0.5322 -0.7757 -0.2630
   57MOL   C19523827   2.934   7.394   5.379  0.0558 -0.2809  0.0920
   57MOL   C19623828   2.991   7.613   5.265 -0.1348  0.0162  0.5486
   57MOL   C19723829   3.107   7.545   5.476 -0.3085 -0.0083 -0.4022
   57MOL   H19823830   3.126   7.142   5.165 -1.5614 -0.9969 -0.3148
   57MOL   H19923831   3.016   7.188   5.286 -0.1906  0.0598 -0.3515
   57MOL   H20023832   3.237   7.296   5.403  0.8084  0.6950 -1.1488
   57MOL   H20123833   3.132   7.417   5.152  1.7319 -2.8812 -0.1467
   57MOL   H20223834   3.235   7.507   5.253 -0.6989  1.1147  1.0594
   57MOL   H20323835   2.947   7.320   5.458  0.9205  0.8351  0.9956
   57MOL   H20423836   2.848   7.446   5.421  1.1347  0.8669  0.9128
   57MOL   H20523837   2.890   7.346   5.291  0.6005 -0.1947 -0.2266
   57MOL   H20623838   2.900   7.647   5.314  1.3729  2.1295  1.9782
   57MOL   H20723839   3.061   7.697   5.255  0.7267 -0.7911 -0.2301
   57MOL   H20823840   2.974   7.583   5.162  0.8290 -0.2120  0.4501
   57MOL   H20923841   3.156   7.468   5.536 -1.1780 -0.7472 -0.6289
   57MOL   H21023842   3.183   7.612   5.438 -0.1219 -0.6221 -1.1330
   57MOL   H21123843   3.034   7.601   5.535  0.5608  0.6104  0.0865
   57MOL   C21223844   3.334   7.260   5.214 -0.3176  0.0134 -0.2122
   57MOL   C21323845   3.463   7.323   5.266 -0.2834 -0.1139  0.3744
   57MOL   C21423846   3.581   7.319   5.164 -1.1205  0.2376 -0.1049
   57MOL   C21523847   3.582   7.433   5.053  0.0432 -0.5551  0.1101
   57MOL   C21623848   3.725   7.434   4.988  0.4526 -0.6465 -0.1078
   57MOL   C21723849   3.486   7.388   4.946  0.3584  0.1919  0.3072
   57MOL   C21823850   3.545   7.575   5.094  0.0066 -0.8099 -1.0293
   57MOL   H21923851   3.339   7.151   5.218 -1.6923 -0.1005 -1.1238
   57MOL   H22023852   3.306   7.287   5.112 -0.3284 -1.0537 -0.4974
   57MOL   H22123853   3.437   7.426   5.292 -1.8103 -0.0381 -1.4180
   57MOL   H22223854   3.582   7.219   5.122  0.6812  0.0349  0.3792
   57MOL   H22323855   3.675   7.317   5.219 -0.0289 -0.2058 -1.9406
   57MOL   H22423856   3.740   7.335   4.945  0.8677  0.2425 -2.0677
   57MOL   H22523857   3.803   7.448   5.063 -0.9298 -1.0593  1.4327
   57MOL   H22623858   3.741   7.510   4.911  0.0501 -0.4621 -0.0102
   57MOL   H22723859   3.478   7.281   4.931  0.0257  0.1021  1.1057
   57MOL   H22823860   3.384   7.425   4.959  0.1987 -0.4800  0.9747
   57MOL   H22923861   3.514   7.422   4.846 -0.7914  1.3435  0.3660
   57MOL   H23023862   3.619   7.614   5.164 -2.0652  1.7110 -0.1560
   57MOL   H23123863   3.449   7.592   5.141  0.4272  4.1969 -1.6773
   57MOL   H23223864   3.545   7.643   5.008 -1.1066  0.0515 -0.3539
   57MOL   C23323865   3.511   7.241   5.395 -0.1089 -0.1315  0.1309
   57MOL   C23423866   3.607   7.324   5.496 -0.0040  0.2668  0.3991
   57MOL   C23523867   3.516   7.402   5.597  0.6303  0.1554 -0.2495
   57MOL   C23623868   3.547   7.549   5.625 -0.1442  0.0065 -0.0500
   57MOL   C23723869   3.698   7.579   5.676  0.2766  0.0868 -0.3385
   57MOL   C23823870   3.521   7.622   5.486 -0.8840 -0.6202 -0.1282
   57MOL   C23923871   3.450   7.600   5.741  0.1862 -0.1766 -0.4248
   57MOL   H24023872   3.553   7.149   5.353  0.5020  0.4149 -0.4779
   57MOL   H24123873   3.425   7.198   5.446 -1.2430 -0.4256 -1.9642
   57MOL   H24223874   3.662   7.402   5.444 -0.4502 -0.7389 -1.6577
   57MOL   H24323875   3.412   7.398   5.564  0.0459 -2.3991  1.7335
   57MOL   H24423876   3.505   7.337   5.683  2.0332 -1.0563 -0.9603
   57MOL   H24523877   3.769   7.589   5.594 -0.4298 -0.6383 -1.0372
   57MOL   H24623878   3.745   7.495   5.726 -0.1232 -0.9399 -1.6620
   57MOL   H24723879   3.698   7.672   5.733  2.9744  0.2086 -0.4491
   57MOL   H24823880   3.559   7.724   5.495  0.5849 -1.1104 -0.6107
   57MOL   H24923881   3.555   7.575   5.394 -0.5436 -2.1827  0.7586
   57MOL   H25023882   3.415   7.642   5.474 -0.0293  4.1350 -0.4610
   57MOL   H25123883   3.343   7.590   5.722  0.3882  0.2481 -1.8861
   57MOL   H25223884   3.471   7.548   5.834  0.4538 -0.7536 -0.8027
   57MOL   H25323885   3.485   7.702   5.756 -0.1766 -0.1753  0.4350
   57MOL   C25423886   3.690   7.222   5.581  0.3716  0.9475  0.1914
   57MOL   C25523887   3.799   7.140   5.503 -0.4859  0.2095 -0.0584
   57MOL   C25623888   3.871   7.051   5.603  0.8293  0.0183 -0.7608
   57MOL   C25723889   3.815   6.906   5.617  0.2154  0.1873 -0.6963
   57MOL   C25823890   3.838   6.828   5.498  0.3767  0.6810 -0.0928
   57MOL   C25923891   3.664   6.909   5.658  0.7476 -0.0177 -0.3900
   57MOL   C26023892   3.906   6.834   5.725  0.8431  0.1885  0.1562
   57MOL   H26123893   3.619   7.155   5.630  0.9796 -0.4509 -0.8051
   57MOL   H26223894   3.737   7.271   5.665  2.3606 -0.2982 -0.1739
   57MOL   H26323895   3.746   7.081   5.428 -1.7746  1.3261 -0.0427
   57MOL   H26423896   3.975   7.053   5.571  0.8581  1.9511 -0.6154
   57MOL   H26523897   3.865   7.104   5.698  0.2122  0.2646 -0.9381
   57MOL   H26623898   3.816   6.885   5.408  0.8934 -1.6862 -1.7677
   57MOL   H26723899   3.767   6.745   5.501  0.6607  0.3975 -1.0382
   57MOL   H26823900   3.943   6.801   5.482  0.2570  0.6025 -0.7586
   57MOL   H26923901   3.596   6.936   5.578  0.1257 -0.9203 -0.1741
   57MOL   H27023902   3.634   6.971   5.743 -0.3461  1.6790 -1.9821
   57MOL   H27123903   3.649   6.805   5.689  1.3533 -0.2691 -0.9531
   57MOL   H27223904   4.012   6.851   5.702  1.0542 -0.9588  0.2478
   57MOL   H27323905   3.873   6.865   5.823  0.9097  0.4127  0.1079
   57MOL   H27423906   3.886   6.727   5.720  0.1887  0.2450  1.5952
   57MOL   C27523907   3.898   7.237   5.433 -0.1138 -0.0639 -0.4719
   57MOL   C27623908   3.993   7.178   5.323  1.0675 -0.0322 -0.4299
   57MOL   C27723909   3.907   7.118   5.203 -0.2563  0.5935 -0.3754
   57MOL   C27823910   3.974   7.013   5.104  0.2655 -0.3146 -0.4615
   57MOL   C27923911   4.010   6.882   5.176 -0.2378  0.3619 -0.8152
   57MOL   C28023912   3.866   6.994   4.998  0.0210 -0.1330  0.8432
   57MOL   C28123913   4.100   7.058   5.033  0.3059 -0.2827 -0.5112
   57MOL   H28223914   3.842   7.314   5.379 -0.0203 -1.3256 -2.4227
   57MOL   H28323915   3.961   7.286   5.507  0.3682 -0.3249 -0.7051
   57MOL   H28423916   4.031   7.092   5.378 -1.4426 -0.4356  0.7748
   57MOL   H28523917   3.880   7.201   5.136  1.4549  0.7464 -0.9018
   57MOL   H28623918   3.820   7.068   5.244  1.1382 -0.6524  1.0986
   57MOL   H28723919   4.076   6.908   5.259  0.2567 -0.3489 -0.9798
   57MOL   H28823920   3.917   6.836   5.212 -0.4914  0.6346 -1.1221
   57MOL   H28923921   4.057   6.812   5.107 -2.2846 -0.3254 -1.5574
   57MOL   H29023922   3.829   7.085   4.950 -1.8809 -2.0548 -1.5129
   57MOL   H29123923   3.781   6.945   5.044 -0.5985 -0.2234 -0.3607
   57MOL   H29223924   3.885   6.924   4.916  0.1022 -0.4488  1.1321
   57MOL   H29323925   4.073   7.153   4.988 -1.0882 -0.4912 -0.1411
   57MOL   H29423926   4.130   6.995   4.949  1.6137 -1.2478  0.6565
   57MOL   H29523927   4.188   7.058   5.097  0.8945 -1.1457 -1.2969
   57MOL   C29623928   4.101   7.286   5.279  0.4514 -0.5698  0.3951
   57MOL   C29723929   4.248   7.283   5.353 -0.4994 -0.1859 -0.1840
   57MOL   C29823930   4.244   7.295   5.509  0.1436 -0.0212  0.2375
   57MOL   C29923931   4.337   7.222   5.602  0.6587  0.0757 -0.4568
   57MOL   C30023932   4.339   7.273   5.748 -0.6044 -0.5376 -0.3404
   57MOL   C30123933   4.294   7.067   5.612 -0.3685 -0.8808  0.0762
   57MOL   C30223934   4.478   7.234   5.552 -0.5605  0.3420 -0.0670
   57MOL   H30323935   4.064   7.388   5.289  0.2217 -0.9269  3.9769
   57MOL   H30423936   4.119   7.290   5.172  3.4746  1.4319  0.9207
   57MOL   H30523937   4.300   7.191   5.327 -0.2728 -0.1639  0.1969
   57MOL   H30623938   4.153   7.248   5.547 -0.3112  0.7524  0.0987
   57MOL   H30723939   4.237   7.401   5.534  0.0856 -0.1619  0.8339
   57MOL   H30823940   4.421   7.227   5.803 -0.1772  0.9594  0.3059
   57MOL   H30923941   4.368   7.378   5.738  0.3624 -0.8504 -0.8063
   57MOL   H31023942   4.243   7.266   5.801 -1.2951  0.8904 -1.3477
   57MOL   H31123943   4.192   7.054   5.650 -0.2729 -0.7617  0.3770
   57MOL   H31223944   4.293   7.014   5.517  1.6843  1.0814 -1.0657
   57MOL   H31323945   4.371   7.015   5.670 -0.9961 -1.3258  0.5246
   57MOL   H31423946   4.513   7.337   5.550 -0.6301  0.3471 -1.6329
   57MOL   H31523947   4.540   7.177   5.622 -1.8824  0.1385  0.9645
   57MOL   H31623948   4.495   7.186   5.456  2.1414  0.2809  0.3879
   57MOL   C31723949   4.334   7.400   5.287  0.7773 -0.0514  0.6161
   57MOL   C31823950   4.395   7.371   5.149 -0.2650 -0.0877 -0.0069
   57MOL   C31923951   4.396   7.495   5.054 -0.0712  0.4323 -1.4187
   57MOL   C32023952   4.269   7.540   4.977 -0.2696 -0.4239 -0.4598
   57MOL   C32123953   4.154   7.600   5.065  0.4031  0.0857 -0.0128
   57MOL   C32223954   4.223   7.432   4.881 -0.2197 -0.6816 -0.0877
   57MOL   C32323955   4.311   7.650   4.882  0.2860  0.4322 -0.0428
   57MOL   H32423956   4.265   7.483   5.271  0.1133 -0.4332  1.4622
   57MOL   H32523957   4.407   7.448   5.352 -0.0114  1.9159  0.1088
   57MOL   H32623958   4.338   7.294   5.097 -1.8850  1.6802 -0.9023
   57MOL   H32723959   4.482   7.484   4.987  2.1797 -0.5048  1.4908
   57MOL   H32823960   4.425   7.577   5.120 -3.4572  1.9802 -1.7848
   57MOL   H32923961   4.112   7.525   5.131  0.3047 -0.9192 -1.2042
   57MOL   H33023962   4.069   7.626   5.003  1.0473 -1.6131 -1.6682
   57MOL   H33123963   4.191   7.689   5.116  0.6849 -0.9755  1.6779
   57MOL   H33223964   4.161   7.361   4.934 -3.1996  0.7344 -1.5768
   57MOL   H33323965   4.151   7.473   4.811  0.3355  0.1223 -0.2008
   57MOL   H33423966   4.300   7.375   4.829  1.4135 -0.2688  1.7841
   57MOL   H33523967   4.226   7.687   4.824 -0.1298 -3.2544 -1.9503
   57MOL   H33623968   4.385   7.614   4.811  1.6299  0.2975  1.3968
   57MOL   H33723969   4.354   7.729   4.943 -1.3703  0.0524  1.6676
   57MOL   C33823970   4.535   7.319   5.174  0.8347  0.1745  0.2386
   57MOL   C33923971   4.608   7.245   5.058 -0.3225 -0.6314  0.0307
   57MOL   C34023972   4.546   7.102   5.037  0.0645 -0.0821 -0.2831
   57MOL   C34123973   4.519   7.045   4.894  0.5024 -0.1915 -0.2221
   57MOL   C34223974   4.642   7.026   4.806  0.1319  0.9078 -0.4373
   57MOL   C34323975   4.458   6.908   4.917  0.1049  0.2782 -0.1744
   57MOL   C34423976   4.424   7.131   4.807  0.1617  0.2597  1.4467
   57MOL   H34523977   4.530   7.234   5.242 -1.4514 -0.1730 -0.3167
   57MOL   H34623978   4.601   7.399   5.207  2.0137 -1.0476  0.9275
   57MOL   H34723979   4.584   7.295   4.964  1.3961 -1.6838 -0.9852
   57MOL   H34823980   4.449   7.084   5.083 -0.7124  0.1643 -1.7610
   57MOL   H34923981   4.606   7.035   5.098 -0.1575 -0.5391 -0.5650
   57MOL   H35023982   4.613   6.988   4.709  1.1809  2.8052 -1.5182
   57MOL   H35123983   4.686   7.121   4.775  2.9145  0.0838  0.8645
   57MOL   H35223984   4.723   6.973   4.857 -1.7132  0.0069  1.6627
   57MOL   H35323985   4.451   6.850   4.825  0.4819  2.3955 -1.5447
   57MOL   H35423986   4.518   6.851   4.988  0.2230  2.4711  1.5182
   57MOL   H35523987   4.356   6.911   4.957 -0.7096 -0.8219 -2.0865
   57MOL   H35623988   4.464   7.230   4.784 -0.0322  0.1900  0.7898
   57MOL   H35723989   4.418   7.080   4.711  1.9759  1.7419  0.5262
   57MOL   H35823990   4.323   7.150   4.843  0.1697 -1.2795  2.3041
   57MOL   C35923991   4.756   7.230   5.084 -0.2341  0.5812  0.0612
   57MOL   C36023992   4.844   7.352   5.057  0.1159  0.2684 -1.2070
   57MOL   C36123993   4.842   7.394   4.912 -0.5130  0.6854  0.4159
   57MOL   C36223994   4.862   7.548   4.882 -0.3040  0.6873 -0.2630
   57MOL   C36323995   4.853   7.570   4.737 -0.5039 -0.3461 -0.4094
   57MOL   C36423996   4.999   7.604   4.936  0.7280 -0.6385  0.3121
   57MOL   C36523997   4.755   7.636   4.942 -1.0161 -0.0022  0.2440
   57MOL   H36623998   4.793   7.153   5.017 -0.3549  0.9701 -0.4605
   57MOL   H36723999   4.774   7.197   5.186  1.4770  3.0318  0.5864
   57MOL   H36824000   4.821   7.432   5.128 -0.4846 -0.4803 -0.5426
   57MOL   H36924001   4.910   7.338   4.848  0.4512  1.3052  0.8756
   57MOL   H37024002   4.743   7.368   4.875 -0.6273  1.1203  0.4052
   57MOL   H37124003   4.939   7.522   4.689  0.5539  1.2687 -0.1598
   57MOL   H37224004   4.766   7.520   4.694 -1.5474  1.3075 -0.2654
   57MOL   H37324005   4.849   7.673   4.701 -3.0052  0.0189  0.8469
   57MOL   H37424006   5.025   7.701   4.894 -3.3366  0.2021 -0.5294
   57MOL   H37524007   5.080   7.539   4.904  0.6495  0.1459 -1.5500
   57MOL   H37624008   5.002   7.604   5.045  2.1615 -1.6317  0.2810
   57MOL   H37724009   4.755   7.623   5.051  2.7680  0.7672  0.3919
   57MOL   H37824010   4.662   7.614   4.889  0.3745  0.8225 -2.5989
   57MOL   H37924011   4.775   7.741   4.923  1.0618 -0.4241  0.0074
   57MOL   C38024012   4.994   7.312   5.095 -0.2909 -0.6181  0.0123
   57MOL   C38124013   5.035   7.314   5.243 -0.3366 -0.4887  0.3537
   57MOL   C38224014   5.012   7.168   5.296 -0.7573 -0.7070  0.6253
   57MOL   C38324015   5.134   7.087   5.338 -0.5449  0.5011  0.1382
   57MOL   C38424016   5.197   7.151   5.457 -0.0568  0.4855 -0.2746
   57MOL   C38524017   5.242   7.071   5.228 -0.5501 -0.6217 -0.2967
   57MOL   C38624018   5.101   6.946   5.387 -0.0408 -0.4979 -0.0251
   57MOL   H38724019   5.051   7.394   5.052  0.9482  0.0737  2.9071
   57MOL   H38824020   5.029   7.219   5.050  2.1073  0.2498  0.0306
   57MOL   H38924021   5.142   7.334   5.232 -0.6428  1.4810  0.8458
   57MOL   H39024022   4.946   7.168   5.383 -0.8903  0.9774  0.5409
   57MOL   H39124023   4.966   7.105   5.218  0.9877 -1.2943  0.0453
   57MOL   H39224024   5.244   7.247   5.433 -0.0345 -0.0284 -2.3513
   57MOL   H39324025   5.120   7.160   5.534 -0.0850 -2.8239  0.1267
   57MOL   H39424026   5.270   7.086   5.505 -1.4139  0.9058  2.5014
   57MOL   H39524027   5.280   7.168   5.195  0.9808 -0.7849  0.9062
   57MOL   H39624028   5.215   7.021   5.135 -0.6022  0.2344 -0.7430
   57MOL   H39724029   5.327   7.016   5.270 -0.6268 -1.8801 -1.7218
   57MOL   H39824030   5.191   6.900   5.428  0.7496  2.1055  1.2336
   57MOL   H39924031   5.051   6.880   5.316  0.5099 -1.2874  0.3131
   57MOL   H40024032   5.036   6.955   5.473 -1.0616  1.2471 -0.9532
   57MOL   C40124033   4.978   7.439   5.320  0.2173 -0.1705  0.2058
   57MOL   C40224034   5.057   7.473   5.444 -0.7142 -0.7056  0.1688
   57MOL   C40324035   5.003   7.593   5.530  0.0198 -0.2123 -0.2354
   57MOL   C40424036   5.093   7.644   5.646  0.5587  0.3039  0.5519
   57MOL   C40524037   5.235   7.691   5.603 -0.2439 -0.6948  0.1498
   57MOL   C40624038   5.111   7.526   5.748 -0.9637  0.2782 -0.3272
   57MOL   C40724039   5.019   7.755   5.721  0.1165 -0.4365 -0.2244
   57MOL   H40824040   4.989   7.527   5.257  0.3327 -0.5517 -0.3098
   57MOL   H40924041   4.876   7.415   5.350  0.8155 -2.2017  0.6837
   57MOL   H41024042   5.044   7.390   5.514 -1.8828 -1.0129 -0.4001
   57MOL   H41124043   4.902   7.561   5.557 -0.0348 -0.2432 -0.4701
   57MOL   H41224044   4.992   7.680   5.465  1.0670 -0.3058 -0.5446
   57MOL   H41324045   5.246   0.025   5.563  1.5910 -1.2728 -0.8707
   57MOL   H41424046   5.283   7.625   5.530  1.2435 -0.6985  1.1042
   57MOL   H41524047   5.299   7.704   5.690 -0.7359 -0.6052  0.4972
   57MOL   H41624048   5.012   7.496   5.782  0.9863 -2.0533  3.6175
   57MOL   H41724049   5.168   7.562   5.834  0.0764  0.8026 -1.2114
   57MOL   H41824050   5.169   7.441   5.711  0.0137  1.0809 -0.6572
   57MOL   H41924051   4.992   0.072   5.656 -0.1498 -0.3333  0.0201
   57MOL   H42024052   4.935   7.721   5.781 -1.6134  1.0666 -1.7137
   57MOL   H42124053   5.090   0.024   5.796 -1.7403  1.3140  0.7540
   57MOL   H42224054   5.165   7.470   5.430 -0.8367 -2.0318 -0.5262
   58MOL     C124055   3.006   3.833   6.052 -0.2792 -0.2282 -0.1795
   58MOL     C224056   3.075   3.818   6.189  0.5789 -0.2254 -0.6003
   58MOL     C324057   3.219   3.797   6.168  0.0745 -0.1157 -1.0567
   58MOL     C424058   3.312   3.913   6.122 -0.1855  0.5505  0.2328
   58MOL     C524059   3.293   4.043   6.218 -0.6364  0.3354  0.1350
   58MOL     C624060   3.452   3.860   6.137  0.7516  0.0435 -0.3269
   58MOL     C724061   3.292   3.954   5.977 -0.4721  0.0232 -0.6511
   58MOL     H824062   3.021   3.750   5.984 -0.0088 -0.7486  0.5049
   58MOL     H924063   2.901   3.852   6.072  0.0672  1.4523  0.1361
   58MOL    H1024064   3.050   3.903   6.253 -0.6503 -0.8663 -0.2140
   58MOL    H1124065   3.228   3.710   6.102 -0.8332  0.3944 -1.8692
   58MOL    H1224066   3.255   3.766   6.266 -1.6573  1.2239  0.0323
   58MOL    H1324067   3.378   4.109   6.202  0.0197 -0.6609 -0.5148
   58MOL    H1424068   3.273   4.015   6.321  1.6011  0.4431  0.6246
   58MOL    H1524069   3.211   4.110   6.191 -1.2471 -0.6349 -0.4504
   58MOL    H1624070   3.488   3.793   6.060  1.3539  0.5877 -0.5224
   58MOL    H1724071   3.527   3.939   6.138  0.1193  0.6547  0.5958
   58MOL    H1824072   3.477   3.805   6.228 -0.7051  0.5994  0.4181
   58MOL    H1924073   3.210   4.025   5.968 -1.0748 -0.4683  0.8329
   58MOL    H2024074   3.271   3.866   5.916  0.7848 -0.8358  0.1182
   58MOL    H2124075   3.384   3.995   5.936 -2.1764 -0.0419 -4.7301
   58MOL    H2224076   3.038   3.925   6.004  0.7757 -0.5888 -0.1750
   58MOL    C2324077   3.019   3.704   6.270 -0.1880  0.8603  0.1708
   58MOL    C2424078   2.875   3.701   6.313  0.2669 -0.1963 -0.3142
   58MOL    C2524079   2.844   3.809   6.422  0.1088 -0.7603 -1.1590
   58MOL    C2624080   2.703   3.875   6.409 -0.1722  0.1213 -0.5639
   58MOL    C2724081   2.589   3.782   6.424  0.5927 -0.0789  0.0721
   58MOL    C2824082   2.689   3.991   6.507  0.1706 -0.1107  0.4958
   58MOL    C2924083   2.689   3.955   6.276  0.5313  0.0751 -0.1182
   58MOL    H3024084   3.039   3.616   6.209 -1.4315  0.3628  0.4567
   58MOL    H3124085   3.081   3.695   6.360  2.0664  0.6222 -1.3765
   58MOL    H3224086   2.806   3.715   6.230 -0.8243  0.1030  0.6308
   58MOL    H3324087   2.913   3.893   6.417  1.4622 -1.7033  1.3372
   58MOL    H3424088   2.859   3.770   6.522 -0.8831  0.7873 -0.3815
   58MOL    H3524089   2.599   3.711   6.506  2.0111 -0.6367 -0.5684
   58MOL    H3624090   2.495   3.837   6.424  1.5032  1.5221 -1.3974
   58MOL    H3724091   2.593   3.726   6.330 -2.1861  0.4115 -0.3711
   58MOL    H3824092   2.721   3.963   6.607  0.9048 -0.4135  0.1823
   58MOL    H3924093   2.763   4.068   6.481  0.0917  0.3868  1.7117
   58MOL    H4024094   2.587   4.027   6.506 -0.0149 -0.5956 -2.7532
   58MOL    H4124095   2.661   3.885   6.196 -0.1431  1.0384 -0.7343
   58MOL    H4224096   2.771   4.021   6.250  0.3399  0.2178 -0.3603
   58MOL    H4324097   2.605   4.024   6.270 -0.1006 -0.5549  1.1308
   58MOL    C4424098   2.857   3.549   6.365  0.5638  0.3966 -0.1556
   58MOL    C4524099   2.839   3.425   6.264  0.0710 -0.7476 -0.0925
   58MOL    C4624100   2.725   3.446   6.159 -0.1675 -0.1227 -0.1061
   58MOL    C4724101   2.733   3.383   6.020  0.4441  0.0985 -0.0134
   58MOL    C4824102   2.592   3.406   5.961  0.2824 -0.8664  0.5636
   58MOL    C4924103   2.774   3.240   6.023  0.6356 -0.5271 -0.3728
   58MOL    C5024104   2.837   3.454   5.938 -1.1863  0.0888  0.7251
   58MOL    H5124105   2.946   3.527   6.424 -0.3133 -1.3187  0.5706
   58MOL    H5224106   2.776   3.540   6.437  0.0083 -2.7722 -1.0767
   58MOL    H5324107   2.928   3.401   6.206 -1.3984 -2.0135 -1.8567
   58MOL    H5424108   2.697   3.551   6.159 -0.7700 -0.2579  2.2772
   58MOL    H5524109   2.635   3.406   6.206 -1.5472  0.1714 -2.4371
   58MOL    H5624110   2.603   3.387   5.854 -0.9434  2.7856 -0.2722
   58MOL    H5724111   2.557   3.507   5.979  0.4065 -0.4652 -1.3114
   58MOL    H5824112   2.513   3.349   6.009 -2.7756  0.7165 -2.3590
   58MOL    H5924113   2.738   3.178   6.105  0.5938  0.7324  0.5708
   58MOL    H6024114   2.741   3.186   5.933  0.8049 -2.3081  0.6129
   58MOL    H6124115   2.883   3.241   6.030  0.6753 -2.8357 -0.3108
   58MOL    H6224116   2.811   3.560   5.931  0.6813  0.4671 -1.1971
   58MOL    H6324117   2.936   3.444   5.982 -0.8090  3.2123  0.7106
   58MOL    H6424118   2.836   3.411   5.837 -0.3217  0.8525  0.3868
   58MOL    C6524119   2.816   3.296   6.349 -0.4057  0.1471  0.8286
   58MOL    C6624120   2.927   3.239   6.440 -0.8415  0.0855 -0.7985
   58MOL    C6724121   3.055   3.194   6.367 -0.3811 -0.0451  0.6617
   58MOL    C6824122   3.192   3.245   6.428  0.7341  0.1266  0.9552
   58MOL    C6924123   3.306   3.188   6.341 -0.3000 -0.0458 -0.2499
   58MOL    C7024124   3.203   3.395   6.418  0.1421  0.3164 -0.1520
   58MOL    C7124125   3.221   3.192   6.568  0.2768 -0.4384  0.1866
   58MOL    H7224126   2.723   3.309   6.405 -0.3395  0.3652  0.8903
   58MOL    H7324127   2.789   3.215   6.282  1.5065  0.2805 -0.1270
   58MOL    H7424128   2.950   3.312   6.517  0.5719 -1.3995  0.2427
   58MOL    H7524129   3.038   3.233   6.267  2.6249  0.4571  0.2943
   58MOL    H7624130   3.071   3.087   6.360  1.7031 -0.0079  3.5860
   58MOL    H7724131   3.407   3.211   6.375 -0.4903  1.4274 -0.6637
   58MOL    H7824132   3.298   3.079   6.337 -0.8112 -0.1208  1.7219
   58MOL    H7924133   3.287   3.209   6.236 -1.6621  1.0651  0.2053
   58MOL    H8024134   3.183   3.427   6.316 -0.3070  0.2875 -0.0785
   58MOL    H8124135   3.300   3.427   6.455  0.4704 -0.7235 -0.0794
   58MOL    H8224136   3.127   3.434   6.487 -2.1357 -2.0239 -1.2483
   58MOL    H8324137   3.197   3.086   6.570  1.1228 -0.7284 -2.7982
   58MOL    H8424138   3.151   3.235   6.639  2.4614 -0.0188  2.1270
   58MOL    H8524139   3.327   3.209   6.586  1.2938 -3.2148 -2.6504
   58MOL    C8624140   2.885   3.121   6.525  0.2257  0.9169 -0.6159
   58MOL    C8724141   2.752   3.129   6.610 -0.0237 -0.4952 -0.5919
   58MOL    C8824142   2.752   3.245   6.716 -0.6759 -0.1272  0.3320
   58MOL    C8924143   2.613   3.313   6.752 -0.4692 -0.1703 -0.3846
   58MOL    C9024144   2.514   3.223   6.822  0.5203  0.6997  0.6090
   58MOL    C9124145   2.551   3.376   6.634  0.6610 -0.2100  0.0439
   58MOL    C9224146   2.650   3.423   6.858  0.9561  0.0309  0.4401
   58MOL    H9324147   2.957   3.092   6.602 -0.7274 -5.9405 -2.0076
   58MOL    H9424148   2.880   3.038   6.455  0.3269 -1.7375  2.4306
   58MOL    H9524149   2.680   3.162   6.534 -0.5127  0.7994  0.4190
   58MOL    H9624150   2.812   3.330   6.682  1.7128 -1.0473  2.1100
   58MOL    H9724151   2.809   3.211   6.803 -1.4070 -0.7608  0.5616
   58MOL    H9824152   2.562   3.189   6.914  2.9684 -0.5049 -1.0359
   58MOL    H9924153   2.500   3.131   6.765  2.3572 -0.9354  2.6996
   58MOL   H10024154   2.418   3.269   6.843  0.0592 -0.1665  0.4139
   58MOL   H10124155   2.458   3.429   6.655  0.8657  0.3534 -0.4636
   58MOL   H10224156   2.609   3.449   6.578  0.7605  0.5967  1.1777
   58MOL   H10324157   2.512   3.305   6.561 -1.1214 -1.0588  1.7691
   58MOL   H10424158   2.725   3.490   6.818  0.8034 -0.5189 -0.7929
   58MOL   H10524159   2.562   3.487   6.865  1.8207  1.4430 -1.3338
   58MOL   H10624160   2.683   3.392   6.957  0.5934  1.1872  0.9294
   58MOL   C10724161   2.725   2.993   6.673 -0.0973  0.0324 -0.3662
   58MOL   C10824162   2.652   2.896   6.577 -0.4624  0.1503  0.4224
   58MOL   C10924163   2.675   2.751   6.639 -0.0238  0.2669 -0.0323
   58MOL   C11024164   2.792   2.670   6.591 -0.2243 -0.0738  0.1315
   58MOL   C11124165   2.814   2.539   6.675 -0.3880  0.0905 -0.4902
   58MOL   C11224166   2.925   2.745   6.605  0.0926 -0.1050 -0.8085
   58MOL   C11324167   2.776   2.624   6.443  0.2907 -0.5862  0.4448
   58MOL   H11424168   2.664   3.000   6.763 -0.1286 -0.3692 -0.3577
   58MOL   H11524169   2.823   2.961   6.706 -0.3440  0.7880  1.1650
   58MOL   H11624170   2.691   2.912   6.477 -3.0671 -1.0419 -0.8301
   58MOL   H11724171   2.661   2.747   6.747 -1.7702 -0.9795 -0.2840
   58MOL   H11824172   2.580   2.705   6.613  0.0786  1.1525 -2.0356
   58MOL   H11924173   2.920   2.513   6.665 -0.6218 -1.2823  0.4954
   58MOL   H12024174   2.783   2.559   6.777  0.3350  1.0024 -0.4372
   58MOL   H12124175   2.767   2.451   6.631 -0.0594 -1.0793  1.4725
   58MOL   H12224176   3.015   2.696   6.568  1.5374  0.9307  1.2270
   58MOL   H12324177   2.944   2.752   6.712 -1.0079  0.3891 -0.6368
   58MOL   H12424178   2.919   2.845   6.561  2.8880  0.2897 -0.3563
   58MOL   H12524179   2.787   2.715   6.383  0.4200  0.1525  1.5795
   58MOL   H12624180   2.674   2.587   6.432  0.3596 -0.3435 -1.2008
   58MOL   H12724181   2.852   2.557   6.403 -0.5812 -1.4976  0.3007
   58MOL   C12824182   2.498   2.930   6.567  0.0092 -0.7383 -0.3245
   58MOL   C12924183   2.427   2.854   6.446  0.2930  0.2096  0.2708
   58MOL   C13024184   2.277   2.832   6.465 -0.5874  0.1765 -0.6642
   58MOL   C13124185   2.216   2.720   6.559  1.1916  0.2057 -0.3817
   58MOL   C13224186   2.220   2.586   6.484  0.2619  0.3677  0.2994
   58MOL   C13324187   2.067   2.757   6.587 -1.0324 -0.3849  0.0716
   58MOL   C13424188   2.282   2.709   6.692  0.4816 -0.8280 -0.1915
   58MOL   H13524189   2.490   3.038   6.553 -0.0550 -0.7501 -0.3798
   58MOL   H13624190   2.450   2.910   6.663  1.4324 -0.0742  0.5278
   58MOL   H13724191   2.471   2.754   6.436 -1.5230 -0.5818  0.0559
   58MOL   H13824192   2.249   2.926   6.512 -2.8866 -0.5794 -0.4571
   58MOL   H13924193   2.232   2.834   6.366 -3.3932  0.8889  0.5698
   58MOL   H14024194   2.141   2.594   6.409  1.4721  2.5033 -0.7882
   58MOL   H14124195   2.205   2.511   6.561  1.2646  0.5434  0.6737
   58MOL   H14224196   2.315   2.560   6.437 -0.2281 -0.6355 -0.1505
   58MOL   H14324197   2.065   2.841   6.656 -0.7683 -1.4611  1.4015
   58MOL   H14424198   2.011   2.676   6.634  1.2118 -0.8468  2.0549
   58MOL   H14524199   2.005   2.796   6.506 -0.2110  0.3266 -0.2234
   58MOL   H14624200   2.224   2.646   6.760 -0.6554  0.7149  0.3027
   58MOL   H14724201   2.386   2.680   6.697  0.4589 -0.9592 -0.4559
   58MOL   H14824202   2.278   2.807   6.740  3.4319  0.5412 -2.6032
   58MOL   C14924203   2.452   2.947   6.325 -0.5065  0.7810 -0.4417
   58MOL   C15024204   2.438   2.887   6.179  0.0930  0.4114  0.0793
   58MOL   C15124205   2.429   2.991   6.061 -0.6044 -0.0348  0.1286
   58MOL   C15224206   2.321   3.100   6.055  0.3394 -0.5019  1.1885
   58MOL   C15324207   2.176   3.052   6.071 -0.5159 -1.0840  0.9134
   58MOL   C15424208   2.331   3.169   5.913 -0.0637 -0.3538 -0.0789
   58MOL   C15524209   2.346   3.197   6.172 -0.0682 -0.6255 -0.6791
   58MOL   H15624210   2.549   2.995   6.333  0.6715 -1.5922 -0.3163
   58MOL   H15724211   2.382   3.030   6.342 -0.1697  1.0377 -0.3081
   58MOL   H15824212   2.338   2.845   6.181  0.7282 -1.1037  0.6567
   58MOL   H15924213   2.425   2.933   5.969  0.0725  0.4398 -0.2040
   58MOL   H16024214   2.526   3.041   6.059 -0.3493 -0.5610 -2.6798
   58MOL   H16124215   2.100   3.129   6.075  1.2424  0.6365  1.7333
   58MOL   H16224216   2.153   2.979   5.992  1.6963  0.2861 -1.0525
   58MOL   H16324217   2.168   2.983   6.155 -1.1011 -1.5300  0.5050
   58MOL   H16424218   2.264   3.255   5.909  1.3769  0.7506 -1.2136
   58MOL   H16524219   2.288   3.104   5.837 -1.6314  0.1228  0.3802
   58MOL   H16624220   2.432   3.189   5.878  0.0693  1.3414  1.2465
   58MOL   H16724221   2.284   3.178   6.260  0.7340 -1.2673 -0.2415
   58MOL   H16824222   2.449   3.213   6.205 -0.1920  0.7922 -0.9156
   58MOL   H16924223   2.304   3.296   6.152 -3.7981 -2.0342 -0.1506
   58MOL   C17024224   2.552   2.786   6.140  0.0562  0.4018 -0.8744
   58MOL   C17124225   2.524   2.663   6.049  0.6484 -1.3686  0.3058
   58MOL   C17224226   2.445   2.555   6.128 -0.0575  0.6619 -0.0852
   58MOL   C17324227   2.316   2.498   6.058  0.0533 -1.1086  0.0594
   58MOL   C17424228   2.355   2.436   5.923  0.5818  0.5004 -0.0918
   58MOL   C17524229   2.211   2.610   6.042  0.6318 -0.3831  0.7363
   58MOL   C17624230   2.261   2.391   6.146  0.0390 -0.4604  0.0132
   58MOL   H17724231   2.596   2.746   6.232  1.5014 -1.3762 -2.3028
   58MOL   H17824232   2.637   2.835   6.092  1.2511  0.2600  1.0403
   58MOL   H17924233   2.453   2.708   5.980  2.4481  2.4566  0.8380
   58MOL   H18024234   2.504   2.465   6.137  0.9692  1.3279 -0.1408
   58MOL   H18124235   2.436   2.588   6.231  3.6998  0.5131  0.3334
   58MOL   H18224236   2.432   2.359   5.934 -1.2353 -1.1258  1.9679
   58MOL   H18324237   2.273   2.390   5.867  2.1736 -3.1610  0.4331
   58MOL   H18424238   2.401   2.521   5.873  0.9375  0.6288  0.4409
   58MOL   H18524239   2.189   2.647   6.142  1.7617 -0.3545  0.9847
   58MOL   H18624240   2.248   2.690   5.978  0.1210 -0.1480  0.7342
   58MOL   H18724241   2.120   2.583   5.989  0.8019  1.9081 -0.8037
   58MOL   H18824242   2.171   2.336   6.117  0.3474 -1.3227  0.6545
   58MOL   H18924243   2.322   2.303   6.164  1.0885  0.2580 -0.0188
   58MOL   H19024244   2.237   2.445   6.238 -0.3175  0.2879 -0.5165
   58MOL   C19124245   2.641   2.611   5.957  0.0499  0.6875 -0.3612
   58MOL   C19224246   2.715   2.700   5.851  0.0621  0.2060 -0.1111
   58MOL   C19324247   2.609   2.742   5.734 -0.1060 -0.8546  0.0832
   58MOL   C19424248   2.629   2.873   5.660  0.1276  0.3373  0.4738
   58MOL   C19524249   2.485   2.912   5.613  0.2825  0.7062 -0.3751
   58MOL   C19624250   2.730   2.859   5.548 -0.0998  0.0086 -0.6206
   58MOL   C19724251   2.674   3.000   5.744 -0.5781  0.2287 -0.0967
   58MOL   H19824252   2.713   2.567   6.027 -0.8433  0.1307  0.2088
   58MOL   H19924253   2.622   2.519   5.901 -0.6124  1.6401 -1.7357
   58MOL   H20024254   2.754   2.786   5.907  2.6288  0.4042 -2.1315
   58MOL   H20124255   2.506   2.729   5.767 -0.6313 -0.8112 -1.4951
   58MOL   H20224256   2.626   2.661   5.662 -0.5309  0.7076 -1.8181
   58MOL   H20324257   2.430   2.831   5.566 -1.3923  0.8644  1.2065
   58MOL   H20424258   2.424   2.943   5.698 -0.1253 -0.9118 -0.0651
   58MOL   H20524259   2.474   2.993   5.541 -0.9563  1.5676  0.7489
   58MOL   H20624260   2.731   2.950   5.489 -0.7647  0.7627  0.5057
   58MOL   H20724261   2.831   2.820   5.557 -0.6146 -0.6377  2.9874
   58MOL   H20824262   2.678   2.791   5.480 -1.4950 -0.6286  1.0251
   58MOL   H20924263   2.775   2.990   5.783  0.0365  0.2895 -1.6517
   58MOL   H21024264   2.678   3.088   5.680 -1.0758  0.1725 -0.2098
   58MOL   H21124265   2.600   3.020   5.821 -0.9612 -1.5533  0.0171
   58MOL   C21224266   2.850   2.640   5.815  0.4058  0.7045 -0.6344
   58MOL   C21324267   2.972   2.681   5.900 -0.1664  0.7178 -0.2516
   58MOL   C21424268   3.018   2.836   5.883 -0.2220  0.5882 -0.4449
   58MOL   C21524269   3.034   2.919   6.011  0.1813  0.0394  0.2759
   58MOL   C21624270   3.082   3.067   5.980  0.1375 -0.0655 -0.0922
   58MOL   C21724271   2.910   2.944   6.086  0.4058 -0.0334 -0.3415
   58MOL   C21824272   3.135   2.862   6.111 -0.4047 -0.4091 -0.2600
   58MOL   H21924273   2.827   2.534   5.811 -2.2601  1.1935  0.8434
   58MOL   H22024274   2.870   2.666   5.711 -1.1952  1.5802 -0.7423
   58MOL   H22124275   2.941   2.671   6.004  2.5901  2.2895  0.7624
   58MOL   H22224276   2.951   2.880   5.809  0.2042 -2.7358 -2.9081
   58MOL   H22324277   3.112   2.840   5.827 -0.3843  0.0584 -0.7566
   58MOL   H22424278   3.178   3.057   5.930  0.1771  1.1873 -0.2923
   58MOL   H22524279   3.095   3.137   6.063 -0.9803  1.3276 -1.0533
   58MOL   H22624280   3.015   3.105   5.902  1.4210  1.1626 -0.6111
   58MOL   H22724281   2.916   3.010   6.173  0.4417 -0.1336 -0.2687
   58MOL   H22824282   2.833   2.978   6.017 -0.4171 -0.0830  0.5261
   58MOL   H22924283   2.869   2.858   6.139  1.0052 -0.3407 -0.3742
   58MOL   H23024284   3.096   2.766   6.147 -0.2289 -0.2092  0.4451
   58MOL   H23124285   3.156   2.928   6.195 -1.9555  1.3473 -1.2161
   58MOL   H23224286   3.226   2.835   6.058 -1.3364 -1.4496 -1.3932
   58MOL   C23324287   3.089   2.588   5.870 -0.8980 -0.9562  0.2893
   58MOL   C23424288   3.066   2.437   5.908  0.1332 -0.3189 -0.6158
   58MOL   C23524289   3.179   2.355   5.841  0.4823 -0.3818 -0.2536
   58MOL   C23624290   3.157   2.294   5.705  0.0598  0.6161  0.2179
   58MOL   C23724291   3.290   2.230   5.661 -0.6129  0.2394  0.0336
   58MOL   C23824292   3.052   2.186   5.697  0.5494 -0.3207 -0.1693
   58MOL   C23924293   3.128   2.404   5.605 -0.2891  1.0603  0.2583
   58MOL   H24024294   3.173   2.622   5.931  1.3984 -0.2324 -3.1377
   58MOL   H24124295   3.126   2.609   5.770  0.6287 -0.0899  1.0193
   58MOL   H24224296   2.968   2.411   5.867 -0.7059  0.3782  0.9298
   58MOL   H24324297   3.268   2.416   5.847  1.5847 -1.8498 -1.3965
   58MOL   H24424298   3.194   2.267   5.904  3.2087 -0.8912 -1.5728
   58MOL   H24524299   3.328   2.153   5.728 -1.3182 -0.2622 -0.1349
   58MOL   H24624300   3.374   2.300   5.670  0.5989 -1.3628  1.5721
   58MOL   H24724301   3.284   2.200   5.557  2.4366 -0.6544  0.0652
   58MOL   H24824302   2.958   2.231   5.728 -0.2695 -1.6547 -0.6762
   58MOL   H24924303   3.044   2.145   5.596 -3.4537  1.0662 -0.5252
   58MOL   H25024304   3.084   2.113   5.772  0.2152  0.9049  1.1747
   58MOL   H25124305   3.115   2.369   5.503 -0.0895  1.2286  0.1746
   58MOL   H25224306   3.038   2.455   5.639 -0.2809  2.2893 -1.5447
   58MOL   H25324307   3.207   2.479   5.601  0.0260  0.7382  0.3953
   58MOL   C25424308   3.063   2.423   6.062 -0.0946 -0.2191  0.2202
   58MOL   C25524309   3.037   2.284   6.127  0.3886  0.5746  0.0437
   58MOL   C25624310   2.879   2.276   6.142 -0.3917  0.1189 -0.5946
   58MOL   C25724311   2.808   2.138   6.137  0.3764 -0.0298 -0.1348
   58MOL   C25824312   2.826   2.067   6.264 -0.1671 -0.0027 -0.1383
   58MOL   C25924313   2.858   2.045   6.022  0.0867 -0.2182  0.1695
   58MOL   C26024314   2.656   2.163   6.124 -0.0593  0.9812  0.0662
   58MOL   H26124315   2.993   2.491   6.109 -0.4367 -0.9625  0.7922
   58MOL   H26224316   3.163   2.440   6.102 -0.1762  0.3877  0.1731
   58MOL   H26324317   3.066   2.202   6.061 -0.9775  0.4237 -0.3785
   58MOL   H26424318   2.852   2.330   6.233 -3.3300 -2.2941  0.0681
   58MOL   H26524319   2.834   2.335   6.062  0.3087 -0.1476 -1.1893
   58MOL   H26624320   2.775   1.971   6.276  2.3222 -1.7024 -2.3676
   58MOL   H26724321   2.800   2.124   6.353  1.4225  0.3289  0.1378
   58MOL   H26824322   2.928   2.031   6.279 -0.1035 -0.2716 -1.1916
   58MOL   H26924323   2.784   1.967   6.002 -3.3760  3.4231 -1.9827
   58MOL   H27024324   2.954   1.994   6.027  0.2876  0.3354  2.2842
   58MOL   H27124325   2.849   2.099   5.927  0.3925  0.7756  0.7046
   58MOL   H27224326   2.629   2.234   6.202  0.5076  1.0842  0.1693
   58MOL   H27324327   2.626   2.195   6.024 -0.3867 -0.7606 -0.4155
   58MOL   H27424328   2.595   2.074   6.139  2.1379 -0.5486  0.2199
   58MOL   C27524329   3.105   2.280   6.273  0.1529  0.0182  0.3720
   58MOL   C27624330   3.256   2.267   6.285  0.7297 -0.6467  0.0509
   58MOL   C27724331   3.312   2.295   6.426  0.0917  0.2028  0.2834
   58MOL   C27824332   3.296   2.442   6.480 -0.7367  0.4181 -0.1164
   58MOL   C27924333   3.297   2.561   6.382  0.8354  0.6063 -0.4151
   58MOL   C28024334   3.166   2.453   6.557 -1.5073 -0.7395 -0.3514
   58MOL   C28124335   3.422   2.450   6.573 -0.7310 -0.7353  0.6827
   58MOL   H28224336   3.064   2.373   6.311  1.0730  1.1376 -1.2943
   58MOL   H28324337   3.053   2.199   6.325 -0.5416  0.0227 -0.2980
   58MOL   H28424338   3.309   2.347   6.233 -1.9412  0.9072 -0.3502
   58MOL   H28524339   3.413   2.255   6.419 -0.3669 -0.6563 -1.5159
   58MOL   H28624340   3.265   2.230   6.499  0.6371 -1.0553 -0.4757
   58MOL   H28724341   3.369   2.552   6.300  1.0425 -0.0179 -0.1718
   58MOL   H28824342   3.193   2.574   6.352  0.9208  1.1367 -0.4707
   58MOL   H28924343   3.315   2.654   6.435  0.8894  1.1764 -1.4219
   58MOL   H29024344   3.182   2.555   6.592  1.6073 -1.1464 -0.4123
   58MOL   H29124345   3.148   2.379   6.635 -0.8546  0.5824  1.0605
   58MOL   H29224346   3.075   2.455   6.497 -1.1556 -1.1581 -0.9042
   58MOL   H29324347   3.418   2.368   6.644 -0.2837 -1.4258 -0.0835
   58MOL   H29424348   3.434   2.547   6.622 -0.4911 -0.2334 -0.3553
   58MOL   H29524349   3.518   2.425   6.529  0.5186  2.3940  1.4385
   58MOL   C29624350   3.300   2.132   6.237 -0.4794  0.4216  0.4240
   58MOL   C29724351   3.450   2.118   6.180  0.7976 -0.6455  0.2432
   58MOL   C29824352   3.474   2.186   6.042  0.7090 -0.5721  0.2620
   58MOL   C29924353   3.606   2.263   6.030 -1.0675 -0.3650  0.0582
   58MOL   C30024354   3.597   2.401   6.096  0.4342 -0.8044  0.8331
   58MOL   C30124355   3.727   2.193   6.097 -0.5795  0.1478 -0.0211
   58MOL   C30224356   3.643   2.289   5.887  0.3534 -0.2899 -0.5857
   58MOL   H30324357   3.237   2.098   6.155 -0.4248  1.3260 -0.0016
   58MOL   H30424358   3.275   2.061   6.315  0.4486 -1.1813 -0.7064
   58MOL   H30524359   3.515   2.163   6.255  1.7464 -0.9596 -0.3810
   58MOL   H30624360   3.391   2.257   6.033  2.8130  1.7954 -1.3906
   58MOL   H30724361   3.452   2.117   5.961  0.8284  0.2355 -0.4661
   58MOL   H30824362   3.524   2.462   6.043  0.1986 -1.1369  0.7741
   58MOL   H30924363   3.552   2.394   6.196  1.0290  0.9346  1.2384
   58MOL   H31024364   3.691   2.454   6.105  0.2519 -0.8932  4.1086
   58MOL   H31124365   3.737   2.101   6.039  0.4584 -0.9481  1.8599
   58MOL   H31224366   3.812   2.261   6.093  0.4759 -1.1313  0.1494
   58MOL   H31324367   3.709   2.168   6.202  3.6625  1.1462  1.0419
   58MOL   H31424368   3.558   2.320   5.826 -0.6995 -0.1146  0.9366
   58MOL   H31524369   3.727   2.358   5.889 -0.4972  0.7330  1.4397
   58MOL   H31624370   3.693   2.204   5.842 -0.4796 -1.4172  0.6118
   58MOL   C31724371   3.489   1.972   6.168 -0.3713  0.2187  0.1910
   58MOL   C31824372   3.485   1.886   6.305  0.6076 -0.3521  0.5276
   58MOL   C31924373   3.490   1.732   6.286 -0.0777  0.9469  0.3537
   58MOL   C32024374   3.361   1.649   6.249  0.1361  0.4668  0.2093
   58MOL   C32124375   3.272   1.647   6.373 -0.5007 -0.3631 -0.7406
   58MOL   C32224376   3.404   1.504   6.219 -0.0601 -0.4845 -0.2750
   58MOL   C32324377   3.281   1.705   6.133  0.5563 -0.2993 -0.5124
   58MOL   H32424378   3.427   1.920   6.094 -2.1687  0.7697  1.3083
   58MOL   H32524379   3.588   1.970   6.122  0.1477 -0.0045  1.3077
   58MOL   H32624380   3.391   1.902   6.358  0.8734  1.6268  0.4262
   58MOL   H32724381   3.539   1.694   6.376 -0.3302 -0.8250 -0.2261
   58MOL   H32824382   3.564   1.699   6.213 -1.1899  0.9292 -0.7875
   58MOL   H32924383   3.172   1.617   6.341  0.2805 -2.3313 -1.3992
   58MOL   H33024384   3.277   1.742   6.426  0.1046 -1.8810  2.0219
   58MOL   H33124385   3.317   1.581   6.448  1.2977  1.7259  0.0969
   58MOL   H33224386   3.463   1.476   6.306 -0.9799 -0.6626  0.3018
   58MOL   H33324387   3.329   1.425   6.213 -0.9979  0.4607 -1.1856
   58MOL   H33424388   3.457   1.492   6.124  0.0523  0.6299 -0.3606
   58MOL   H33524389   3.242   1.803   6.160  2.0626 -0.2533  1.6149
   58MOL   H33624390   3.200   1.643   6.096 -1.1553  0.6984  1.4635
   58MOL   H33724391   3.340   1.714   6.042  0.1736 -0.9420 -0.8264
   58MOL   C33824392   3.589   1.938   6.403 -0.0498  0.6164  0.8117
   58MOL   C33924393   3.573   1.901   6.553  0.2650 -0.3127 -0.3562
   58MOL   C34024394   3.472   2.009   6.615 -0.5079  0.0696  0.0136
   58MOL   C34124395   3.375   1.971   6.729 -0.7447 -0.4306 -0.5904
   58MOL   C34224396   3.447   1.876   6.827  0.1512 -0.5206  0.0824
   58MOL   C34324397   3.343   2.097   6.810 -0.3159  0.3047 -1.1090
   58MOL   C34424398   3.254   1.903   6.675  0.3432  0.4572 -0.8289
   58MOL   H34524399   3.588   2.047   6.399 -1.2755  0.5287 -1.9014
   58MOL   H34624400   3.684   1.904   6.360 -0.7707 -1.3838  0.7237
   58MOL   H34724401   3.526   1.803   6.559  0.2492 -0.1807  3.0487
   58MOL   H34824402   3.408   2.049   6.536 -3.5844  0.9209  2.8381
   58MOL   H34924403   3.535   2.090   6.653  0.1130 -1.2388  1.8243
   58MOL   H35024404   3.384   1.844   6.910  0.0299 -2.0515 -0.5894
   58MOL   H35124405   3.469   1.780   6.781  0.2244  0.1018 -1.1913
   58MOL   H35224406   3.534   1.917   6.878 -0.6093  0.2796  0.7509
   58MOL   H35324407   3.294   2.171   6.748 -2.0161  1.7770  1.8574
   58MOL   H35424408   3.262   2.065   6.877 -0.1237  0.7799 -0.6410
   58MOL   H35524409   3.426   2.138   6.867 -0.3888 -1.5606  0.4109
   58MOL   H35624410   3.208   1.963   6.597 -0.1895  1.5844  0.3326
   58MOL   H35724411   3.290   1.804   6.647 -0.6461 -1.6393  4.7835
   58MOL   H35824412   3.174   1.884   6.746  1.2687  1.7373  0.5729
   58MOL   C35924413   3.710   1.897   6.628 -0.0199  0.2654  0.9742
   58MOL   C36024414   3.794   1.776   6.601 -0.2232 -0.1641  0.3314
   58MOL   C36124415   3.751   1.655   6.690  0.2007 -0.1593 -0.1152
   58MOL   C36224416   3.783   1.508   6.655  0.3748  0.3023  0.0757
   58MOL   C36324417   3.735   1.420   6.772  0.1949 -0.2727  0.0563
   58MOL   C36424418   3.941   1.494   6.663  0.3875  0.3526 -0.6950
   58MOL   C36524419   3.727   1.465   6.519 -0.6558 -0.0512 -0.1619
   58MOL   H36624420   3.704   1.908   6.736  2.6351 -1.7235  1.3767
   58MOL   H36724421   3.762   1.988   6.599 -0.1330  0.0630  0.1281
   58MOL   H36824422   3.791   1.753   6.495 -1.7591  2.9542 -0.3581
   58MOL   H36924423   3.790   1.674   6.790  0.3609  0.6577 -0.3278
   58MOL   H37024424   3.647   1.656   6.722 -0.6996  0.1795 -2.8805
   58MOL   H37124425   3.627   1.422   6.789  0.3599 -0.4291  1.1417
   58MOL   H37224426   3.768   1.319   6.750 -1.7708 -0.9369  0.0519
   58MOL   H37324427   3.786   1.452   6.863 -0.2155 -0.3571  0.3165
   58MOL   H37424428   3.945   1.386   6.656  1.4228  0.3192  0.4098
   58MOL   H37524429   3.982   1.517   6.761  2.3626 -1.2766 -1.1289
   58MOL   H37624430   4.003   1.534   6.582  1.6019  0.1123  0.1090
   58MOL   H37724431   3.732   1.543   6.442  0.9017  0.8803  0.8435
   58MOL   H37824432   3.625   1.427   6.526 -0.3262 -1.3528 -1.8601
   58MOL   H37924433   3.769   1.372   6.479 -0.5199 -1.2889  2.7494
   58MOL   C38024434   3.936   1.812   6.646  0.7336  0.4198  1.0305
   58MOL   C38124435   4.014   1.889   6.537  0.1840 -0.4222  0.2492
   58MOL   C38224436   4.073   1.788   6.440 -0.2609 -0.2245  0.2618
   58MOL   C38324437   4.116   1.831   6.289 -0.3768 -0.5080 -0.7270
   58MOL   C38424438   4.242   1.922   6.288  0.0738 -0.1487 -0.1378
   58MOL   C38524439   3.997   1.898   6.213 -0.7050 -0.3899  0.5130
   58MOL   C38624440   4.154   1.700   6.215 -0.2580 -0.2873 -0.0739
   58MOL   H38724441   3.989   1.724   6.682 -1.4252 -1.2342  0.3036
   58MOL   H38824442   3.940   1.869   6.739  0.3305  0.1852  1.1959
   58MOL   H38924443   3.942   1.948   6.479  1.7428 -0.7271 -2.0246
   58MOL   H39024444   4.149   1.727   6.489 -1.4520 -2.4066 -0.5086
   58MOL   H39124445   3.999   1.711   6.417  1.3484 -1.6548 -0.1891
   58MOL   H39224446   4.211   2.027   6.292 -1.4673 -0.6456  1.8779
   58MOL   H39324447   4.301   1.890   6.374 -0.9616 -1.5128  0.0799
   58MOL   H39424448   4.287   1.910   6.190  2.1989 -0.1016  0.7849
   58MOL   H39524449   4.005   1.917   6.106 -0.2551  1.2094  0.8298
   58MOL   H39624450   3.959   1.991   6.255 -1.7962  0.3599 -1.9940
   58MOL   H39724451   3.918   1.824   6.230 -1.1278 -0.2408 -0.6875
   58MOL   H39824452   4.066   1.640   6.189  0.1222 -0.9762  0.2015
   58MOL   H39924453   4.221   1.643   6.278  1.0378  0.5779 -0.6560
   58MOL   H40024454   4.196   1.722   6.117  1.2170  2.4515  1.1540
   58MOL   C40124455   4.107   1.999   6.588  0.0010 -0.0134 -0.0429
   58MOL   C40224456   4.034   2.130   6.625  0.0246  0.6257  0.3742
   58MOL   C40324457   3.964   2.208   6.509  0.0368  0.2000  0.4744
   58MOL   C40424458   3.864   2.317   6.546  0.3771  0.2710 -0.4759
   58MOL   C40524459   3.920   2.431   6.637 -0.8675 -0.6476  0.3616
   58MOL   C40624460   3.747   2.257   6.623 -0.4488  0.2594 -0.0964
   58MOL   C40724461   3.822   2.381   6.408  0.4879 -0.0683 -0.0037
   58MOL   H40824462   4.170   1.955   6.665 -1.3003 -0.8730  0.5384
   58MOL   H40924463   4.184   2.016   6.513  0.0855 -0.8657 -0.1504
   58MOL   H41024464   3.945   2.096   6.678 -0.7181 -0.1686 -1.3260
   58MOL   H41124465   3.928   2.141   6.431  0.3301 -1.5334  1.7970
   58MOL   H41224466   4.034   2.269   6.453 -1.4706  0.9844 -0.6055
   58MOL   H41324467   4.000   2.484   6.584 -1.9227 -0.4907 -1.1001
   58MOL   H41424468   3.962   2.387   6.727 -1.1984 -1.7875 -0.0325
   58MOL   H41524469   3.848   2.502   6.678 -1.7841 -1.0994 -0.4633
   58MOL   H41624470   3.775   2.201   6.712 -0.2799 -1.5919 -1.2837
   58MOL   H41724471   3.677   2.195   6.566 -0.7482  0.2388  0.2897
   58MOL   H41824472   3.692   2.335   6.675  0.1709 -1.2156  2.8713
   58MOL   H41924473   3.756   2.464   6.434 -0.2880 -0.6671 -0.0472
   58MOL   H42024474   3.912   2.409   6.354  1.5600 -0.5767  1.4962
   58MOL   H42124475   3.755   2.317   6.351  0.1188 -0.5527  0.9527
   58MOL   H42224476   4.104   2.193   6.679  0.2601  1.4963 -0.9122
   59MOL     C124477   7.192   2.973   6.060 -0.0621 -0.3905 -0.0073
   59MOL     C224478   7.039   2.973   6.060 -0.0917 -0.3685  0.3520
   59MOL     C324479   6.992   2.837   6.003 -0.3738  0.0769 -0.4866
   59MOL     C424480   6.966   2.725   6.108  0.4741  0.3446  0.0514
   59MOL     C524481   6.856   2.770   6.212 -0.3151  0.6887 -0.0703
   59MOL     C624482   6.925   2.597   6.047  0.3362  0.2553  0.6490
   59MOL     C724483   7.099   2.695   6.188  0.0228  0.2924  0.3429
   59MOL     H824484   7.227   2.910   6.141 -2.1834  1.7312  2.6877
   59MOL     H924485   7.243   2.944   5.969 -0.3966 -0.7866 -0.0709
   59MOL    H1024486   7.011   2.976   6.166 -0.5256  2.8666  0.1860
   59MOL    H1124487   7.040   2.793   5.916 -0.7979 -2.8915  0.7146
   59MOL    H1224488   6.890   2.851   5.967  0.3666 -0.4197 -2.8451
   59MOL    H1324489   6.838   2.689   6.281 -0.4221  0.3416 -0.5026
   59MOL    H1424490   6.761   2.792   6.163 -0.6578 -1.1035 -0.2306
   59MOL    H1524491   6.890   2.851   6.277 -2.3065  1.9246 -0.5217
   59MOL    H1624492   6.981   2.556   5.963 -1.8276 -1.7100  0.0988
   59MOL    H1724493   6.905   2.511   6.111 -1.4689 -0.8382 -1.3166
   59MOL    H1824494   6.828   2.616   6.000  0.2342 -2.3291 -0.2931
   59MOL    H1924495   7.186   2.690   6.122 -0.7264 -2.7587 -0.4924
   59MOL    H2024496   7.107   2.596   6.234  1.6604  0.5839  0.7486
   59MOL    H2124497   7.109   2.770   6.267 -1.7724  1.5284 -0.5685
   59MOL    H2224498   7.226   3.074   6.084  2.9478 -1.4216  0.1552
   59MOL    C2324499   6.970   3.092   5.987  0.0903  1.3908 -0.4429
   59MOL    C2424500   6.978   3.236   6.045 -0.2463  0.5256  0.1630
   59MOL    C2524501   6.881   3.240   6.171 -0.2399 -0.1469 -0.8872
   59MOL    C2624502   6.916   3.320   6.293 -0.4437  0.2440 -0.9992
   59MOL    C2724503   6.792   3.322   6.382  0.7090  0.1917 -0.5592
   59MOL    C2824504   7.032   3.244   6.366 -0.8654  0.0387  0.2629
   59MOL    C2924505   6.953   3.459   6.258 -0.1721  0.4426  0.0972
   59MOL    H3024506   7.024   3.094   5.893  0.6017 -0.4689 -0.1988
   59MOL    H3124507   6.866   3.064   5.972  0.2155  0.3101  0.6689
   59MOL    H3224508   7.078   3.253   6.085 -0.4871 -0.9037  1.3912
   59MOL    H3324509   6.849   3.144   6.210 -0.6619  0.9666  1.6431
   59MOL    H3424510   6.789   3.289   6.137 -0.8060 -1.9842 -2.0624
   59MOL    H3524511   6.694   3.307   6.338  0.4377 -0.0894  0.1330
   59MOL    H3624512   6.795   3.246   6.460 -0.3230  0.7424  0.0278
   59MOL    H3724513   6.790   3.416   6.436 -0.7253 -1.0132  1.5283
   59MOL    H3824514   7.130   3.270   6.325 -0.0659 -2.9355  0.1676
   59MOL    H3924515   7.044   3.289   6.465 -1.7392  2.2489 -0.6144
   59MOL    H4024516   7.011   3.138   6.379  0.5639 -0.0755  1.7988
   59MOL    H4124517   7.047   3.465   6.204 -0.1733 -0.0022  0.0463
   59MOL    H4224518   6.953   3.518   6.350  1.8185 -0.6391  0.8179
   59MOL    H4324519   6.884   3.509   6.190  1.2823  0.7769 -1.1476
   59MOL    C4424520   6.935   3.339   5.937  0.0559 -0.6113  0.1188
   59MOL    C4524521   7.031   3.360   5.821 -0.3677 -0.2995 -0.0088
   59MOL    C4624522   7.148   3.454   5.863 -0.6790  0.6272 -0.4482
   59MOL    C4724523   7.294   3.427   5.814  0.2503  0.6104  0.2100
   59MOL    C4824524   7.324   3.272   5.806 -0.9531  0.1184 -0.8096
   59MOL    C4924525   7.398   3.497   5.904  0.1043 -0.1515  0.8665
   59MOL    C5024526   7.307   3.480   5.668  0.5049 -0.8515  0.8120
   59MOL    H5124527   6.847   3.288   5.899 -1.1473  0.8114  0.9647
   59MOL    H5224528   6.914   3.436   5.982  1.5558  0.0759 -0.6021
   59MOL    H5324529   7.070   3.263   5.791 -1.4465 -0.5190 -0.7580
   59MOL    H5424530   7.166   3.444   5.970  0.5396 -0.0700 -0.7096
   59MOL    H5524531   7.117   3.557   5.844 -0.3753  0.6456 -0.8428
   59MOL    H5624532   7.291   3.213   5.892  1.2169 -0.6165 -0.4501
   59MOL    H5724533   7.430   3.250   5.794 -1.2291 -0.2777 -2.8062
   59MOL    H5824534   7.264   3.245   5.719 -2.2896  2.3108 -0.6064
   59MOL    H5924535   7.405   3.605   5.915  1.4190 -0.0414 -0.8331
   59MOL    H6024536   7.391   3.462   6.007  0.0829  1.2540  1.3542
   59MOL    H6124537   7.496   3.464   5.868 -0.6642 -1.6214  0.0789
   59MOL    H6224538   7.403   3.464   5.618 -0.4101  0.2725 -1.3710
   59MOL    H6324539   7.250   3.424   5.595  1.9498 -1.5606  0.2188
   59MOL    H6424540   7.291   3.588   5.660  2.1243 -0.7128 -0.9157
   59MOL    C6524541   6.957   3.424   5.703  0.5117 -0.1266 -0.0648
   59MOL    C6624542   6.885   3.317   5.613 -0.3549  0.1295 -0.0726
   59MOL    C6724543   6.982   3.238   5.519  0.8534 -0.3042 -0.0056
   59MOL    C6824544   6.960   3.082   5.497  0.0335  0.3736  0.1390
   59MOL    C6924545   6.835   3.057   5.416  0.0461  0.6688 -0.3903
   59MOL    C7024546   7.085   3.027   5.419  0.3509 -0.0501 -0.0078
   59MOL    C7124547   6.943   3.007   5.628  0.3622  0.9330 -0.0574
   59MOL    H7224548   6.888   3.499   5.741 -0.9220 -1.8437  0.8010
   59MOL    H7324549   7.028   3.473   5.637 -0.0118 -1.3027 -1.5221
   59MOL    H7424550   6.854   3.240   5.684  1.4881  2.0854  2.9626
   59MOL    H7524551   7.080   3.234   5.567  0.0003 -1.6791  1.6419
   59MOL    H7624552   7.002   3.294   5.427 -1.7042  0.0016 -0.4008
   59MOL    H7724553   6.741   3.086   5.461  0.1912  1.1783 -0.4115
   59MOL    H7824554   6.826   3.110   5.321  2.0885  0.3902 -0.7754
   59MOL    H7924555   6.827   2.949   5.401 -1.4161  0.7828 -0.5008
   59MOL    H8024556   7.100   3.073   5.321  1.9830  0.9988  0.7287
   59MOL    H8124557   7.083   2.918   5.408 -0.9894 -0.0807  0.4675
   59MOL    H8224558   7.180   3.037   5.471  1.5558  0.8719 -2.3240
   59MOL    H8324559   6.999   3.046   5.713 -1.0543  1.5606  0.6059
   59MOL    H8424560   6.963   2.901   5.612 -1.3557  0.3161  1.5358
   59MOL    H8524561   6.838   3.017   5.657  0.0203 -0.9189 -0.6016
   59MOL    C8624562   6.761   3.386   5.544 -0.4064  0.4034 -0.2568
   59MOL    C8724563   6.628   3.318   5.591 -0.3031  0.2757  0.4936
   59MOL    C8824564   6.507   3.362   5.499  0.1880  0.1651  0.7171
   59MOL    C8924565   6.484   3.297   5.353  0.7144  0.0690 -0.1375
   59MOL    C9024566   6.454   3.138   5.356  0.2111 -0.8967 -0.5242
   59MOL    C9124567   6.605   3.319   5.262 -0.0301  0.6169  0.6788
   59MOL    C9224568   6.361   3.352   5.276 -0.0048 -0.0820  0.2035
   59MOL    H9324569   6.768   3.363   5.438  1.6351 -1.4245  0.2374
   59MOL    H9424570   6.752   3.493   5.568 -1.1480  0.2326  0.2422
   59MOL    H9524571   6.632   3.211   5.573 -0.8445  0.3789 -0.2511
   59MOL    H9624572   6.505   3.470   5.488  0.9883 -0.0984 -2.7762
   59MOL    H9724573   6.415   3.351   5.557  0.1218 -1.7839  0.2833
   59MOL    H9824574   6.531   3.085   5.412  1.2947  0.8311 -0.3402
   59MOL    H9924575   6.448   3.093   5.257  0.6708 -0.6181 -0.6800
   59MOL   H10024576   6.353   3.116   5.392 -1.1311  3.4928 -1.2749
   59MOL   H10124577   6.684   3.245   5.277 -0.5343  0.1719  1.1817
   59MOL   H10224578   6.578   3.311   5.157  0.0335  2.1496  0.5360
   59MOL   H10324579   6.655   3.416   5.266  0.6700  0.3535 -1.3527
   59MOL   H10424580   6.350   3.318   5.173 -1.1866  0.3203  0.1864
   59MOL   H10524581   6.266   3.331   5.326 -0.4884  2.7884  0.5847
   59MOL   H10624582   6.367   3.461   5.276 -1.3483 -0.0005 -0.0212
   59MOL   C10724583   6.601   3.344   5.743 -0.4982 -0.5203  0.1680
   59MOL   C10824584   6.526   3.238   5.822  0.2304  0.4168  0.5586
   59MOL   C10924585   6.599   3.106   5.855 -0.1448  0.0720 -0.1972
   59MOL   C11024586   6.525   2.976   5.825 -0.1035 -0.2278 -0.2245
   59MOL   C11124587   6.613   2.865   5.889  0.3459 -0.4033 -0.1415
   59MOL   C11224588   6.509   2.950   5.671  0.1901 -0.9943 -1.4285
   59MOL   C11324589   6.384   2.970   5.887 -0.0772  0.0727 -0.1420
   59MOL   H11424590   6.545   3.437   5.754  1.2655  0.3652  2.0396
   59MOL   H11524591   6.688   3.363   5.806 -0.0173 -0.5298 -0.4896
   59MOL   H11624592   6.446   3.202   5.757 -1.1879  1.5025  1.6685
   59MOL   H11724593   6.683   3.099   5.786 -2.2497 -2.2675 -2.6604
   59MOL   H11824594   6.624   3.111   5.961  0.6897  0.0609 -0.3913
   59MOL   H11924595   6.606   2.856   5.998 -1.5980 -0.6708 -0.2622
   59MOL   H12024596   6.559   2.777   5.854 -1.3401 -1.2452  4.2323
   59MOL   H12124597   6.718   2.862   5.861  0.4972 -0.4285  0.4118
   59MOL   H12224598   6.461   3.034   5.621  0.2244  0.5913  1.1092
   59MOL   H12324599   6.455   2.860   5.640 -1.8338 -0.7913  1.2888
   59MOL   H12424600   6.609   2.936   5.631  0.7842  1.2821 -0.7981
   59MOL   H12524601   6.393   2.982   5.995 -0.0321  2.7861 -0.4051
   59MOL   H12624602   6.340   2.873   5.867  0.2503 -0.0416 -0.3191
   59MOL   H12724603   6.330   3.063   5.867  1.3533  0.9444 -0.0437
   59MOL   C12824604   6.477   3.292   5.964  0.9105 -0.0745  0.5151
   59MOL   C12924605   6.377   3.412   5.971 -0.3956 -0.5077  0.0573
   59MOL   C13024606   6.451   3.549   5.970 -0.1432 -0.5266  0.5544
   59MOL   C13124607   6.481   3.621   6.107 -0.2903 -0.5815 -0.0081
   59MOL   C13224608   6.347   3.664   6.173 -0.5513  0.0782  0.3856
   59MOL   C13324609   6.568   3.740   6.081  0.2629 -0.4585 -0.0738
   59MOL   C13424610   6.559   3.532   6.206 -0.4943 -0.4878  0.1481
   59MOL   H13524611   6.557   3.323   6.031  0.4411  2.5620 -0.0478
   59MOL   H13624612   6.420   3.213   6.012  0.8849 -0.1853  0.3026
   59MOL   H13724613   6.332   3.411   6.070 -1.6104  1.8126 -0.4375
   59MOL   H13824614   6.551   3.541   5.927  1.3710 -0.4906  3.9146
   59MOL   H13924615   6.406   3.622   5.902  0.6108  2.3622  3.0521
   59MOL   H14024616   6.366   3.743   6.245  0.8203  0.6631 -0.6107
   59MOL   H14124617   6.293   3.581   6.219 -0.9125  0.3148  0.3856
   59MOL   H14224618   6.291   3.722   6.100 -0.0354  1.3650  1.0089
   59MOL   H14324619   6.527   3.811   6.008 -0.3636 -0.0576  0.6555
   59MOL   H14424620   6.669   3.720   6.044  0.5843  1.9321 -0.5786
   59MOL   H14524621   6.576   3.797   6.174 -2.2082  0.0051 -0.1048
   59MOL   H14624622   6.528   3.431   6.229  0.5258 -0.6539  0.7937
   59MOL   H14724623   6.646   3.505   6.146 -0.6160 -0.2560 -0.1391
   59MOL   H14824624   6.585   3.575   6.303  0.3695 -1.5480  0.3930
   59MOL   C14924625   6.270   3.391   5.862 -0.1666 -0.0941 -0.1065
   59MOL   C15024626   6.131   3.461   5.881  0.8907  0.1990 -1.0628
   59MOL   C15124627   6.041   3.471   5.750 -0.6143 -0.9015 -0.1218
   59MOL   C15224628   6.061   3.587   5.642  0.5465  0.8943  0.5307
   59MOL   C15324629   6.192   3.559   5.565 -0.0755  0.8548  0.9630
   59MOL   C15424630   6.072   3.728   5.693 -0.0880 -0.1472  0.5526
   59MOL   C15524631   5.939   3.580   5.549  0.0400  0.2787 -0.3842
   59MOL   H15624632   6.251   3.288   5.831 -1.1136 -0.1795  0.6948
   59MOL   H15724633   6.317   3.427   5.771 -0.7602  1.6573  0.2504
   59MOL   H15824634   6.162   3.557   5.921  0.6878 -1.3312  3.0398
   59MOL   H15924635   5.941   3.483   5.791 -0.4417  0.0020  0.0355
   59MOL   H16024636   6.038   3.371   5.705 -1.1289 -0.9165 -0.0619
   59MOL   H16124637   6.284   3.576   5.621  1.3065 -1.3986 -0.5360
   59MOL   H16224638   6.213   3.456   5.535 -0.6941  0.8005  0.7246
   59MOL   H16324639   6.213   3.624   5.480 -0.4359 -0.5268 -0.2057
   59MOL   H16424640   5.990   3.773   5.749  0.7135 -0.5837  2.1359
   59MOL   H16524641   6.094   3.792   5.608 -5.0926  2.2815  0.8966
   59MOL   H16624642   6.155   3.740   5.763  1.0486  0.2989 -0.8605
   59MOL   H16724643   5.848   3.613   5.600 -0.5036 -0.1710 -1.0523
   59MOL   H16824644   5.960   3.633   5.456 -1.0486  1.6245  0.1114
   59MOL   H16924645   5.922   3.480   5.511  0.2255 -0.5711  1.7008
   59MOL   C17024646   6.049   3.391   5.992  0.6014  0.2839 -0.4571
   59MOL   C17124647   5.927   3.464   6.068  0.0417  0.1442  0.1684
   59MOL   C17224648   5.982   3.584   6.160 -0.5347 -0.0373  0.4414
   59MOL   C17324649   5.906   3.723   6.162 -0.3902 -0.4102 -0.5545
   59MOL   C17424650   5.974   3.814   6.258  0.8253  0.1366 -0.0408
   59MOL   C17524651   5.760   3.716   6.203 -0.2189  0.6648  0.9835
   59MOL   C17624652   5.910   3.796   6.024 -1.0128  0.6213  0.6755
   59MOL   H17724653   6.118   3.366   6.072 -0.6069  0.7034  0.7521
   59MOL   H17824654   6.007   3.296   5.960  1.5816 -0.1382 -0.5112
   59MOL   H17924655   5.867   3.509   5.989  0.7659  0.7155 -0.0656
   59MOL   H18024656   5.986   3.550   6.263 -0.3701 -0.9800  0.1279
   59MOL   H18124657   6.085   3.606   6.133 -0.2133 -2.7952 -0.8051
   59MOL   H18224658   5.939   3.917   6.262 -2.1253 -0.8966  1.8239
   59MOL   H18324659   5.959   3.764   6.353  0.1702  1.6225  0.6478
   59MOL   H18424660   6.083   3.818   6.245  0.5663  1.8178 -2.0377
   59MOL   H18524661   5.708   3.812   6.205 -2.7840 -0.6393 -0.0825
   59MOL   H18624662   5.693   3.673   6.128  1.4249 -2.2520  1.1082
   59MOL   H18724663   5.751   3.667   6.299 -0.3565 -1.0834  0.0947
   59MOL   H18824664   5.849   3.886   6.024 -0.5191  0.9607 -0.2754
   59MOL   H18924665   6.012   3.806   5.987  0.0664  0.4584  3.5180
   59MOL   H19024666   5.861   3.729   5.952  0.4719 -0.0675  0.2852
   59MOL   C19124667   5.846   3.365   6.155 -0.0046  1.1337 -0.0821
   59MOL   C19224668   5.748   3.271   6.071 -0.0232 -0.0388  0.0563
   59MOL   C19324669   5.643   3.356   5.987  0.9197  0.7561  0.5558
   59MOL   C19424670   5.590   3.300   5.852  0.3432 -0.1669  0.7325
   59MOL   C19524671   5.698   3.308   5.737 -0.4550  0.0158  0.3175
   59MOL   C19624672   5.469   3.399   5.806 -0.4715  0.6802 -0.8909
   59MOL   C19724673   5.536   3.157   5.858  0.2269  0.8845 -0.1862
   59MOL   H19824674   5.901   3.308   6.230 -0.0127  1.2561  0.0169
   59MOL   H19924675   5.783   3.424   6.222 -1.7593 -2.3965  1.5202
   59MOL   H20024676   5.806   3.214   5.998  2.5635  1.8640  0.5378
   59MOL   H20124677   5.675   3.455   5.951  1.8143  0.5227  0.6865
   59MOL   H20224678   5.552   3.369   6.044  0.3506  0.7899 -0.3422
   59MOL   H20324679   5.737   3.409   5.735  0.0617 -0.1363  1.9784
   59MOL   H20424680   5.786   3.247   5.758 -0.7661 -0.9277 -0.9946
   59MOL   H20524681   5.664   3.271   5.640  2.4679  1.8861 -1.5005
   59MOL   H20624682   5.425   3.368   5.712 -0.6351 -2.0827  0.0244
   59MOL   H20724683   5.387   3.389   5.877 -1.1077  0.4688 -1.6550
   59MOL   H20824684   5.506   3.501   5.799 -0.7845  0.8051 -0.7101
   59MOL   H20924685   5.495   3.111   5.768 -1.2885  0.6380  0.6116
   59MOL   H21024686   5.609   3.080   5.881  1.5530  1.3609 -2.6118
   59MOL   H21124687   5.457   3.156   5.933 -0.1409  1.1159 -0.5724
   59MOL   C21224688   5.673   3.169   6.155  0.0612  0.3172 -0.4129
   59MOL   C21324689   5.751   3.057   6.230 -0.0423  0.3732  0.0784
   59MOL   C21424690   5.804   2.954   6.125 -0.0206  0.7746  0.5247
   59MOL   C21524691   5.956   2.912   6.144 -0.3836  0.4843  0.5083
   59MOL   C21624692   5.991   2.855   6.283 -0.2142 -0.5507 -0.4405
   59MOL   C21724693   5.993   2.796   6.042 -0.5201  0.3086 -0.4702
   59MOL   C21824694   6.046   3.026   6.109 -0.0220  0.0064 -0.2696
   59MOL   H21924695   5.611   3.231   6.220 -0.6374 -2.0501  1.2339
   59MOL   H22024696   5.593   3.114   6.106 -0.9683 -0.7210  2.3393
   59MOL   H22124697   5.826   3.095   6.300 -0.3349 -0.9813  1.1590
   59MOL   H22224698   5.797   2.999   6.026  1.1244 -0.0706  0.0424
   59MOL   H22324699   5.727   2.877   6.115  1.6452 -1.0568  1.3766
   59MOL   H22424700   5.919   2.778   6.313 -0.5475  1.1795  3.4961
   59MOL   H22524701   5.981   2.930   6.361  0.1062 -0.3351 -0.6079
   59MOL   H22624702   6.093   2.818   6.288  0.1962  0.3289 -2.0787
   59MOL   H22724703   6.094   2.756   6.038 -0.3602  0.3998  1.7471
   59MOL   H22824704   5.926   2.711   6.056  1.3580 -0.6637  3.2846
   59MOL   H22924705   5.958   2.840   5.948  0.6018 -0.2873 -1.1704
   59MOL   H23024706   6.044   3.058   6.004 -1.8137  1.3211  0.1393
   59MOL   H23124707   6.148   2.993   6.125 -0.4280 -2.2746 -2.0692
   59MOL   H23224708   6.016   3.112   6.169 -3.3512 -1.9706  1.0216
   59MOL   C23324709   5.650   2.997   6.326  0.1084  1.2716 -0.5774
   59MOL   C23424710   5.591   3.070   6.448  0.1431  0.2000 -0.6804
   59MOL   C23524711   5.453   3.002   6.484  0.8612  0.0603  0.8853
   59MOL   C23624712   5.322   3.043   6.411 -0.2253 -0.8944  0.8285
   59MOL   C23724713   5.260   3.162   6.473 -0.4099  1.0425  0.5681
   59MOL   C23824714   5.331   3.067   6.254  0.6321 -0.2303 -0.3634
   59MOL   C23924715   5.221   2.924   6.430  0.4207  0.0817  0.2835
   59MOL   H24024716   5.701   2.915   6.376  0.2166  1.4907 -0.3279
   59MOL   H24124717   5.565   2.958   6.270 -1.6517  1.9736  1.5556
   59MOL   H24224718   5.580   3.174   6.417 -1.0789  0.7413  1.4497
   59MOL   H24324719   5.459   2.893   6.494 -1.2302 -0.2753 -0.9769
   59MOL   H24424720   5.434   3.020   6.590 -0.6853 -0.2706  0.6721
   59MOL   H24524721   5.248   3.150   6.580 -0.2428  0.5353  0.5307
   59MOL   H24624722   5.160   3.183   6.434 -0.2902  0.3384 -0.1437
   59MOL   H24724723   5.327   3.245   6.448 -0.8948  1.5271  0.8647
   59MOL   H24824724   5.241   3.101   6.202 -0.3599 -0.8517  0.9110
   59MOL   H24924725   5.399   3.150   6.235 -1.3067  1.3977 -0.5117
   59MOL   H25024726   5.370   2.976   6.210  0.2659 -1.3379  1.5203
   59MOL   H25124727   5.129   2.946   6.377  0.0217  2.5064  1.8890
   59MOL   H25224728   5.259   2.829   6.393  0.3876 -0.4502  1.5884
   59MOL   H25324729   5.193   2.901   6.533  0.4041 -0.5472  0.1394
   59MOL   C25424730   5.693   3.069   6.571 -0.1049  0.7405 -0.8820
   59MOL   C25524731   5.740   3.205   6.614  0.5764 -0.0919 -0.9234
   59MOL   C25624732   5.862   3.196   6.706  0.2952 -0.9591  0.3566
   59MOL   C25724733   5.981   3.300   6.685  0.2835  0.3497  0.4004
   59MOL   C25824734   6.078   3.268   6.801 -0.0708 -0.0564  0.0508
   59MOL   C25924735   5.935   3.445   6.692 -0.3589  0.0699 -0.8247
   59MOL   C26024736   6.050   3.266   6.550 -0.5012  0.4994 -0.3756
   59MOL   H26124737   5.785   3.013   6.551 -0.0174  0.4843  0.1880
   59MOL   H26224738   5.661   3.006   6.653 -0.0066 -0.3074 -1.6411
   59MOL   H26324739   5.767   3.252   6.520 -1.3822  1.8076 -0.5848
   59MOL   H26424740   5.827   3.192   6.809 -2.1363  0.1118 -0.3798
   59MOL   H26524741   5.914   3.101   6.699 -2.0959 -2.1671 -2.0458
   59MOL   H26624742   6.115   3.166   6.798  1.0048  0.3160  0.2510
   59MOL   H26724743   6.025   3.277   6.896 -2.3942  2.5923 -1.4157
   59MOL   H26824744   6.167   3.332   6.793  0.8548 -1.5204 -1.9443
   59MOL   H26924745   6.012   3.523   6.692 -0.2114 -0.0414  1.7275
   59MOL   H27024746   5.876   3.464   6.781  0.5053 -0.3950 -0.1402
   59MOL   H27124747   5.874   3.465   6.604 -0.7061 -1.0892 -0.8432
   59MOL   H27224748   6.145   3.321   6.554  0.2893 -0.7906 -1.0164
   59MOL   H27324749   6.080   3.162   6.536 -4.0606 -0.5455 -0.6015
   59MOL   H27424750   5.983   3.298   6.470 -2.3133 -0.6331  0.6697
   59MOL   C27524751   5.614   3.284   6.667 -0.2416 -0.4406 -0.7545
   59MOL   C27624752   5.596   3.309   6.825 -0.3197  0.0820 -0.2899
   59MOL   C27724753   5.483   3.405   6.859 -0.2880 -0.5278 -0.0018
   59MOL   C27824754   5.493   3.557   6.831  0.2772 -0.2468 -1.0102
   59MOL   C27924755   5.495   3.592   6.678  0.0873 -0.6084 -0.2383
   59MOL   C28024756   5.368   3.626   6.886 -0.4852  0.5305  0.1670
   59MOL   C28124757   5.617   3.619   6.899  0.4575 -0.1829 -0.0102
   59MOL   H28224758   5.623   3.381   6.618  2.0757 -1.2974 -2.1055
   59MOL   H28324759   5.520   3.241   6.632 -1.1596  1.0516 -0.1549
   59MOL   H28424760   5.683   3.356   6.871 -0.9728  1.2985 -0.2791
   59MOL   H28524761   5.469   3.395   6.967  1.3424  0.2176  0.3022
   59MOL   H28624762   5.384   3.373   6.828 -0.9164 -0.2447  1.6863
   59MOL   H28724763   5.598   3.610   6.649 -0.5655  2.2905 -0.9336
   59MOL   H28824764   5.440   3.513   6.626 -1.2889  0.3054 -0.2153
   59MOL   H28924765   5.437   3.680   6.648 -0.5901 -0.5485  1.1966
   59MOL   H29024766   5.362   3.733   6.867  1.9740  0.0735 -3.5778
   59MOL   H29124767   5.369   3.611   6.994 -0.2927  1.0787  0.2472
   59MOL   H29224768   5.279   3.579   6.846  0.1439 -0.9634  0.4987
   59MOL   H29324769   5.616   3.727   6.885  0.8575 -0.3795 -1.6031
   59MOL   H29424770   5.706   3.582   6.849  1.3226  0.6699  0.8598
   59MOL   H29524771   5.631   3.610   7.007 -2.1755 -1.3086  0.2696
   59MOL   C29624772   5.567   3.162   6.893 -0.0961  0.1451  0.1086
   59MOL   C29724773   5.573   3.138   7.047  0.2467 -0.3796  0.2806
   59MOL   C29824774   5.721   3.165   7.096  0.5603  0.0428 -0.9673
   59MOL   C29924775   5.728   3.226   7.244  0.4872 -0.1475  0.1064
   59MOL   C30024776   5.688   3.124   7.357 -0.1286 -0.2259 -0.0723
   59MOL   C30124777   5.873   3.261   7.271  0.3044 -0.0852  0.0839
   59MOL   C30224778   5.648   3.354   7.254  0.0490 -0.9814 -0.4570
   59MOL   H30324779   5.631   3.089   6.844 -0.0152 -2.1513  3.4664
   59MOL   H30424780   5.472   3.129   6.851  0.7691 -2.2836 -0.0045
   59MOL   H30524781   5.506   3.218   7.079  0.6759  1.1711 -2.4693
   59MOL   H30624782   5.776   3.234   7.033 -0.2856  0.4145 -1.3061
   59MOL   H30724783   5.780   3.074   7.087 -0.4321 -0.6871 -0.1521
   59MOL   H30824784   5.724   3.024   7.333 -0.9931 -0.6998  0.6107
   59MOL   H30924785   5.714   3.154   7.459  0.8000  0.0565 -0.3844
   59MOL   H31024786   5.579   3.119   7.362 -0.0678 -2.0709 -0.3738
   59MOL   H31124787   5.927   3.316   7.194 -0.9284  1.0978  0.0524
   59MOL   H31224788   5.895   3.321   7.359  1.8028 -0.9740  0.3309
   59MOL   H31324789   5.931   3.170   7.291 -0.7834 -1.2087 -1.7358
   59MOL   H31424790   5.542   3.335   7.276  0.1280 -0.5174  0.3236
   59MOL   H31524791   5.678   3.413   7.340 -1.0503 -0.4946 -0.3944
   59MOL   H31624792   5.654   3.407   7.159  0.6536  0.2913  0.2782
   59MOL   C31724793   5.524   2.996   7.091 -0.0663  0.2164  0.4123
   59MOL   C31824794   5.371   2.971   7.086  0.5627 -0.3027 -0.3126
   59MOL   C31924795   5.329   2.819   7.084  0.3081 -0.1956 -0.2865
   59MOL   C32024796   5.337   2.745   6.952  0.3063  0.0584  0.1004
   59MOL   C32124797   5.321   2.600   6.979 -0.0458 -0.0141 -0.4098
   59MOL   C32224798   5.469   2.766   6.874 -0.2813 -0.1628 -0.0157
   59MOL   C32324799   5.219   2.787   6.863  0.8405 -0.8667 -0.0441
   59MOL   H32424800   5.579   2.932   7.021 -0.8332 -0.0426  0.0470
   59MOL   H32524801   5.549   2.958   7.190  2.5689 -2.0719 -1.0251
   59MOL   H32624802   5.324   3.017   7.000  0.6444 -1.5390 -1.0222
   59MOL   H32724803   5.224   2.813   7.113  0.8652 -1.2232  1.6158
   59MOL   H32824804   5.377   2.761   7.163 -0.6286 -1.4107 -0.5965
   59MOL   H32924805   5.408   2.566   7.036 -1.0955 -2.0584  0.0001
   59MOL   H33024806   5.310   2.539   6.889 -1.9019  0.0000 -0.2002
   59MOL   H33124807   5.236   2.583   7.045  2.4360 -1.4164  2.5351
   59MOL   H33224808   5.560   2.737   6.928 -0.7923 -1.6789  0.0449
   59MOL   H33324809   5.465   2.716   6.778  0.5540 -0.0245 -0.1235
   59MOL   H33424810   5.486   2.870   6.847  1.9337  0.0891  2.1462
   59MOL   H33524811   5.216   2.891   6.830  0.9387 -1.0463 -0.6132
   59MOL   H33624812   5.120   2.770   6.907  0.3878  4.9101  1.5474
   59MOL   H33724813   5.223   2.733   6.769 -0.5999 -0.5365 -0.3137
   59MOL   C33824814   5.312   3.035   7.216  0.0851  1.2043  0.7045
   59MOL   C33924815   5.166   3.096   7.214  0.1024  0.0616  0.0608
   59MOL   C34024816   5.155   3.222   7.126  0.2737 -0.9108  0.0414
   59MOL   C34124817   5.017   3.238   7.039 -0.7104 -0.2146 -1.2220
   59MOL   C34224818   5.015   3.386   6.991  0.1874 -0.1995 -0.3353
   59MOL   C34324819   5.026   3.137   6.919 -0.5944  0.7189 -0.0001
   59MOL   C34424820   4.888   3.207   7.121 -0.3164  0.1045 -0.1359
   59MOL   H34524821   5.385   3.104   7.258  0.9854  0.2008  0.8164
   59MOL   H34624822   5.312   2.953   7.288 -1.5592  2.1966  1.8789
   59MOL   H34724823   5.107   3.015   7.170  1.1393 -0.4584 -0.3924
   59MOL   H34824824   5.238   3.219   7.055 -0.8739  0.6986 -1.4232
   59MOL   H34924825   5.175   3.305   7.194 -0.3775  2.3896 -3.6249
   59MOL   H35024826   4.919   3.405   6.943  0.0167  1.0879  0.4900
   59MOL   H35124827   5.012   3.453   7.077  0.1254  0.1884 -0.6368
   59MOL   H35224828   5.098   3.405   6.924 -0.0903 -0.3535 -0.7275
   59MOL   H35324829   5.050   3.035   6.950 -2.3505  0.1245 -0.5198
   59MOL   H35424830   4.941   3.136   6.852 -0.3587  1.0928 -0.3049
   59MOL   H35524831   5.109   3.174   6.858 -0.6702  0.0001 -0.5443
   59MOL   H35624832   4.803   3.216   7.053 -1.2607  0.8194  1.0940
   59MOL   H35724833   4.894   3.100   7.143  0.4205  0.3500  0.9012
   59MOL   H35824834   4.880   3.265   7.213 -1.4313  0.8352 -0.6752
   59MOL   C35924835   5.108   3.126   7.363 -0.5448  0.0972  0.3734
   59MOL   C36024836   5.082   3.000   7.449 -0.8952  0.1457  0.1852
   59MOL   C36124837   4.944   2.997   7.530 -0.2871  0.3225 -0.3463
   59MOL   C36224838   4.835   2.891   7.487  0.1903  0.0061 -0.3041
   59MOL   C36324839   4.886   2.742   7.473  0.6448 -0.2575  0.9327
   59MOL   C36424840   4.779   2.927   7.347  0.2256 -0.2482 -0.4190
   59MOL   C36524841   4.711   2.895   7.586 -0.6929 -0.0555 -0.0011
   59MOL   H36624842   5.010   3.173   7.355  0.1835  1.4573 -0.8003
   59MOL   H36724843   5.161   3.204   7.418  1.7377 -0.5714 -0.8078
   59MOL   H36824844   5.076   2.913   7.384 -0.3870 -0.1555  0.5337
   59MOL   H36924845   4.967   2.988   7.637  1.8202  0.5728 -0.7555
   59MOL   H37024846   4.901   3.095   7.511  0.2333  0.1774 -2.2901
   59MOL   H37124847   4.807   2.668   7.459  0.3945  0.1519  0.1332
   59MOL   H37224848   4.948   2.738   7.383 -1.9078 -0.8604 -0.8461
   59MOL   H37324849   4.957   2.707   7.548  0.0654 -2.3311  0.5290
   59MOL   H37424850   4.701   2.862   7.307 -0.6232  0.6302 -0.2039
   59MOL   H37524851   4.863   2.936   7.277  0.4460  2.3145  0.1340
   59MOL   H37624852   4.726   3.023   7.344 -1.8749 -1.3364  0.6166
   59MOL   H37724853   4.745   2.843   7.675  0.6596 -2.1456 -1.6972
   59MOL   H37824854   4.629   2.838   7.544  0.1255 -2.7790  1.9496
   59MOL   H37924855   4.680   2.996   7.612  1.1052  0.5257  0.0133
   59MOL   C38024856   5.208   2.985   7.548  0.6922 -0.2296  0.0872
   59MOL   C38124857   5.225   2.855   7.631 -0.1077  0.3281  0.1361
   59MOL   C38224858   5.342   2.880   7.733  0.0718  0.0083  0.1665
   59MOL   C38324859   5.299   2.897   0.116  0.4800  0.3548 -0.0427
   59MOL   C38424860   5.428   2.914   0.197  0.3597  0.6398 -0.2711
   59MOL   C38524861   5.221   2.777   0.167 -0.5265 -0.1229 -0.0963
   59MOL   C38624862   5.216   3.034   0.137 -0.6149 -0.3938  0.3753
   59MOL   H38724863   5.215   3.076   7.609 -1.6454  0.8876 -1.2196
   59MOL   H38824864   5.301   2.999   7.494  0.3825  0.8499 -0.1940
   59MOL   H38924865   5.136   2.845   7.692 -1.4833  2.2783 -1.4817
   59MOL   H39024866   5.422   2.806   7.740  1.0952  0.8918 -1.6508
   59MOL   H39124867   5.403   2.967   7.706 -0.5574  0.0380 -1.2415
   59MOL   H39224868   5.489   2.825   0.178  1.4525  1.5883 -1.3559
   59MOL   H39324869   5.481   3.005   0.168  3.5356 -0.1199  2.7740
   59MOL   H39424870   5.397   2.925   0.301  0.6702  0.5758 -0.1698
   59MOL   H39524871   5.286   2.690   0.170 -0.0997  0.1478 -1.1007
   59MOL   H39624872   5.131   2.758   0.108 -0.6711 -0.0338  0.0974
   59MOL   H39724873   5.203   2.798   0.273  0.0619  0.3346 -0.0841
   59MOL   H39824874   5.145   3.035   0.053 -1.4009  0.0781  1.0385
   59MOL   H39924875   5.281   3.121   0.129 -0.4094 -0.5159  0.7259
   59MOL   H40024876   5.166   3.031   0.233 -1.1979  0.5478  0.1109
   59MOL   C40124877   5.244   2.726   7.545 -0.6039  0.5747  0.0113
   59MOL   C40224878   5.220   2.598   7.629 -0.5048  0.0904  0.4493
   59MOL   C40324879   5.266   2.468   7.561 -0.5461 -0.1627  0.3453
   59MOL   C40424880   5.240   2.334   7.624  0.3466  0.3725  0.0328
   59MOL   C40524881   5.093   2.301   7.634  0.1336  1.0095  0.6180
   59MOL   C40624882   5.308   2.323   7.757 -0.7581  0.3445  0.2030
   59MOL   C40724883   5.302   2.234   7.514 -0.6390  0.2451 -0.4724
   59MOL   H40824884   5.178   2.726   7.458  1.5606  0.3641 -1.6572
   59MOL   H40924885   5.344   2.727   7.502 -1.1350 -2.4992 -1.4082
   59MOL   H41024886   5.280   2.606   7.719 -2.1702  1.0038  1.5161
   59MOL   H41124887   5.373   2.474   7.543 -0.3930 -2.4197  0.4129
   59MOL   H41224888   5.217   2.473   7.463 -3.0436 -0.6357  1.5321
   59MOL   H41324889   5.075   2.193   7.641 -0.6472  0.8612 -2.9328
   59MOL   H41424890   5.037   2.328   7.545  3.5248 -0.3558 -2.0162
   59MOL   H41524891   5.038   2.352   7.714 -2.0018 -0.0055 -0.1430
   59MOL   H41624892   5.414   2.345   7.740 -0.4409 -0.8067  0.6235
   59MOL   H41724893   5.298   2.223   0.034 -1.3531  0.5581  0.5673
   59MOL   H41824894   5.272   2.390   0.068  1.4909 -0.2573  1.8595
   59MOL   H41924895   5.409   2.248   7.506 -0.4662 -0.5828  0.2527
   59MOL   H42024896   5.282   2.134   7.553 -1.4136  0.6695  0.2224
   59MOL   H42124897   5.248   2.232   7.419  0.6301 -0.3950 -1.2008
   59MOL   H42224898   5.122   2.584   7.676  0.4327 -0.4506  2.2579
   60MOL     C124899   3.918   6.568   7.042 -0.1228  0.0911 -0.5064
   60MOL     C224900   3.939   6.644   6.907 -0.8152 -0.2523  0.2037
   60MOL     C324901   4.063   6.584   6.834  0.6430 -0.1993  0.5691
   60MOL     C424902   4.027   6.478   6.730 -0.1436  0.5214  0.7683
   60MOL     C524903   3.964   6.356   6.794  0.5340  0.3256 -0.5758
   60MOL     C624904   3.924   6.521   6.625  0.0209 -0.0214  0.4527
   60MOL     C724905   4.151   6.437   6.652  0.0394 -0.1034 -0.3661
   60MOL     H824906   3.812   6.576   7.068  0.2019 -0.8162  1.0977
   60MOL     H924907   3.950   6.464   7.032  3.3794  1.1382 -0.8808
   60MOL    H1024908   3.848   6.629   6.850 -0.3578 -2.7630  0.0708
   60MOL    H1124909   4.144   6.568   6.905  0.0325  3.5313  2.2559
   60MOL    H1224910   4.108   6.661   6.770  0.2722  0.4909  1.1258
   60MOL    H1324911   4.017   6.328   6.885 -0.2180  3.3886  0.8603
   60MOL    H1424912   3.966   6.272   6.725 -0.0445  0.5144 -0.8180
   60MOL    H1524913   3.860   6.376   6.818 -0.1112 -2.7075 -0.7074
   60MOL    H1624914   3.826   6.522   6.673 -0.0728  1.2965  0.2299
   60MOL    H1724915   3.926   6.608   6.560 -2.4567  0.1767  0.6033
   60MOL    H1824916   3.911   6.446   6.547 -0.0467  0.7592 -0.2941
   60MOL    H1924917   4.189   6.521   6.594 -3.2025  0.7334 -1.3928
   60MOL    H2024918   4.130   6.355   6.584 -2.3036 -2.1878  2.7399
   60MOL    H2124919   4.236   6.423   6.719  0.4830 -0.4953 -1.0033
   60MOL    H2224920   3.971   6.616   7.124 -1.1040 -0.4834  0.4768
   60MOL    C2324921   3.947   6.794   6.930  0.1365  0.4873 -0.3218
   60MOL    C2424922   3.917   6.882   6.796  0.5363  0.1315 -0.1546
   60MOL    C2524923   3.971   7.032   6.793 -0.1262 -0.6710  0.1065
   60MOL    C2624924   4.122   7.042   6.762 -0.4206  0.5232 -0.4244
   60MOL    C2724925   4.140   6.983   6.624 -0.7301 -0.4933 -0.2242
   60MOL    C2824926   4.178   7.190   6.760  0.2066 -0.5406  0.2869
   60MOL    C2924927   4.213   6.971   6.864 -0.0819  0.0803  0.5753
   60MOL    H3024928   3.876   6.818   7.009 -0.9479 -0.4778 -1.0031
   60MOL    H3124929   4.044   6.807   6.979  0.4640 -1.8803 -0.2775
   60MOL    H3224930   3.954   6.827   6.709 -0.9274 -0.9383 -0.1213
   60MOL    H3324931   3.943   7.084   6.885 -0.5327  0.9443 -0.9225
   60MOL    H3424932   3.917   7.098   6.725  0.4069 -2.1382 -1.7926
   60MOL    H3524933   4.240   7.003   6.585 -0.3049 -0.3711  0.8944
   60MOL    H3624934   4.142   6.874   6.625  2.0719 -0.4711  0.3612
   60MOL    H3724935   4.058   7.013   6.559  0.1168 -1.6251 -1.8447
   60MOL    H3824936   4.137   7.268   6.697  1.0664  0.6013  1.1160
   60MOL    H3924937   4.183   7.238   6.858 -0.8457  2.4452 -1.0816
   60MOL    H4024938   4.283   7.191   6.733 -0.3088 -0.7326 -1.7939
   60MOL    H4124939   4.315   7.002   6.848  0.0867 -1.7939 -2.3981
   60MOL    H4224940   4.226   6.865   6.839 -1.2619 -0.0696  0.5590
   60MOL    H4324941   4.185   6.966   6.970  0.6401 -0.3592  0.7468
   60MOL    C4424942   3.760   6.890   6.780 -0.1857  0.5831 -0.6174
   60MOL    C4524943   3.685   6.953   6.658  0.7773 -0.4988 -0.5324
   60MOL    C4624944   3.531   6.926   6.661 -0.1030 -0.2521 -0.4207
   60MOL    C4724945   3.445   6.971   6.785  0.1471  0.2261  0.0822
   60MOL    C4824946   3.451   6.860   6.892  0.0923 -0.2985  0.3265
   60MOL    C4924947   3.298   6.980   6.735  0.0982 -0.0264 -0.0192
   60MOL    C5024948   3.487   7.107   6.842  0.0204  0.1205 -0.3842
   60MOL    H5124949   3.715   6.791   6.790 -1.2314  1.1859  0.8026
   60MOL    H5224950   3.729   6.947   6.868  0.7704 -0.8403  0.6896
   60MOL    H5324951   3.686   7.062   6.662  0.5905 -0.4988 -0.4562
   60MOL    H5424952   3.522   6.817   6.654  3.3440 -0.7851  2.1115
   60MOL    H5524953   3.486   6.973   6.574  0.0259  0.2342 -0.2268
   60MOL    H5624954   3.386   6.896   6.972 -2.2897  1.0940 -2.1431
   60MOL    H5724955   3.550   6.837   6.931  0.9565 -0.2250 -1.7762
   60MOL    H5824956   3.408   6.765   6.860  0.5865 -0.2959 -0.3569
   60MOL    H5924957   3.268   6.887   6.686 -0.7349  1.0619 -1.5968
   60MOL    H6024958   3.233   7.008   6.818 -1.3444  0.4339 -1.2835
   60MOL    H6124959   3.273   7.062   6.668  0.2236 -1.2819 -1.6291
   60MOL    H6224960   3.592   7.100   6.867 -0.0354  1.7685  0.2958
   60MOL    H6324961   3.467   7.177   6.761 -1.3505 -0.4311 -0.5428
   60MOL    H6424962   3.425   7.117   6.931  0.6290  2.9107 -0.2579
   60MOL    C6524963   3.743   6.904   6.526 -0.3310  0.7508  0.4113
   60MOL    C6624964   3.716   6.992   6.406 -0.5948 -0.1499 -0.0680
   60MOL    C6724965   3.744   6.914   6.276  0.1781  0.6152 -0.4924
   60MOL    C6824966   3.624   6.834   6.205  0.0553  0.2930  0.0458
   60MOL    C6924967   3.668   6.740   6.096  0.3694  0.3397  0.4154
   60MOL    C7024968   3.551   6.757   6.317 -0.0640  0.0122 -0.4111
   60MOL    C7124969   3.523   6.934   6.137  0.3333 -0.5476  0.1265
   60MOL    H7224970   3.850   6.906   6.543 -0.3119  0.7613  0.2853
   60MOL    H7324971   3.720   6.800   6.504  0.9166  0.6204 -0.2874
   60MOL    H7424972   3.616   7.035   6.394 -0.5738  0.0882  0.6289
   60MOL    H7524973   3.833   6.854   6.291 -0.4022  0.1486  1.2110
   60MOL    H7624974   3.783   6.976   6.195  0.5925  2.2098  0.8976
   60MOL    H7724975   3.718   6.779   6.007 -1.6560  2.9799  0.3578
   60MOL    H7824976   3.753   6.681   6.129 -1.4165 -1.0738  2.6001
   60MOL    H7924977   3.578   6.684   6.069 -0.1104  0.7889  1.0601
   60MOL    H8024978   3.510   6.836   6.381 -0.6170  0.9979 -1.9448
   60MOL    H8124979   3.615   6.686   6.369  0.8961  0.3636 -1.1022
   60MOL    H8224980   3.465   6.697   6.286 -0.1691 -0.3460  0.5555
   60MOL    H8324981   3.432   6.882   6.105 -0.7799  1.0877  0.5781
   60MOL    H8424982   3.572   6.963   6.045  0.7773 -0.7417  0.3012
   60MOL    H8524983   3.492   7.026   6.186  2.8494  0.4564 -0.1121
   60MOL    C8624984   3.812   7.118   6.406 -0.6708  0.5521  0.0076
   60MOL    C8724985   3.757   7.238   6.319 -0.4471 -0.4137  0.0189
   60MOL    C8824986   3.876   7.314   6.260  0.0067  0.3346 -0.2135
   60MOL    C8924987   3.956   7.268   6.137  0.8449  0.3442 -0.4339
   60MOL    C9024988   3.861   7.238   6.013 -0.0532 -0.6212  0.4024
   60MOL    C9124989   4.043   7.142   6.160  0.6775 -0.1002  0.7980
   60MOL    C9224990   4.054   7.376   6.083  0.1948 -0.1965 -0.0176
   60MOL    H9324991   3.914   7.086   6.381 -0.1195  0.9058  1.7482
   60MOL    H9424992   3.823   7.159   6.506  0.7296  2.6179 -0.9695
   60MOL    H9524993   3.695   7.201   6.237 -2.1174 -0.0266  1.0738
   60MOL    H9624994   3.939   7.337   6.345 -0.1318 -0.7829  0.1915
   60MOL    H9724995   3.851   7.416   6.229 -1.7392 -0.0815 -0.2313
   60MOL    H9824996   3.792   7.162   6.049  1.1985 -0.2276  3.8925
   60MOL    H9924997   3.918   7.213   5.924  1.0588  0.6882  0.7297
   60MOL   H10024998   3.811   7.323   5.968  0.8451 -0.0454  0.4688
   60MOL   H10124999   3.975   7.058   6.153  0.1672  0.4755 -2.0191
   60MOL   H10225000   4.111   7.123   6.076  1.8955  0.6211  1.6053
   60MOL   H10325001   4.082   7.136   6.262 -0.1517  2.3543  1.2907
   60MOL   H10425002   4.128   7.387   6.162  0.0718  2.6502 -0.2566
   60MOL   H10525003   4.109   7.346   5.994  0.3070 -0.6523  0.2055
   60MOL   H10625004   4.011   7.473   6.059  1.5234  0.6931  1.0892
   60MOL   C10725005   3.662   7.330   6.404 -0.1208 -0.1871  0.4844
   60MOL   C10825006   3.562   7.414   6.311 -0.2790 -0.6292  1.1776
   60MOL   C10925007   3.441   7.327   6.271  0.6319  0.4100 -0.0489
   60MOL   C11025008   3.377   7.351   6.137 -0.6781  0.4363  0.3457
   60MOL   C11125009   3.267   7.246   6.113  0.1796  0.2973 -0.2197
   60MOL   C11225010   3.474   7.338   6.015 -0.6257  0.1044 -0.7984
   60MOL   C11325011   3.306   7.486   6.126  0.2376 -0.7372 -0.5210
   60MOL   H11425012   3.719   7.394   6.472 -0.9418  0.6387  0.3985
   60MOL   H11525013   3.606   7.262   6.468  0.8532 -1.3657  0.1143
   60MOL   H11625014   3.612   7.446   6.219 -2.8792 -3.2774 -1.2861
   60MOL   H11725015   3.456   7.219   6.284 -0.5126  0.5761  3.4437
   60MOL   H11825016   3.371   7.348   6.352 -2.0764 -1.1121 -1.9068
   60MOL   H11925017   3.295   7.143   6.138 -0.8379 -0.8867 -3.6931
   60MOL   H12025018   3.180   7.253   6.177 -1.2205  0.5654 -2.1262
   60MOL   H12125019   3.234   7.246   6.009 -0.7830 -2.7996  0.0259
   60MOL   H12225020   3.512   7.237   6.034 -0.8998  0.3496  1.1880
   60MOL   H12325021   3.550   7.416   6.018 -0.6563  0.0875  1.8861
   60MOL   H12425022   3.430   7.331   5.915 -1.0461  0.9287 -0.6716
   60MOL   H12525023   3.362   7.574   6.096 -2.6819  1.1589 -0.5946
   60MOL   H12625024   3.262   7.517   6.221  0.6483 -1.3453 -0.1210
   60MOL   H12725025   3.217   7.476   6.064 -0.9962  2.6922  0.5944
   60MOL   C12825026   3.509   7.535   6.397 -0.0532 -0.3168  0.5363
   60MOL   C12925027   3.608   7.654   6.413 -0.2706  0.8670  0.4405
   60MOL   C13025028   3.590   7.754   6.294  0.3017 -0.4509 -0.0692
   60MOL   C13125029   3.726   0.051   6.242  0.1060 -0.9741 -0.1134
   60MOL   C13225030   3.695   0.173   6.152 -0.6491  0.2520  0.1191
   60MOL   C13325031   3.815   7.724   6.165 -0.9698  0.1172  0.4697
   60MOL   C13425032   3.807   0.120   6.358 -0.0455  0.4845  0.4461
   60MOL   H13525033   3.471   7.498   6.492 -0.5959 -0.8940  0.0997
   60MOL   H13625034   3.419   7.569   6.346  0.3037 -2.5646 -1.7113
   60MOL   H13725035   3.708   7.611   6.403 -0.8621 -0.0731 -1.7691
   60MOL   H13825036   3.545   7.712   6.204  2.1730  0.5924 -1.5343
   60MOL   H13925037   3.524   0.070   6.322 -1.7075 -2.1815  0.3536
   60MOL   H14025038   3.780   0.227   6.112 -0.4416  0.7099  1.1626
   60MOL   H14125039   3.625   0.239   6.204  0.1153  0.9179  0.3023
   60MOL   H14225040   3.649   0.144   6.058  1.5649 -1.0821 -0.5670
   60MOL   H14325041   3.914   0.001   6.147 -1.0412  0.6656  1.3781
   60MOL   H14425042   3.772   7.688   6.071  0.3360  1.8515 -0.8414
   60MOL   H14525043   3.838   7.636   6.225 -0.1752  0.5370  0.7889
   60MOL   H14625044   3.774   0.211   6.408  1.3238  1.1659  0.1177
   60MOL   H14725045   3.826   0.052   6.442  0.8866  1.7341  1.2743
   60MOL   H14825046   3.912   0.136   6.335  0.5232 -1.1279  1.7797
   60MOL   C14925047   3.584   7.738   6.543 -0.3977 -0.5524 -0.1397
   60MOL   C15025048   3.595   7.676   6.685 -0.4649  0.5611  0.2490
   60MOL   C15125049   3.738   7.607   6.702  0.9128 -0.0162  0.0959
   60MOL   C15225050   3.781   7.532   6.830  0.5877  0.1005  0.3127
   60MOL   C15325051   3.900   7.441   6.811 -0.4351 -0.4523 -0.8227
   60MOL   C15425052   3.659   7.453   6.880  0.2931  0.1225  0.0746
   60MOL   C15525053   3.824   7.632   6.942  0.3465  0.2908  0.3968
   60MOL   H15625054   3.482   0.011   6.542  0.4026  1.6608  0.5458
   60MOL   H15725055   3.646   0.061   6.547  2.6596 -2.5630 -0.9570
   60MOL   H15825056   3.528   7.590   6.682  0.7558 -0.3663 -1.0161
   60MOL   H15925057   3.822   7.669   6.671  1.4667 -1.3187 -1.0383
   60MOL   H16025058   3.750   7.531   6.625  1.2182  1.4961 -1.3680
   60MOL   H16125059   3.993   7.489   6.778 -0.2797  0.4380  0.8733
   60MOL   H16225060   3.923   7.401   6.910 -4.0542 -2.4791 -0.7305
   60MOL   H16325061   3.899   7.348   6.755  0.2853 -0.0603 -1.5046
   60MOL   H16425062   3.672   7.416   6.981 -0.4487  1.4042  0.6523
   60MOL   H16525063   3.631   7.371   6.814  2.0906 -1.3742  1.1264
   60MOL   H16625064   3.572   7.515   6.902  0.2620 -0.3484  1.3135
   60MOL   H16725065   3.747   7.709   6.955  0.4035  0.1062  1.8824
   60MOL   H16825066   3.830   7.568   7.030  3.0326 -0.2442 -0.1163
   60MOL   H16925067   3.921   7.679   6.925  0.7175  0.3647  2.6244
   60MOL   C17025068   3.543   0.005   6.795  0.1171  0.4426 -0.6704
   60MOL   C17125069   3.403   0.084   6.773 -0.6350  0.2572 -0.0230
   60MOL   C17225070   3.384   0.187   6.884  0.5199  0.2905 -0.4113
   60MOL   C17325071   3.433   0.331   6.849 -0.4496  0.0965 -0.0213
   60MOL   C17425072   3.354   0.392   6.731  0.5264  0.4091 -0.0997
   60MOL   C17525073   3.584   0.337   6.819  0.4478 -0.3105  0.1735
   60MOL   C17625074   3.404   0.415   6.969 -0.3597 -0.9206  0.3288
   60MOL   H17725075   3.630   0.066   6.813 -0.5929  0.9614  1.0596
   60MOL   H17825076   3.524   7.720   6.890 -1.7611 -0.4508 -1.4861
   60MOL   H17925077   3.410   0.139   6.680 -3.6056  2.3584  0.9163
   60MOL   H18025078   3.279   0.192   6.914  1.2181  1.1223  1.9558
   60MOL   H18125079   3.436   0.156   6.974 -0.0516  1.1237  0.2180
   60MOL   H18225080   3.357   0.350   6.631 -0.9269 -0.0540  0.0368
   60MOL   H18325081   3.251   0.394   6.768  1.2478  3.2628  1.9480
   60MOL   H18425082   3.385   0.497   6.725  1.3136  0.0665 -2.6277
   60MOL   H18525083   3.592   0.268   6.735 -1.7605 -0.6419  0.1982
   60MOL   H18625084   3.632   0.433   6.805 -1.1826  0.5317  0.2124
   60MOL   H18725085   3.639   0.284   6.896 -0.7512 -0.3264  1.0358
   60MOL   H18825086   3.304   0.459   6.964  1.5945  3.7169 -0.5786
   60MOL   H18925087   3.419   0.351   7.056 -0.3752 -0.0817  0.9566
   60MOL   H19025088   3.479   0.493   6.976  0.3247 -1.3052 -2.1783
   60MOL   C19125089   3.273   0.004   6.755  0.5220 -0.1833  0.4471
   60MOL   C19225090   3.241   7.654   6.845  0.3172  0.7020 -0.9457
   60MOL   C19325091   3.123   7.570   6.781  0.4442 -0.1208  0.1155
   60MOL   C19425092   3.146   7.464   6.672 -1.1271  0.1338 -0.3515
   60MOL   C19525093   3.270   7.374   6.700 -0.2124  0.3523 -0.6294
   60MOL   C19625094   3.159   7.533   6.530  0.1962  0.0785  0.1183
   60MOL   C19725095   3.021   7.372   6.680 -0.5855  0.9230  0.0564
   60MOL   H19825096   3.184   0.067   6.757 -0.5733 -1.6855  0.0690
   60MOL   H19925097   3.271   7.751   6.647 -0.5628 -0.4142  0.5030
   60MOL   H20025098   3.326   7.586   6.851 -1.2221 -1.0120  3.5958
   60MOL   H20125099   3.050   7.642   6.744  0.1365 -0.4773  0.0246
   60MOL   H20225100   3.082   7.517   6.867  1.2414 -0.9252  0.0104
   60MOL   H20325101   3.368   7.416   6.676  0.8921 -0.8793  1.5293
   60MOL   H20425102   3.277   7.336   6.802  0.3056 -0.1523 -0.8486
   60MOL   H20525103   3.268   7.289   6.632  0.2325 -0.1237 -0.0587
   60MOL   H20625104   3.256   7.580   6.511 -0.5137  1.1531 -0.9466
   60MOL   H20725105   3.142   7.458   6.453  0.0982  0.3729 -0.1471
   60MOL   H20825106   3.088   7.615   6.526  0.0169 -0.0227  1.0450
   60MOL   H20925107   3.021   7.313   6.588  0.1417  0.7330  0.1771
   60MOL   H21025108   3.021   7.293   6.755 -1.9078 -0.6972 -1.5836
   60MOL   H21125109   2.924   7.420   6.692 -1.5520 -0.5281 -1.5551
   60MOL   C21225110   3.209   7.713   6.988 -0.2378 -0.0638  0.0248
   60MOL   C21325111   3.167   7.616   7.101 -0.1557  0.0541  0.9568
   60MOL   C21425112   3.125   7.678   7.238 -0.2453  0.6509 -0.2870
   60MOL   C21525113   3.014   0.024   7.241 -0.0886  0.2193 -0.6034
   60MOL   C21625114   2.956   0.040   7.382  0.2973  1.0055 -0.1869
   60MOL   C21725115   3.072   0.163   7.206  0.1895 -0.4806 -0.3650
   60MOL   C21825116   2.892   0.002   7.145 -0.2121 -0.1025  0.0412
   60MOL   H21925117   3.289   0.006   7.032  0.1881 -1.0310  0.5762
   60MOL   H22025118   3.123   0.012   6.974  0.4542  1.2183  1.5584
   60MOL   H22125119   3.077   7.564   7.068  0.7394 -1.2438  0.5137
   60MOL   H22225120   3.219   7.716   7.279 -1.0766 -0.5698  2.9067
   60MOL   H22325121   3.089   7.607   7.312 -0.8563  1.8954  0.6337
   60MOL   H22425122   2.911   7.717   7.426  1.5819  0.1018 -0.6703
   60MOL   H22525123   2.871   0.107   7.372 -0.2434  0.1257 -1.7023
   60MOL   H22625124   3.024   0.085   7.453 -0.4326 -0.5487  1.5261
   60MOL   H22725125   2.991   0.235   7.195 -1.9812 -2.3891  2.3310
   60MOL   H22825126   3.144   0.198   7.279 -0.6318  0.9586 -0.2170
   60MOL   H22925127   3.116   0.170   7.107  1.1906  0.6518  0.1489
   60MOL   H23025128   2.825   7.689   7.178 -1.5664  0.8401 -0.3911
   60MOL   H23125129   2.927   7.745   7.044  0.1658  0.1956  0.1000
   60MOL   H23225130   2.828   0.090   7.136  0.2841  0.2125 -0.5180
   60MOL   C23325131   3.291   7.508   7.127 -0.5864 -0.1901  0.1468
   60MOL   C23425132   3.254   7.361   7.186  0.0078 -0.1639 -0.1197
   60MOL   C23525133   3.162   7.282   7.097  0.2565  0.1262 -0.3407
   60MOL   C23625134   3.040   7.220   7.159 -0.0690  0.3332 -0.8048
   60MOL   C23725135   2.972   7.124   7.061 -0.4863  0.6831 -0.2751
   60MOL   C23825136   3.074   7.136   7.284  0.5001 -0.1637  0.6835
   60MOL   C23925137   2.932   7.328   7.193 -0.0171  0.1008  0.1311
   60MOL   H24025138   3.361   7.564   7.189  1.0919  0.2355 -2.0721
   60MOL   H24125139   3.337   7.491   7.030 -2.5105  1.8175 -1.1700
   60MOL   H24225140   3.215   7.386   7.285  2.6305  1.8731  0.4543
   60MOL   H24325141   3.108   7.343   7.025 -1.4441 -1.6994 -0.6596
   60MOL   H24425142   3.217   7.204   7.044  0.6591 -0.4280  0.8662
   60MOL   H24525143   3.044   7.059   7.013 -0.1018  1.8659 -1.3195
   60MOL   H24625144   2.927   7.183   6.981 -1.1355 -0.3765 -0.6982
   60MOL   H24725145   2.893   7.073   7.116 -1.1345  2.7834  0.8167
   60MOL   H24825146   3.120   7.192   7.366 -1.6404 -0.0233  1.8319
   60MOL   H24925147   2.990   7.071   7.311  0.7022 -0.1549  1.3477
   60MOL   H25025148   3.154   7.067   7.260  0.9016  0.2510  0.8090
   60MOL   H25125149   2.841   7.271   7.211  1.1799 -1.5939  0.9147
   60MOL   H25225150   2.953   7.362   7.294 -1.4901 -1.1599  0.8762
   60MOL   H25325151   2.903   7.404   7.120  0.2042  0.4481  0.3985
   60MOL   C25425152   3.392   7.285   7.222  0.1947 -0.2799 -0.4120
   60MOL   C25525153   3.436   7.288   7.372  0.1588  0.1425 -0.2604
   60MOL   C25625154   3.520   7.410   7.402 -0.0612  0.4222  0.0425
   60MOL   C25725155   3.494   7.469   7.542 -1.1704 -0.1642  0.0593
   60MOL   C25825156   3.515   7.373   7.662  0.2659  0.2579  0.0653
   60MOL   C25925157   3.347   7.531   7.544  0.5927 -0.2396 -0.3617
   60MOL   C26025158   3.600   7.584   7.562 -0.4807  0.4713 -0.4768
   60MOL   H26125159   3.474   7.313   7.157  2.6859 -2.1089  1.8332
   60MOL   H26225160   3.371   7.181   7.193 -3.4151  0.0091  0.8651
   60MOL   H26325161   3.352   7.292   7.442  0.2180 -0.6213 -0.1431
   60MOL   H26425162   3.627   7.395   7.394 -0.1234  0.2927 -0.5525
   60MOL   H26525163   3.494   7.491   7.334  0.7766  0.8094  0.1809
   60MOL   H26625164   3.446   7.289   7.662 -1.7675  1.8218  3.8106
   60MOL   H26725165   3.504   7.430   7.755 -0.8804 -2.2163  1.4780
   60MOL   H26825166   3.614   7.327   7.664  0.2054  0.1131 -0.2416
   60MOL   H26925167   3.268   7.456   7.541  0.3240 -0.1112  2.4346
   60MOL   H27025168   3.337   7.609   7.468 -0.7521  1.8765  1.9052
   60MOL   H27125169   3.327   7.571   7.644 -2.3399 -2.4471 -0.0071
   60MOL   H27225170   3.697   7.541   7.586 -0.4731 -0.0255 -1.3683
   60MOL   H27325171   3.608   7.644   7.471  1.8154 -0.5024 -0.9578
   60MOL   H27425172   3.582   7.645   7.650 -0.3387 -2.5270  1.7006
   60MOL   C27525173   3.517   7.158   7.406 -0.1418 -0.6182  0.1433
   60MOL   C27625174   3.425   7.025   7.422 -0.2470 -0.0569 -0.4610
   60MOL   C27725175   3.526   6.902   7.455  0.3815 -0.2043  0.1968
   60MOL   C27825176   3.632   6.849   7.353  0.1468 -0.5325 -0.5124
   60MOL   C27925177   3.759   6.926   7.364  0.0138  0.5601 -0.8824
   60MOL   C28025178   3.663   6.699   7.381 -0.4403 -0.6086 -0.5286
   60MOL   C28125179   3.565   6.859   7.215 -0.0286 -0.4564  0.0065
   60MOL   H28225180   3.581   7.142   7.319 -0.8995  0.8504 -0.7098
   60MOL   H28325181   3.585   7.169   7.490  0.2831  0.9914 -0.3789
   60MOL   H28425182   3.389   7.011   7.320  0.0205 -0.4294 -0.5045
   60MOL   H28525183   3.468   6.812   7.479  1.0824 -0.3531  1.3878
   60MOL   H28625184   3.580   6.929   7.546  2.5767  0.3214 -1.2187
   60MOL   H28725185   3.786   6.934   7.469  0.0225 -1.7875 -0.6672
   60MOL   H28825186   3.838   6.862   7.322 -0.9191 -1.6873  0.6735
   60MOL   H28925187   3.765   7.029   7.328  0.5480 -0.1796 -3.0322
   60MOL   H29025188   3.577   6.634   7.395 -0.0196 -1.1379 -0.3849
   60MOL   H29125189   3.712   6.692   7.478 -0.3985 -0.3635 -0.5327
   60MOL   H29225190   3.721   6.657   7.299 -0.5462 -1.2916 -0.2566
   60MOL   H29325191   3.626   6.800   7.147 -2.3133 -1.3869 -1.3244
   60MOL   H29425192   3.567   6.964   7.186  0.5904 -0.6937 -0.8510
   60MOL   H29525193   3.461   6.830   7.198  0.2956 -2.5940  1.5350
   60MOL   C29625194   3.317   7.036   7.530  0.5650  0.0614  0.1331
   60MOL   C29725195   3.236   6.910   7.577 -0.5740  1.2171  0.1103
   60MOL   C29825196   3.158   6.845   7.465  0.5054  0.1559  0.3155
   60MOL   C29925197   3.144   6.692   7.453 -0.1396  0.3257  0.2779
   60MOL   C30025198   3.046   6.662   7.336  0.4686 -0.3487 -0.0678
   60MOL   C30125199   3.281   6.641   7.428 -0.1217  1.0968  0.1335
   60MOL   C30225200   3.090   6.637   7.587 -0.1066  0.0183  0.2001
   60MOL   H30325201   3.238   7.108   7.507  0.7001  0.5364  1.1393
   60MOL   H30425202   3.373   7.073   7.615 -0.5430 -1.1232  1.3939
   60MOL   H30525203   3.301   6.841   7.631 -1.3717  0.1031 -0.3246
   60MOL   H30625204   3.199   6.872   7.367  1.2421 -3.4767 -0.4368
   60MOL   H30725205   3.061   6.893   7.476  1.7726  3.6002 -2.3738
   60MOL   H30825206   2.955   6.719   7.355  0.1795 -0.9074  0.2409
   60MOL   H30925207   3.080   6.696   7.238  0.9874  1.0132  0.5733
   60MOL   H31025208   3.018   6.557   7.325  0.6064 -0.6158  1.8983
   60MOL   H31125209   3.286   6.534   7.410  0.0864  0.4520  3.6062
   60MOL   H31225210   3.339   6.688   7.349  0.7744 -1.3881 -0.7467
   60MOL   H31325211   3.334   6.646   7.523 -0.2474  3.0121  0.1259
   60MOL   H31425212   3.056   6.535   7.570  0.2949 -0.3478  1.5350
   60MOL   H31525213   3.162   6.645   7.668  1.5591 -4.6984 -0.6449
   60MOL   H31625214   3.007   6.698   7.622 -0.5899 -0.5877  0.1232
   60MOL   C31725215   3.138   6.961   7.688  0.9929 -0.4714  0.2520
   60MOL   C31825216   3.195   7.017   0.052 -0.5356 -0.0043  0.0904
   60MOL   C31925217   3.096   7.101   0.131 -0.0406  0.2216 -0.2411
   60MOL   C32025218   3.097   7.262   0.120 -0.4146  0.1193 -0.5866
   60MOL   C32125219   3.086   7.310   7.740 -0.1993 -0.2143 -0.1792
   60MOL   C32225220   3.233   7.309   0.175  0.2980  0.4906  0.2939
   60MOL   C32325221   2.981   7.333   0.192  0.2296  0.3395 -0.3563
   60MOL   H32425222   3.069   7.030   7.640 -0.4145 -1.7062  0.4675
   60MOL   H32525223   3.078   6.876   7.720 -0.7308  0.1719 -1.1853
   60MOL   H32625224   3.277   7.081   0.019  1.0062 -1.3773  1.1252
   60MOL   H32725225   3.103   7.073   0.236 -1.6597  0.3302 -0.0912
   60MOL   H32825226   2.994   7.069   0.109  0.5699 -1.2039 -1.1164
   60MOL   H32925227   3.089   7.419   7.740 -2.1553 -0.1266  0.6187
   60MOL   H33025228   2.997   7.276   7.687  0.4489 -0.3805 -1.1588
   60MOL   H33125229   3.174   7.271   7.690 -0.8894 -0.2105 -1.4021
   60MOL   H33225230   3.324   7.272   0.128  1.7182  1.9632  1.8185
   60MOL   H33325231   3.248   7.416   0.164 -0.2800  0.6438  0.9920
   60MOL   H33425232   3.234   7.288   0.281 -0.0884  2.7581  0.7779
   60MOL   H33525233   2.888   7.289   0.156  0.2566  0.8565 -1.0710
   60MOL   H33625234   3.003   7.440   0.200  0.1067  0.3074  0.4600
   60MOL   H33725235   2.986   7.301   0.296  1.0001 -1.9846 -1.0776
   60MOL   C33825236   3.262   6.900   0.136 -0.2139  0.4264  0.4465
   60MOL   C33925237   3.404   6.923   0.205 -0.1214 -0.1018  1.3892
   60MOL   C34025238   3.411   7.018   0.331 -0.0794 -0.3775  0.0872
   60MOL   C34125239   3.421   6.958   0.477 -0.0875 -0.3103 -0.0242
   60MOL   C34225240   3.554   6.892   0.519 -0.0243  0.0091 -0.1038
   60MOL   C34325241   3.388   7.072   0.580 -0.5266 -0.1460 -0.0502
   60MOL   C34425242   3.305   6.860   0.496 -0.8467 -0.1438  0.7581
   60MOL   H34525243   3.259   6.802   0.087 -0.8856 -0.3954  2.0861
   60MOL   H34625244   3.192   6.873   0.215  1.4033 -1.2434  1.3500
   60MOL   H34725245   3.441   6.828   0.243 -1.5084 -0.8269  0.9359
   60MOL   H34825246   3.325   7.084   0.322  0.9300  0.6567 -2.4988
   60MOL   H34925247   3.493   7.089   0.321  0.4685 -0.9773  0.2223
   60MOL   H35025248   3.564   6.790   0.483 -0.7744  0.4795 -1.7019
   60MOL   H35125249   3.645   6.948   0.498  1.7124 -3.0736 -1.0597
   60MOL   H35225250   3.566   6.864   0.623  2.0359  0.6955 -0.1372
   60MOL   H35325251   3.434   7.166   0.548 -1.6393  0.1166 -0.8869
   60MOL   H35425252   3.284   7.105   0.583 -0.1743  0.9232  1.1750
   60MOL   H35525253   3.428   7.053   0.680  0.5470  1.0146 -0.2476
   60MOL   H35625254   3.213   6.913   0.470  0.1590  1.3382  0.1293
   60MOL   H35725255   3.322   6.774   0.432 -0.6025  0.9761 -0.7399
   60MOL   H35825256   3.308   6.828   0.600  0.4467 -0.7595  0.5371
   60MOL   C35925257   3.513   6.968   0.102  0.3462 -0.0133  0.0138
   60MOL   C36025258   3.661   6.926   0.130 -0.8127  0.4154 -0.6210
   60MOL   C36125259   3.753   7.024   0.041 -1.0064 -0.1684  1.0520
   60MOL   C36225260   3.857   7.122   0.093  0.1124 -0.1299  0.7814
   60MOL   C36325261   3.967   7.048   0.174 -0.4577  0.6877  0.4027
   60MOL   C36425262   3.794   7.237   0.173  0.1526  0.0675 -0.1426
   60MOL   C36525263   3.920   7.192   7.736 -0.0239 -0.1234 -0.2005
   60MOL   H36625264   3.512   7.076   0.109  0.5956  0.0231 -0.4617
   60MOL   H36725265   3.490   6.938   7.765  1.5700 -2.1787  0.3399
   60MOL   H36825266   3.678   6.935   0.237  0.6904  0.8253 -0.8770
   60MOL   H36925267   3.798   6.958   7.732  0.7886  1.1392  0.9542
   60MOL   H37025268   3.695   7.091   7.743 -0.0347  1.8539  2.2385
   60MOL   H37125269   3.925   6.982   0.250 -1.1995 -0.7956 -1.2889
   60MOL   H37225270   4.028   6.971   0.126 -0.8100 -0.7062  2.1193
   60MOL   H37325271   4.030   7.112   0.237 -0.2419 -1.3149  2.3129
   60MOL   H37425272   3.852   7.329   0.169 -1.6390  1.2128 -0.3256
   60MOL   H37525273   3.777   7.206   0.276 -1.5581  2.7825  0.4492
   60MOL   H37625274   3.692   7.253   0.137 -0.4164  0.2579  1.4668
   60MOL   H37725275   3.986   7.270   0.006 -2.0260  1.7159 -0.3842
   60MOL   H37825276   3.839   7.246   7.686  0.0327 -0.4211 -0.6122
   60MOL   H37925277   3.976   7.125   7.671  0.0585 -0.3696  0.1205
   60MOL   C38025278   3.683   6.770   0.095  0.3309 -0.0359  0.4768
   60MOL   C38125279   3.806   6.702   0.155  0.5024  0.1537 -0.1907
   60MOL   C38225280   3.856   6.580   0.072 -0.0170  0.0635  0.0180
   60MOL   C38325281   3.994   6.597   0.000 -0.0361 -0.6088 -0.4798
   60MOL   C38425282   3.996   6.715   7.661 -0.5623 -0.2214 -0.3909
   60MOL   C38525283   4.029   6.470   7.694  0.0948  0.5323  0.0764
   60MOL   C38625284   4.107   6.622   0.105  0.1639 -0.6301 -0.1931
   60MOL   H38725285   3.690   6.769   7.752 -1.4419 -0.8196  0.3446
   60MOL   H38825286   3.590   6.717   0.118 -0.3249  1.1195  0.5677
   60MOL   H38925287   3.883   6.777   0.139  0.9005 -0.2856 -0.3443
   60MOL   H39025288   3.855   6.493   0.139  1.1533  0.7495  0.9440
   60MOL   H39125289   3.780   6.556   7.763 -0.3738 -0.8631  0.6560
   60MOL   H39225290   4.094   6.716   7.613 -0.0157 -1.2108  0.6583
   60MOL   H39325291   3.904   6.729   7.605 -1.9669  1.0563  2.1294
   60MOL   H39425292   4.004   6.808   7.717 -0.5788 -1.0935  1.1105
   60MOL   H39525293   3.950   6.467   7.618  0.4543 -2.3205 -0.2163
   60MOL   H39625294   4.026   6.394   0.006  1.9736  0.2673 -0.0995
   60MOL   H39725295   4.129   6.461   7.653  0.0857  0.8507 -0.0197
   60MOL   H39825296   4.201   6.619   0.051 -0.2270  0.1021 -0.9148
   60MOL   H39925297   4.122   6.552   0.188  1.6873 -1.2527 -0.9863
   60MOL   H40025298   4.092   6.722   0.145 -4.9815 -1.5250  0.4921
   60MOL   C40125299   3.780   6.670   0.303 -0.6860  0.3365 -0.3596
   60MOL   C40225300   3.905   6.667   0.395  0.8406 -0.7510  0.8250
   60MOL   C40325301   3.872   6.672   0.544  1.3404  0.2278 -0.0093
   60MOL   C40425302   3.987   6.689   0.643  0.0263  0.4315 -0.6248
   60MOL   C40525303   4.032   6.841   0.646  0.0216 -0.1596 -0.0128
   60MOL   C40625304   4.108   6.598   0.611 -0.8618 -0.6477 -0.1381
   60MOL   C40725305   3.935   6.648   0.781  0.4073  0.4762  0.4079
   60MOL   H40825306   3.708   6.743   0.340 -0.0297  0.7676  0.0668
   60MOL   H40925307   3.726   6.575   0.316  0.7321 -0.3914  0.2917
   60MOL   H41025308   3.962   6.576   0.371  0.7131 -0.6226  0.0130
   60MOL   H41125309   3.822   6.577   0.562 -2.7774  2.0184 -1.2150
   60MOL   H41225310   3.790   6.740   0.570 -0.0731 -1.2145 -0.6121
   60MOL   H41325311   4.115   6.854   0.715  0.6495 -2.8465 -0.2044
   60MOL   H41425312   3.949   6.898   0.686 -1.6186 -1.7504 -1.0604
   60MOL   H41525313   4.050   6.870   0.542 -1.2841  0.3768 -0.0956
   60MOL   H41625314   4.088   6.491   0.618  0.1656 -0.7159  1.8407
   60MOL   H41725315   4.184   6.607   0.687 -0.8005  2.1347 -0.4756
   60MOL   H41825316   4.151   6.610   0.511 -1.4118 -0.8463 -0.4031
   60MOL   H41925317   3.847   6.706   0.809  0.1117 -0.3535  1.2295
   60MOL   H42025318   3.919   6.540   0.792  1.2553  0.5351  2.3476
   60MOL   H42125319   4.008   6.657   0.862 -0.6231 -0.4898  1.4626
   60MOL   H42225320   3.973   6.742   0.354 -1.4593  0.9098 -0.0365
   61MOL     C125321   4.619   0.953   1.107 -0.6622  0.6671  0.2976
   61MOL     C225322   4.713   0.915   0.983  0.2952  0.0053  0.7911
   61MOL     C325323   4.633   0.941   0.849  0.1929 -0.1537 -0.1951
   61MOL     C425324   4.702   1.020   0.733  0.0399  0.0573 -0.1499
   61MOL     C525325   4.832   0.959   0.693  0.8157 -0.4433 -0.2057
   61MOL     C625326   4.596   1.029   0.630 -0.4922  0.5811 -0.0959
   61MOL     C725327   4.728   1.159   0.795  0.0951 -0.2736  0.3888
   61MOL     H825328   4.680   0.931   1.194  2.8812  1.0394 -1.9899
   61MOL     H925329   4.610   1.062   1.105  2.6059  0.9744 -1.0008
   61MOL    H1025330   4.804   0.977   0.984  1.1969 -1.2608 -1.3100
   61MOL    H1125331   4.547   1.001   0.880  2.1393  1.1193  3.0927
   61MOL    H1225332   4.587   0.850   0.810 -1.0673  0.9049 -1.2227
   61MOL    H1325333   4.876   1.001   0.603 -1.7662  1.1558 -0.7860
   61MOL    H1425334   4.822   0.851   0.682 -0.0660 -0.4205  0.2648
   61MOL    H1525335   4.894   0.976   0.781  0.3627  0.4098 -0.0479
   61MOL    H1625336   4.557   0.928   0.619 -3.3778  0.9811  5.0001
   61MOL    H1725337   4.508   1.087   0.658 -0.6168  0.1763  0.3570
   61MOL    H1825338   4.640   1.062   0.535 -0.0147  2.6554  0.8186
   61MOL    H1925339   4.746   1.234   0.719 -1.2495  1.3457  1.6404
   61MOL    H2025340   4.814   1.159   0.862  0.2444  0.5799  0.1929
   61MOL    H2125341   4.638   1.187   0.850  0.7806  0.2197  1.2851
   61MOL    H2225342   4.527   0.896   1.109  1.1175 -2.2712  0.7878
   61MOL    C2325343   4.762   0.770   0.970 -0.0962 -0.2579  0.2593
   61MOL    C2425344   4.852   0.716   1.079  0.0929 -0.9090 -0.3772
   61MOL    C2525345   4.991   0.801   1.087 -0.4294 -0.3630  0.4991
   61MOL    C2625346   5.043   0.862   1.223 -0.1095 -0.0139 -0.3812
   61MOL    C2725347   5.174   0.935   1.198 -0.2001 -0.4978 -0.3950
   61MOL    C2825348   4.940   0.960   1.272 -0.3725 -0.2168  0.6674
   61MOL    C2925349   5.052   0.751   1.332 -0.4736 -0.2417 -0.4883
   61MOL    H3025350   4.676   0.703   0.967  0.9144 -1.5590 -0.8439
   61MOL    H3125351   4.805   0.756   0.871  0.2954 -1.1011  0.5441
   61MOL    H3225352   4.801   0.724   1.175 -1.9510  3.7816 -1.6742
   61MOL    H3325353   4.996   0.889   1.024 -0.5952  0.0772  1.0964
   61MOL    H3425354   5.079   0.751   1.045 -1.4023 -2.7592  1.2089
   61MOL    H3525355   5.257   0.866   1.185  0.6921  0.3943  0.4983
   61MOL    H3625356   5.172   1.005   1.115 -4.7670  0.9381  0.7607
   61MOL    H3725357   5.195   0.998   1.285  0.2759 -2.2710  0.8235
   61MOL    H3825358   4.878   1.005   1.195 -0.0806  0.8991  1.0698
   61MOL    H3925359   4.865   0.903   1.328 -0.7639 -2.7207 -2.3051
   61MOL    H4025360   4.981   1.039   1.335  1.7449 -0.6041 -0.1827
   61MOL    H4125361   5.129   0.676   1.315 -1.4995 -1.8331  1.6726
   61MOL    H4225362   4.960   0.699   1.360 -1.0798  1.2079  0.2950
   61MOL    H4325363   5.087   0.797   1.425 -0.0044  0.4229 -0.9878
   61MOL    C4425364   4.879   0.565   1.050 -0.2633  0.1546  0.3282
   61MOL    C4525365   4.759   0.466   1.079 -0.3641 -0.1253 -0.5163
   61MOL    C4625366   4.733   0.461   1.234  0.7661  0.9008  0.1846
   61MOL    C4725367   4.586   0.480   1.282  0.3266  0.1146  0.2319
   61MOL    C4825368   4.583   0.453   1.437  0.2343 -0.7337 -0.3839
   61MOL    C4925369   4.487   0.378   1.211 -1.2860  0.6721 -0.1722
   61MOL    C5025370   4.550   0.631   1.259 -0.0810 -0.3863  0.1702
   61MOL    H5125371   4.915   0.556   0.948 -2.6503  3.2464 -0.8903
   61MOL    H5225372   4.962   0.538   1.115 -0.3733 -1.4361 -0.1644
   61MOL    H5325373   4.675   0.496   1.017  1.0350  0.4313 -2.1689
   61MOL    H5425374   4.807   0.525   1.282  0.9087  0.4832  0.5250
   61MOL    H5525375   4.754   0.360   1.269 -0.1897  0.7179  0.2509
   61MOL    H5625376   4.622   0.540   1.491 -0.1858 -1.8065  1.6985
   61MOL    H5725377   4.649   0.369   1.459  0.2114 -0.5751  0.3092
   61MOL    H5825378   4.481   0.431   1.467  0.0231 -0.8160 -1.1570
   61MOL    H5925379   4.494   0.381   1.102 -0.0595 -0.7025 -0.1406
   61MOL    H6025380   4.495   0.282   1.261  2.3539  1.5511  1.1137
   61MOL    H6125381   4.383   0.405   1.231 -1.6832 -0.3221 -0.8779
   61MOL    H6225382   4.450   0.648   1.297  0.9626  3.3797  1.4048
   61MOL    H6325383   4.614   0.707   1.303 -2.8600  0.4584  2.9223
   61MOL    H6425384   4.555   0.661   1.154 -1.5143 -0.3388  0.1111
   61MOL    C6525385   4.787   0.319   1.024 -0.2604  0.6688 -0.2267
   61MOL    C6625386   4.831   0.293   0.877 -1.1461  0.2283 -0.5875
   61MOL    C6725387   4.703   0.304   0.791 -0.5746 -0.6123 -0.2158
   61MOL    C6825388   4.721   0.392   0.663  0.5629 -0.1453  1.0750
   61MOL    C6925389   4.759   0.535   0.695  0.7484  0.6020  0.3415
   61MOL    C7025390   4.829   0.331   0.567 -0.0902  0.0628  0.6948
   61MOL    C7125391   4.585   0.402   0.584 -0.9522  0.2288 -0.2415
   61MOL    H7225392   4.855   0.274   1.097 -1.9108 -0.0759  0.8738
   61MOL    H7325393   4.697   0.260   1.045 -0.2097  0.5498 -0.3478
   61MOL    H7425394   4.905   0.370   0.853 -0.4829  0.0417  0.8074
   61MOL    H7525395   4.618   0.349   0.843  2.2222  2.2952  2.0857
   61MOL    H7625396   4.666   0.207   0.760  1.1456 -0.2911 -3.5224
   61MOL    H7725397   4.696   0.584   0.770  0.0340  4.4162 -2.5995
   61MOL    H7825398   4.863   0.540   0.725  1.0146  2.2412 -0.7755
   61MOL    H7925399   4.757   0.592   0.602  0.3779 -1.0922 -0.7119
   61MOL    H8025400   4.831   0.356   0.461  1.3846 -0.6437  0.5520
   61MOL    H8125401   4.820   0.224   0.548 -1.3434  0.2242  0.3191
   61MOL    H8225402   4.925   0.345   0.615  0.3742  2.8213 -0.9129
   61MOL    H8325403   4.504   0.449   0.640  0.8194  4.0868 -0.7587
   61MOL    H8425404   4.549   0.301   0.567  2.0864 -0.9989  0.2977
   61MOL    H8525405   4.599   0.444   0.484 -0.1973 -0.0686 -0.2635
   61MOL    C8625406   4.893   0.154   0.852 -0.7433  0.4095 -0.2042
   61MOL    C8725407   5.015   0.105   0.933 -0.5525 -0.4161 -0.3899
   61MOL    C8825408   5.153   0.163   0.875 -0.1641  0.4857  0.4206
   61MOL    C8925409   5.253   0.230   0.967 -0.0692 -0.0142 -0.1559
   61MOL    C9025410   5.379   0.273   0.887  0.8217  0.5593  0.4891
   61MOL    C9125411   5.294   0.132   1.078  0.2111  0.0708 -0.2876
   61MOL    C9225412   5.183   0.355   1.031  0.3056  0.2170 -0.2006
   61MOL    H9325413   4.924   0.149   0.748 -0.5975  2.4847 -0.2873
   61MOL    H9425414   4.818   0.077   0.868 -0.1877 -0.6987 -2.7212
   61MOL    H9525415   5.008   0.130   1.038  0.3325 -3.6297  0.4964
   61MOL    H9625416   5.119   0.233   0.799 -1.8375 -1.1303 -0.3535
   61MOL    H9725417   5.210   0.090   0.817  0.4237  1.0891  0.2375
   61MOL    H9825418   5.433   0.180   0.864 -1.3260 -0.6986  0.3970
   61MOL    H9925419   5.449   0.342   0.936  1.5632  0.2476 -0.1170
   61MOL   H10025420   5.346   0.334   0.803 -0.6116 -0.4439  0.3090
   61MOL   H10125421   5.212   0.113   1.146 -0.6864 -2.3278 -1.9859
   61MOL   H10225422   5.321   0.037   1.032  2.8948  0.4545  0.3941
   61MOL   H10325423   5.378   0.171   1.136 -0.6807 -1.7307  2.2797
   61MOL   H10425424   5.246   0.398   1.110  1.4528  0.9628 -1.4918
   61MOL   H10525425   5.169   0.441   0.965 -0.8980  0.5978  0.5332
   61MOL   H10625426   5.085   0.319   1.063  1.3086 -2.9035 -0.4798
   61MOL   C10725427   5.020   7.723   0.932 -0.3362  0.2605 -0.2641
   61MOL   C10825428   4.934   7.653   1.038  0.3743  0.0964  0.1280
   61MOL   C10925429   4.922   7.503   0.998 -0.5403  0.5530 -0.0123
   61MOL   C11025430   4.817   7.443   0.903  0.4879  1.0721  0.9220
   61MOL   C11125431   4.827   7.500   0.764 -0.6747  0.1166 -0.1549
   61MOL   C11225432   4.683   7.474   0.952  0.5843 -0.2075 -0.1577
   61MOL   C11325433   4.826   7.291   0.888 -0.0269  0.1341  0.5466
   61MOL   H11425434   5.121   7.685   0.949 -0.1323  0.7100 -0.4615
   61MOL   H11525435   5.010   7.693   0.827  0.3812 -1.4019  0.1222
   61MOL   H11625436   4.835   7.700   1.043  0.3528 -0.0279  0.8676
   61MOL   H11725437   5.023   7.475   0.967 -0.3872  0.3248  0.6869
   61MOL   H11825438   4.923   7.444   1.089 -0.4931  0.1087 -0.2989
   61MOL   H11925439   4.808   7.606   0.782  0.8779  0.3819  0.0242
   61MOL   H12025440   4.926   7.478   0.723 -0.2940  0.3117  0.6570
   61MOL   H12125441   4.744   7.469   0.700 -2.2126  1.6113  1.0705
   61MOL   H12225442   4.674   7.581   0.932 -0.1095 -0.5557 -1.8389
   61MOL   H12325443   4.678   7.447   1.057 -1.3638  1.2722  0.1634
   61MOL   H12425444   4.612   7.418   0.891  0.8492 -2.0974  1.2367
   61MOL   H12525445   4.929   7.258   0.871 -0.6510 -2.1182  1.0177
   61MOL   H12625446   4.762   7.256   0.807  0.7232 -0.6918  0.3039
   61MOL   H12725447   4.789   7.257   0.984 -0.6516  0.5505  0.4539
   61MOL   C12825448   4.986   7.660   1.186 -0.2689  0.6931  0.4547
   61MOL   C12925449   4.901   7.600   1.299  0.0432  0.1543 -0.8392
   61MOL   C13025450   4.971   7.567   1.441  0.0397 -0.4170 -0.1919
   61MOL   C13125451   5.031   7.428   1.466  0.9824  0.3331  0.4492
   61MOL   C13225452   4.920   7.328   1.484  0.2515  0.4469 -0.0386
   61MOL   C13325453   5.121   7.425   1.591  0.3794  0.2026  0.6530
   61MOL   C13425454   5.110   7.379   1.349  0.3497  0.5031  0.6412
   61MOL   H13525455   4.999   7.764   1.215  2.9276 -0.1989  2.5410
   61MOL   H13625456   5.082   7.609   1.192 -0.6453 -0.0274  0.3982
   61MOL   H13725457   4.839   7.516   1.267  1.1205 -0.9912  0.0474
   61MOL   H13825458   5.058   7.632   1.451  0.0440 -0.6109  1.1948
   61MOL   H13925459   4.902   7.596   1.520 -0.8582 -1.2631 -0.6512
   61MOL   H14025460   4.853   7.337   1.398 -0.5664  0.6555  0.6077
   61MOL   H14125461   4.858   7.361   1.568 -2.4613 -1.7684 -1.1034
   61MOL   H14225462   4.958   7.227   1.500  0.3637  0.2670 -1.3977
   61MOL   H14325463   5.142   7.323   1.625  1.2710  0.4722  0.9193
   61MOL   H14425464   5.080   7.469   1.682  0.3776  0.4311  0.5405
   61MOL   H14525465   5.208   7.489   1.589  0.4056  0.1394 -2.5328
   61MOL   H14625466   5.172   7.458   1.306  0.2928  1.1013  1.6109
   61MOL   H14725467   5.169   7.290   1.369  1.6223  0.8717 -1.3397
   61MOL   H14825468   5.050   7.339   1.268  0.1371  2.4341 -0.1741
   61MOL   C14925469   4.791   7.707   1.319 -0.4697 -0.2305  0.1476
   61MOL   C15025470   4.655   7.653   1.378  0.1180 -0.6037 -0.1514
   61MOL   C15125471   4.568   0.001   1.456 -0.3807 -0.4384  0.1751
   61MOL   C15225472   4.574   0.030   1.612 -0.1840  0.5208  0.3390
   61MOL   C15325473   4.536   7.666   1.692  0.2663 -0.0421  0.2951
   61MOL   C15425474   4.482   0.149   1.655 -0.0716 -0.1042 -0.3172
   61MOL   C15525475   4.722   0.078   1.640  0.0886  0.4210  0.4484
   61MOL   H15625476   4.766   7.752   1.223 -1.0839 -2.1974 -0.6442
   61MOL   H15725477   4.823   0.014   1.393 -1.1112  1.2950 -1.0541
   61MOL   H15825478   4.675   7.571   1.447 -0.3281  0.7599  1.6500
   61MOL   H15925479   4.463   7.739   1.453 -0.4911  0.0011 -0.1191
   61MOL   H16025480   4.584   0.097   1.407 -2.4162 -0.2283 -0.0960
   61MOL   H16125481   4.437   7.634   1.658  0.1297 -0.0623  0.7055
   61MOL   H16225482   4.597   7.576   1.694 -2.6510 -2.0864  0.6566
   61MOL   H16325483   4.533   7.688   1.799 -0.9898  0.3576  0.1849
   61MOL   H16425484   4.378   0.135   1.623 -0.1782 -0.5251  0.2263
   61MOL   H16525485   4.511   0.238   1.599 -0.3634  0.6860  0.7621
   61MOL   H16625486   4.485   0.180   1.759  1.5126  0.5258 -0.5343
   61MOL   H16725487   4.795   7.763   1.634 -1.8052 -1.3494  0.2797
   61MOL   H16825488   4.761   0.159   1.578 -0.3477 -0.8119 -1.4870
   61MOL   H16925489   4.743   0.096   1.745 -2.4831  0.2334  1.0260
   61MOL   C17025490   4.558   7.616   1.270  0.7834  0.6552 -0.1016
   61MOL   C17125491   4.462   7.497   1.301 -0.0994 -0.8055 -0.4612
   61MOL   C17225492   4.538   7.365   1.300 -0.2905  0.0380 -0.5613
   61MOL   C17325493   4.477   7.254   1.396  0.5198 -0.3594 -0.3185
   61MOL   C17425494   4.338   7.199   1.355 -0.1208 -0.1755  0.5489
   61MOL   C17525495   4.477   7.291   1.550  0.0466 -0.2689  0.5090
   61MOL   C17625496   4.573   7.129   1.385 -0.2528  0.1458  0.7655
   61MOL   H17725497   4.615   7.590   1.181  1.2225 -4.8129  1.5711
   61MOL   H17825498   4.498   7.701   1.240  1.1268  0.9933  0.1644
   61MOL   H17925499   4.404   7.501   1.393 -2.6331 -1.6238 -1.9970
   61MOL   H18025500   4.531   7.334   1.196 -0.3333 -0.5066 -0.3964
   61MOL   H18125501   4.645   7.376   1.315 -0.1539  0.4298 -1.8187
   61MOL   H18225502   4.327   7.106   1.411  1.5826 -0.5129  0.3519
   61MOL   H18325503   4.258   7.268   1.381 -0.3220 -0.9950  2.2006
   61MOL   H18425504   4.329   7.170   1.250 -2.8199 -0.7988  0.9299
   61MOL   H18525505   4.580   7.317   1.573 -0.3953  0.6357  1.4698
   61MOL   H18625506   4.410   7.364   1.596  1.6478  0.5029  1.6492
   61MOL   H18725507   4.470   7.196   1.604 -1.4571 -0.5365 -0.1212
   61MOL   H18825508   4.551   7.082   1.289  0.0284 -0.6886  1.1002
   61MOL   H18925509   4.675   7.166   1.379 -0.0035 -0.6355  0.0020
   61MOL   H19025510   4.573   7.056   1.466  2.1791  1.4170  1.9728
   61MOL   C19125511   4.353   7.493   1.185  0.2554 -0.5571 -0.3543
   61MOL   C19225512   4.229   7.588   1.200 -0.0425 -0.2320 -0.3261
   61MOL   C19325513   4.136   7.553   1.314 -0.0496 -0.0735 -0.7447
   61MOL   C19425514   4.060   7.674   1.391 -0.1185  1.0987  0.0307
   61MOL   C19525515   3.962   7.757   1.306 -0.3640 -0.3360  0.0436
   61MOL   C19625516   4.168   7.761   1.462  0.2729  0.3726  0.7489
   61MOL   C19725517   3.968   7.601   1.496  0.6068 -0.4676 -1.0603
   61MOL   H19825518   4.395   7.513   1.087 -1.1855 -1.3662 -1.1581
   61MOL   H19925519   4.313   7.391   1.180  1.1340 -1.1124  2.8078
   61MOL   H20025520   4.262   7.692   1.202  2.1583 -0.8935 -0.2984
   61MOL   H20125521   4.189   7.501   1.393 -0.1825  0.8758 -0.0279
   61MOL   H20225522   4.060   7.481   1.284  0.0722 -0.2086 -0.7242
   61MOL   H20325523   4.022   0.057   1.242  0.8167  0.1117  1.5676
   61MOL   H20425524   3.905   7.697   1.235 -0.8903 -0.4283  0.5411
   61MOL   H20525525   3.900   0.059   1.364  0.8093  0.9912 -0.2295
   61MOL   H20625526   4.245   0.028   1.393 -0.6762  0.7145 -0.1701
   61MOL   H20725527   4.126   0.091   1.494 -0.6683  0.3319 -0.3327
   61MOL   H20825528   4.226   7.703   1.534  1.2393  0.5983  0.1566
   61MOL   H20925529   3.884   7.559   1.440  0.9012 -0.8405 -1.2235
   61MOL   H21025530   4.018   7.525   1.555 -0.5107  0.6370  1.3625
   61MOL   H21125531   3.937   7.676   1.568  1.4192 -1.6131  0.5182
   61MOL   C21225532   4.145   7.581   1.066  0.2615 -0.7558  0.0899
   61MOL   C21325533   4.203   7.655   0.944  0.1698  0.4951  0.1260
   61MOL   C21425534   4.201   0.040   0.962 -0.2291 -0.5173 -0.3126
   61MOL   C21525535   4.335   0.115   0.916  0.3222 -0.0227  0.5786
   61MOL   C21625536   4.300   0.264   0.930  0.0451  0.4038 -0.0400
   61MOL   C21725537   4.453   0.068   0.997 -0.8286 -0.5149  0.1990
   61MOL   C21825538   4.369   0.100   0.766 -0.1620  0.4541  0.2788
   61MOL   H21925539   4.121   7.475   1.055 -1.6174 -0.3165 -0.3825
   61MOL   H22025540   4.049   7.631   1.084  0.1469 -1.5113  1.6237
   61MOL   H22125541   4.307   7.626   0.928 -0.1529  0.5059 -2.2145
   61MOL   H22225542   4.178   0.066   1.065  0.3523  1.2065 -0.6049
   61MOL   H22325543   4.105   0.075   0.924  0.3019  1.1602 -0.1306
   61MOL   H22425544   4.281   0.304   1.030 -0.5732 -1.8767  0.7831
   61MOL   H22525545   4.211   0.287   0.871 -0.6420 -1.5889  0.1987
   61MOL   H22625546   4.376   0.330   0.888 -1.5007  2.3356  0.1187
   61MOL   H22725547   4.539   0.128   0.967 -0.1912 -2.3981 -1.9523
   61MOL   H22825548   4.434   0.074   1.104  3.4068  2.6708  0.9051
   61MOL   H22925549   4.489   7.738   0.958 -0.2611 -0.0188 -0.5292
   61MOL   H23025550   4.279   0.112   0.706  0.7526 -0.6363 -1.3494
   61MOL   H23125551   4.411   0.001   0.749  0.2689  1.0089 -2.0214
   61MOL   H23225552   4.439   0.178   0.738  0.7652 -0.8503 -1.1279
   61MOL   C23325553   4.130   7.627   0.808 -0.6359 -0.2078  0.3443
   61MOL   C23425554   4.149   7.484   0.750  0.4570 -0.1633 -0.1914
   61MOL   C23525555   4.043   7.447   0.645 -0.9508 -0.3926  0.6015
   61MOL   C23625556   3.936   7.340   0.678 -0.4873  0.0841 -0.3289
   61MOL   C23725557   3.835   7.397   0.778 -0.3503  0.6900  0.0919
   61MOL   C23825558   3.853   7.296   0.554  0.2268 -0.1536 -0.6531
   61MOL   C23925559   3.993   7.208   0.733  0.0253  0.1459 -0.2527
   61MOL   H24025560   4.162   7.703   0.736 -3.3274  0.2959 -0.3685
   61MOL   H24125561   4.026   7.645   0.834 -0.3320 -0.0571  1.4837
   61MOL   H24225562   4.143   7.405   0.825 -2.4526  0.5461  0.3674
   61MOL   H24325563   3.984   7.533   0.614 -0.9157 -0.8110 -0.6880
   61MOL   H24425564   4.086   7.415   0.550  0.7627  0.6093  1.0277
   61MOL   H24525565   3.788   7.493   0.753 -0.6189  0.1906 -1.3478
   61MOL   H24625566   3.878   7.420   0.875  1.3441  1.4042 -0.8135
   61MOL   H24725567   3.760   7.321   0.801 -0.1974  0.7576  0.8254
   61MOL   H24825568   3.752   7.266   0.580 -1.1806  1.9139 -3.4099
   61MOL   H24925569   3.824   7.375   0.485  0.7482 -0.3752 -1.1340
   61MOL   H25025570   3.899   7.213   0.501 -0.9615 -1.5094  0.4197
   61MOL   H25125571   4.008   7.209   0.841  0.5329 -2.2811 -0.2656
   61MOL   H25225572   3.939   7.120   0.699 -0.6484 -0.0534  1.2856
   61MOL   H25325573   4.089   7.186   0.685 -1.0078 -0.0698 -2.2907
   61MOL   C25425574   4.293   7.488   0.694 -0.8558  0.1450 -0.3723
   61MOL   C25525575   4.353   7.355   0.634 -0.4487  0.0356 -0.6116
   61MOL   C25625576   4.373   7.244   0.739  0.0770 -0.5360 -0.4035
   61MOL   C25725577   4.398   7.087   0.698 -0.6799 -0.7329 -0.5321
   61MOL   C25825578   4.548   7.049   0.714  0.3513  0.0676 -0.4941
   61MOL   C25925579   4.355   7.047   0.561 -0.0151 -0.1370 -0.2557
   61MOL   C26025580   4.337   6.998   0.808  0.1866 -0.9340  0.8191
   61MOL   H26125581   4.371   7.513   0.766  0.2908  0.9173 -1.8505
   61MOL   H26225582   4.301   7.561   0.613 -1.4784  0.6253 -0.0083
   61MOL   H26325583   4.281   7.309   0.566  1.0361 -1.2235 -1.3448
   61MOL   H26425584   4.453   7.279   0.805 -2.0678  1.0360  1.4717
   61MOL   H26525585   4.294   7.245   0.815  1.3568  1.6732  0.9560
   61MOL   H26625586   4.610   7.093   0.636  1.7794 -0.8321  0.1110
   61MOL   H26725587   4.563   6.943   0.696  0.5676 -0.1252  0.7705
   61MOL   H26825588   4.598   7.082   0.805  0.6494 -1.9986  0.1156
   61MOL   H26925589   4.253   7.076   0.536 -0.5573 -1.6127  0.1836
   61MOL   H27025590   4.362   6.939   0.549 -0.2867 -0.2294  0.3704
   61MOL   H27125591   4.415   7.095   0.483  0.8743 -0.1000  0.4421
   61MOL   H27225592   4.338   6.893   0.779  3.1665 -0.1696 -2.1325
   61MOL   H27325593   4.382   6.999   0.907  0.8081  0.6201  0.5402
   61MOL   H27425594   4.231   7.016   0.826  0.4711 -1.4138  3.0549
   61MOL   C27525595   4.481   7.385   0.551  0.2800  0.3695  0.0716
   61MOL   C27625596   4.463   7.465   0.424  0.2819 -0.0196 -0.0630
   61MOL   C27725597   4.598   7.513   0.369 -0.4825 -0.1717 -0.2025
   61MOL   C27825598   4.621   7.668   0.402  0.5355 -0.0144  0.9191
   61MOL   C27925599   4.528   7.766   0.318 -0.4133 -0.1235  0.6462
   61MOL   C28025600   4.609   7.713   0.549  0.2290  0.0102 -0.1785
   61MOL   C28125601   4.771   7.693   0.354  0.0961 -0.5857 -0.1045
   61MOL   H28225602   4.552   7.437   0.616  2.5001  0.9752 -2.7429
   61MOL   H28325603   4.531   7.289   0.533 -0.3654 -0.0142  0.3243
   61MOL   H28425604   4.407   7.557   0.443 -1.1132 -0.5649 -1.3842
   61MOL   H28525605   4.610   7.489   0.264 -2.0735  0.2134 -0.4830
   61MOL   H28625606   4.678   7.459   0.420 -1.7485 -1.6396  0.2780
   61MOL   H28725607   4.551   0.106   0.329  1.6773 -0.7227  2.2580
   61MOL   H28825608   4.510   7.748   0.212 -1.0616  0.1797  0.7024
   61MOL   H28925609   4.427   7.755   0.356 -0.0523 -2.9437  0.9045
   61MOL   H29025610   4.612   0.055   0.540 -0.1281 -0.0010 -0.4663
   61MOL   H29125611   4.675   7.667   0.623 -0.3537  0.4122  0.5928
   61MOL   H29225612   4.507   7.690   0.579  0.5826 -1.6513 -0.1979
   61MOL   H29325613   4.839   7.613   0.382 -0.9558 -0.9256  1.5588
   61MOL   H29425614   4.806   0.027   0.381 -0.0366 -0.3000 -0.9742
   61MOL   H29525615   4.767   7.700   0.245 -1.5797  0.3935 -0.0001
   61MOL   C29625616   4.392   7.384   0.312  0.1327 -0.2669  0.1452
   61MOL   C29725617   4.298   7.463   0.212  0.6395  0.2732 -0.3275
   61MOL   C29825618   4.172   7.518   0.286  0.0524 -0.2147 -0.7020
   61MOL   C29925619   4.086   7.639   0.234 -0.3070 -0.2051  0.0774
   61MOL   C30025620   3.955   7.653   0.304  0.2741  0.2925  0.6310
   61MOL   C30125621   4.160   7.766   0.257 -0.4384  0.1058  0.4661
   61MOL   C30225622   4.058   7.614   0.086 -0.0207 -0.4656  0.5499
   61MOL   H30325623   4.340   7.296   0.350  2.2529 -2.3235 -1.5509
   61MOL   H30425624   4.460   7.323   0.253 -1.3563 -0.8304 -1.0364
   61MOL   H30525625   4.349   7.553   0.176 -0.6755  2.2401  2.4731
   61MOL   H30625626   4.207   7.560   0.381 -0.7337 -0.7686 -0.1566
   61MOL   H30725627   4.097   7.440   0.301 -0.5815  0.8102  1.9349
   61MOL   H30825628   3.879   7.720   0.264 -0.6411 -1.1249 -0.0352
   61MOL   H30925629   3.910   7.557   0.329  0.0148  0.2887  0.1508
   61MOL   H31025630   3.977   7.707   0.396 -1.2042 -1.8010  2.2407
   61MOL   H31125631   4.165   0.018   0.364  0.7005  1.3328  0.2112
   61MOL   H31225632   4.262   7.763   0.219 -0.3365 -0.2274  0.7581
   61MOL   H31325633   4.110   0.083   0.207 -0.9418 -1.1739 -1.1938
   61MOL   H31425634   3.986   7.688   0.051  1.3329  1.4556  1.7595
   61MOL   H31525635   4.142   7.614   0.016  0.5208 -3.2848  1.1298
   61MOL   H31625636   4.006   7.518   0.080  0.5004 -0.6820 -0.8499
   61MOL   C31725637   4.267   7.372   0.095  1.1060  0.4485  0.2846
   61MOL   C31825638   4.374   7.364   7.751  0.0437 -0.0767  0.0674
   61MOL   C31925639   4.381   7.225   7.687  0.1310  0.6658 -0.1931
   61MOL   C32025640   4.426   7.092   7.752 -1.7761 -0.0227  0.1845
   61MOL   C32125641   4.330   7.042   0.092  0.2990 -0.1037  0.0092
   61MOL   C32225642   4.558   7.106   0.056 -0.0401 -0.4384  0.7553
   61MOL   C32325643   4.436   6.993   7.634 -0.4668  0.4160  1.2384
   61MOL   H32425644   4.240   7.271   0.123  0.9257  0.0968 -1.0840
   61MOL   H32525645   4.186   7.403   0.028  1.1704  1.2360  0.5646
   61MOL   H32625646   4.469   7.378   0.036  0.0204 -0.6614  0.2832
   61MOL   H32725647   4.426   7.229   7.588  2.0797 -1.1018  0.5786
   61MOL   H32825648   4.282   7.196   7.651  1.1787 -0.9694 -1.8542
   61MOL   H32925649   4.228   7.055   0.054  0.3818  0.3081 -0.0694
   61MOL   H33025650   4.339   7.098   0.184 -0.6193 -0.0445  0.0757
   61MOL   H33125651   4.349   6.935   0.103 -1.1299 -0.7371 -2.9073
   61MOL   H33225652   4.631   7.144   7.750 -1.7304 -1.3489 -1.5237
   61MOL   H33325653   4.554   7.171   0.143  0.0343 -0.8523  1.0692
   61MOL   H33425654   4.586   7.009   0.095  0.2005 -1.1562 -1.1471
   61MOL   H33525655   4.343   6.994   7.579  0.6633 -0.0931 -0.7213
   61MOL   H33625656   4.463   6.898   7.680 -0.8028 -0.3933 -0.2434
   61MOL   H33725657   4.518   7.022   7.568 -1.5457 -1.2089 -0.8754
   61MOL   C33825658   4.367   7.477   7.653  0.3772 -0.3906 -0.2962
   61MOL   C33925659   4.497   7.503   7.559  0.7476  0.1885 -0.4625
   61MOL   C34025660   4.612   7.557   7.645  0.4505  0.0562  0.6842
   61MOL   C34125661   4.758   7.522   7.608 -0.4575  0.6045 -0.5052
   61MOL   C34225662   4.843   7.583   7.717 -0.4619  0.0291 -0.1780
   61MOL   C34325663   4.776   7.368   7.610  0.7467  0.3067 -0.2518
   61MOL   C34425664   4.796   7.584   7.468 -0.6768 -0.3633 -0.2914
   61MOL   H34525665   4.360   7.572   7.704  0.0837 -1.2360  1.2620
   61MOL   H34625666   4.277   7.465   7.593  0.5250 -0.7064 -0.4638
   61MOL   H34725667   4.519   7.410   7.507  2.2536 -0.5113  1.3714
   61MOL   H34825668   4.597   7.525   7.748 -1.1335  0.3969  0.5636
   61MOL   H34925669   4.613   7.665   7.632  0.1418 -0.1252 -1.0383
   61MOL   H35025670   4.941   7.540   7.693 -1.6270 -3.4038  0.8799
   61MOL   H35125671   4.833   7.690   7.699 -5.0109 -0.2968 -0.1653
   61MOL   H35225672   4.824   7.559   0.056  0.2595 -1.3641 -0.3518
   61MOL   H35325673   4.872   7.328   7.578  0.6498  0.1005 -0.2808
   61MOL   H35425674   4.773   7.329   7.712  0.9581  0.0221 -0.3538
   61MOL   H35525675   4.704   7.316   7.547  1.4371  0.0804 -0.8633
   61MOL   H35625676   4.741   7.536   7.387 -0.7559 -0.0082 -0.4485
   61MOL   H35725677   4.803   7.691   7.449  1.8068 -0.5355 -0.5186
   61MOL   H35825678   4.899   7.551   7.453  0.7907  3.3081  1.1233
   61MOL   C35925679   4.466   7.602   7.437 -0.0313  0.2366  0.3206
   61MOL   C36025680   4.363   7.557   7.327  0.5049 -0.5615  0.6149
   61MOL   C36125681   4.404   7.428   7.250 -0.7389 -0.3795  0.1528
   61MOL   C36225682   4.294   7.326   7.226 -0.4418  0.5915  0.2540
   61MOL   C36325683   4.346   7.224   7.130 -0.1962  0.5558  0.0788
   61MOL   C36425684   4.174   7.394   7.153  0.1134  0.0213 -0.1731
   61MOL   C36525685   4.243   7.251   7.356 -0.2481 -0.7446  0.1506
   61MOL   H36625686   4.561   7.635   7.395 -0.8766  0.6802 -1.2883
   61MOL   H36725687   4.432   7.692   7.488  1.0081 -0.2816  1.9623
   61MOL   H36825688   4.270   7.542   7.382 -0.0836  0.5884 -0.0483
   61MOL   H36925689   4.442   7.469   7.156  1.6696  1.5790  1.9029
   61MOL   H37025690   4.498   7.393   7.292 -0.2770  1.0569  0.3558
   61MOL   H37125691   4.370   7.268   7.033 -0.9106  0.5226 -0.1183
   61MOL   H37225692   4.434   7.171   7.167 -0.6911 -0.6736 -0.4800
   61MOL   H37325693   4.277   7.141   7.113 -1.4985  1.6868 -0.2882
   61MOL   H37425694   4.207   7.452   7.067  0.6348 -0.2854 -0.1830
   61MOL   H37525695   4.112   7.460   7.213  0.8650  0.6084 -0.0262
   61MOL   H37625696   4.106   7.327   7.102  0.7688 -1.1720  0.5133
   61MOL   H37725697   4.315   7.181   7.399  2.2913  1.3298 -0.6165
   61MOL   H37825698   4.155   7.189   7.339 -2.8387  2.3857  1.6180
   61MOL   H37925699   4.220   7.314   7.441 -0.9297 -0.5081 -0.2018
   61MOL   C38025700   4.341   7.675   7.233  0.9346 -0.6157  0.4353
   61MOL   C38125701   4.241   0.021   7.289  0.5316  0.2846  0.4159
   61MOL   C38225702   4.095   0.009   7.247  0.5481 -0.4705 -0.1358
   61MOL   C38325703   3.987   7.765   7.355 -0.3844  0.3656  0.1744
   61MOL   C38425704   3.853   7.762   7.278 -0.4567  0.3023  0.2336
   61MOL   C38525705   3.989   0.126   7.443 -0.7177 -0.7026  0.1903
   61MOL   C38625706   3.994   7.645   7.453  0.3104 -0.1729 -0.1391
   61MOL   H38725707   4.294   7.631   7.145  0.8175 -2.8649  1.5897
   61MOL   H38825708   4.431   7.719   7.192  0.7155 -0.6259 -0.0552
   61MOL   H38925709   4.241   0.010   7.398 -1.1092  0.9177  0.4925
   61MOL   H39025710   4.070   0.082   7.170  2.5579 -0.9943 -1.3324
   61MOL   H39125711   4.078   7.685   7.187  1.0421 -0.4437 -0.3237
   61MOL   H39225712   3.831   7.667   7.228  0.2230 -0.0093  0.5289
   61MOL   H39325713   3.765   0.024   7.337  0.1503  0.1584  1.2135
   61MOL   H39425714   3.850   0.056   7.187 -0.8812 -0.6178 -0.3741
   61MOL   H39525715   3.960   0.218   7.393 -1.1202  0.4024  2.3844
   61MOL   H39625716   4.083   0.139   7.497 -0.3570  2.2008 -1.0489
   61MOL   H39725717   3.911   0.107   7.518 -0.2923  1.2554  1.1434
   61MOL   H39825718   4.017   7.550   7.404  1.0315 -0.5917  0.9814
   61MOL   H39925719   3.897   7.641   7.503 -0.5980  1.4082 -1.7031
   61MOL   H40025720   4.073   7.671   7.523  0.8268 -0.1322 -0.7366
   61MOL   C40125721   4.277   0.170   7.261 -0.1141  0.0957  0.3108
   61MOL   C40225722   4.388   0.224   7.355  0.2448  0.3103  1.2278
   61MOL   C40325723   4.352   0.248   7.503  0.1961  0.5817  0.1695
   61MOL   C40425724   4.467   0.326   7.573  0.4130  0.4558  0.3446
   61MOL   C40525725   4.443   0.305   7.721  0.4311 -0.7344  0.1218
   61MOL   C40625726   4.453   0.469   7.531 -0.2984  0.0130  0.7128
   61MOL   C40725727   4.615   0.276   7.559  0.3011 -1.2258 -0.2989
   61MOL   H40825728   4.317   0.189   7.161 -0.0431 -0.5932  0.2029
   61MOL   H40925729   4.193   0.239   7.269  1.6369  2.4073 -0.5065
   61MOL   H41025730   4.483   0.171   7.346 -0.2000 -0.4922  1.1884
   61MOL   H41125731   4.338   0.162   7.568  1.5190  1.3435  1.4921
   61MOL   H41225732   4.256   0.298   7.515 -2.1758 -3.7406  0.1788
   61MOL   H41325733   4.498   0.378   0.013 -2.2794  1.1878  0.3938
   61MOL   H41425734   4.461   0.203   7.756 -1.0549 -1.9390 -2.4930
   61MOL   H41525735   4.338   0.322   7.746  0.6749  1.3263 -0.1880
   61MOL   H41625736   4.518   0.536   7.586 -0.6105  0.9964 -0.1029
   61MOL   H41725737   4.355   0.516   7.532  1.0844  2.9603  1.1450
   61MOL   H41825738   4.491   0.490   7.431 -1.9285  2.4698  0.5596
   61MOL   H41925739   4.632   0.175   7.595  0.4487 -0.7383  1.0189
   61MOL   H42025740   4.662   0.283   7.461  0.4543  0.6847 -0.1070
   61MOL   H42125741   4.676   0.342   7.621  0.7713 -0.4725 -1.5533
   61MOL   H42225742   4.408   0.319   7.306  0.0517 -0.4300 -0.3249
   62MOL     C125743   2.153   2.562   0.355  0.2662  0.0288  0.3275
   62MOL     C225744   2.064   2.656   0.273  0.6710 -0.2259  0.7646
   62MOL     C325745   2.134   2.797   0.245 -0.1577  0.6893 -0.6093
   62MOL     C425746   2.179   2.824   0.096  0.4601  0.0621 -0.3472
   62MOL     C525747   2.289   2.731   0.045 -0.4329  0.1422  0.3697
   62MOL     C625748   2.053   2.838   0.005 -0.8991  0.0037 -0.0610
   62MOL     C725749   2.245   2.965   0.106  0.1380  0.8429 -0.2982
   62MOL     H825750   2.101   2.478   0.400 -1.2535  0.9509  0.3348
   62MOL     H925751   2.237   2.533   0.292 -0.0974 -0.1565 -0.0834
   62MOL    H1025752   2.032   2.601   0.185 -3.0937 -2.3687  3.3218
   62MOL    H1125753   2.216   2.812   0.315 -0.1558  0.3175 -0.5322
   62MOL    H1225754   2.055   2.866   0.276 -0.2415  0.0910  0.5205
   62MOL    H1325755   2.271   2.625   0.065  0.1145 -0.3569 -1.7288
   62MOL    H1425756   2.386   2.756   0.090  0.1540 -0.3671 -0.6071
   62MOL    H1525757   2.302   2.753   7.705  1.3856 -1.2567  0.2554
   62MOL    H1625758   1.978   2.902   0.051 -0.1412  0.6690  0.2776
   62MOL    H1725759   2.084   2.878   7.674  0.1809 -0.8554 -0.0844
   62MOL    H1825760   2.000   2.743   7.761  0.1155 -0.5964  0.1632
   62MOL    H1925761   2.278   2.990   0.005  0.9603  0.5576 -0.1098
   62MOL    H2025762   2.340   2.963   0.160  0.6996  1.9858 -1.2078
   62MOL    H2125763   2.171   3.039   0.136 -1.0617 -1.2159  2.0092
   62MOL    H2225764   2.187   2.615   0.444  3.1684 -1.9405  0.4367
   62MOL    C2325765   1.949   2.679   0.376 -0.1035 -0.4214  0.5994
   62MOL    C2425766   1.817   2.741   0.324  0.4986  0.2534  0.3310
   62MOL    C2525767   1.744   2.796   0.450 -0.0698 -0.6935 -0.3284
   62MOL    C2625768   1.737   2.950   0.464 -0.4191  0.3538  0.5265
   62MOL    C2725769   1.661   3.019   0.352 -0.0147  0.0782  0.1969
   62MOL    C2825770   1.654   2.971   0.591  0.1906 -0.1867 -0.0223
   62MOL    C2925771   1.873   3.008   0.483 -0.6744  0.0522 -0.5633
   62MOL    H3025772   1.919   2.587   0.426 -0.1060  0.2443  1.8504
   62MOL    H3125773   1.987   2.750   0.450 -0.6902  1.2008 -0.6387
   62MOL    H3225774   1.844   2.833   0.271 -0.2056  0.6602  0.6651
   62MOL    H3325775   1.785   2.759   0.544 -0.8747  0.2742  0.4122
   62MOL    H3425776   1.646   2.749   0.439 -0.7941  0.6749  0.1588
   62MOL    H3525777   1.626   3.120   0.372 -0.1073 -0.3353  2.2427
   62MOL    H3625778   1.728   3.017   0.266 -0.0027 -1.1521  0.2213
   62MOL    H3725779   1.574   2.955   0.336 -0.2078  0.3443  0.1688
   62MOL    H3825780   1.611   3.071   0.591  0.3294 -0.1202  0.9283
   62MOL    H3925781   1.560   2.917   0.599  0.4388 -0.5139  0.7642
   62MOL    H4025782   1.693   2.947   0.690 -0.2220 -0.2616  0.1224
   62MOL    H4125783   1.922   2.998   0.386 -0.3495 -1.9842 -0.2093
   62MOL    H4225784   1.929   2.960   0.563 -0.3192  0.5448 -0.5170
   62MOL    H4325785   1.862   3.114   0.503 -1.6306  0.3823 -2.6131
   62MOL    C4425786   1.741   2.646   0.234  0.0493 -0.4035 -0.2747
   62MOL    C4525787   1.623   2.703   0.142  0.0364 -1.0345 -0.1289
   62MOL    C4625788   1.535   2.580   0.084 -0.4496 -0.5227 -0.1503
   62MOL    C4725789   1.400   2.548   0.158 -0.3292 -0.2465 -0.1840
   62MOL    C4825790   1.421   2.512   0.312  0.4869 -0.4836  0.9083
   62MOL    C4925791   1.340   2.425   0.088  0.3811  0.6731  0.7668
   62MOL    C5025792   1.288   2.654   0.157  0.1168 -0.0819  0.3388
   62MOL    H5125793   1.818   2.597   0.174  1.2411  1.0095  0.0519
   62MOL    H5225794   1.702   2.564   0.294  0.4736 -1.1447 -0.9965
   62MOL    H5325795   1.562   2.757   0.214  0.7210 -1.4575  0.7763
   62MOL    H5425796   1.606   2.497   0.087  0.0194 -0.1987 -1.8556
   62MOL    H5525797   1.509   2.609   7.749  0.9209  2.0708  0.1934
   62MOL    H5625798   1.485   2.424   0.326  2.3702  0.5350 -1.0575
   62MOL    H5725799   1.328   2.475   0.355 -2.1402  3.6036 -1.0049
   62MOL    H5825800   1.454   2.588   0.384  1.8354  0.6628 -0.8614
   62MOL    H5925801   1.324   2.445   7.748  2.0168 -0.2079  0.3284
   62MOL    H6025802   1.411   2.342   0.082 -0.9937 -0.5183  0.5940
   62MOL    H6125803   1.246   2.389   0.130  0.4471  1.6988  1.8061
   62MOL    H6225804   1.244   2.656   0.057  0.0803 -1.0506  0.3336
   62MOL    H6325805   1.203   2.632   0.222  0.6750  0.4306  1.2506
   62MOL    H6425806   1.334   2.748   0.187  1.9213 -1.6015  2.4439
   62MOL    C6525807   1.672   2.801   0.028  0.2729  0.4324  0.1751
   62MOL    C6625808   1.569   2.889   7.714  0.1297 -0.1549 -0.6430
   62MOL    C6725809   1.644   2.962   7.601 -0.0420 -0.0009 -0.6017
   62MOL    C6825810   1.663   2.894   7.463 -0.1101  0.2951  0.4482
   62MOL    C6925811   1.767   2.985   7.395 -0.0649  0.6041 -0.1773
   62MOL    C7025812   1.691   2.740   7.470  0.4578  0.0489 -0.6306
   62MOL    C7125813   1.525   2.919   7.389  0.4252 -0.2466 -0.0909
   62MOL    H7225814   1.749   2.868   0.067  0.3052  1.2264 -1.2157
   62MOL    H7325815   1.733   2.740   7.727  0.5551 -1.5441  2.1530
   62MOL    H7425816   1.496   2.820   7.672 -0.0221  0.1031 -0.8074
   62MOL    H7525817   1.741   2.989   7.645 -0.6918  0.9781  0.2634
   62MOL    H7625818   1.595   3.059   7.589  0.1528  0.0313 -1.1210
   62MOL    H7725819   1.771   2.984   7.286 -0.9134 -0.7711 -0.2137
   62MOL    H7825820   1.747   3.086   7.429  0.2613  0.3694  0.7247
   62MOL    H7925821   1.863   2.973   7.445 -1.2077 -3.2203  1.3180
   62MOL    H8025822   1.668   2.705   7.369  1.7897  1.0832 -1.3075
   62MOL    H8125823   1.620   2.698   7.541  1.0880  1.9512  1.1595
   62MOL    H8225824   1.795   2.723   7.497  0.0899 -0.7716  0.2938
   62MOL    H8325825   1.520   2.895   7.283  2.9105 -0.5994 -0.1612
   62MOL    H8425826   1.493   3.023   7.389 -0.8884 -0.6420  1.1881
   62MOL    H8525827   1.442   2.866   7.434  0.3462  0.0177  0.0711
   62MOL    C8625828   1.506   2.997   0.037  0.1314 -0.5045 -0.8952
   62MOL    C8725829   1.382   3.064   7.753  0.7082 -0.5531  0.1654
   62MOL    C8825830   1.379   3.202   0.058 -0.0415 -0.6365 -0.0904
   62MOL    C8925831   1.456   3.326   7.762  0.2072  0.2983  0.1942
   62MOL    C9025832   1.400   3.448   0.068 -0.1046  0.1886 -0.2398
   62MOL    C9125833   1.422   3.338   7.613  0.9636  0.2214  0.2325
   62MOL    C9225834   1.609   3.320   0.014  0.1127  0.1711  0.4012
   62MOL    H9325835   1.584   3.069   0.060  1.1592 -1.9861  0.3188
   62MOL    H9425836   1.485   2.957   0.137  1.0706 -0.6662 -0.7602
   62MOL    H9525837   1.389   3.074   7.645 -0.9877  1.8521  0.2414
   62MOL    H9625838   1.421   3.190   0.158  0.1884 -1.5300 -0.2916
   62MOL    H9725839   1.276   3.235   0.069  0.2769 -0.0156  1.0265
   62MOL    H9825840   1.436   3.546   0.038 -1.9592  0.5255 -1.4588
   62MOL    H9925841   1.402   3.443   0.177 -0.2026  0.8937 -0.2016
   62MOL   H10025842   1.296   3.456   0.035  0.4193  0.1269 -1.9409
   62MOL   H10125843   1.443   3.438   7.575 -1.9664  0.8335  0.0732
   62MOL   H10225844   1.474   3.265   7.553 -0.6259 -3.3801  3.0445
   62MOL   H10325845   1.318   3.313   7.590  1.5349  0.9177 -3.2928
   62MOL   H10425846   1.635   3.420   7.748  0.2520  0.0086  0.0011
   62MOL   H10525847   1.650   3.310   0.115  0.6295  2.7413  0.4601
   62MOL   H10625848   1.653   3.242   7.718 -1.7696  0.1835 -1.0038
   62MOL   C10725849   1.267   2.970   0.024  0.2076 -0.3298 -0.0247
   62MOL   C10825850   1.146   2.998   7.698 -0.2524  0.3914 -0.0302
   62MOL   C10925851   1.165   2.937   7.557  0.4531 -0.1140 -0.4065
   62MOL   C11025852   1.114   3.016   7.434 -0.1228 -0.2946 -0.4510
   62MOL   C11125853   1.147   2.928   7.308 -0.9941  0.1208  0.8982
   62MOL   C11225854   1.176   3.154   7.426 -0.3733 -0.2132 -0.5083
   62MOL   C11325855   0.964   3.031   7.430  0.1947  0.1220  0.1513
   62MOL   H11425856   1.246   2.979   0.131 -0.8694  2.8348 -0.4534
   62MOL   H11525857   1.295   2.869   7.758 -0.7204 -1.2082  1.8277
   62MOL   H11625858   1.150   3.106   7.683 -0.4055  0.2879 -0.8013
   62MOL   H11725859   1.270   2.919   7.533  0.8066 -0.5724  1.3991
   62MOL   H11825860   1.112   2.843   7.543  0.1407  0.1469 -0.9763
   62MOL   H11925861   1.117   2.971   7.213  2.2928  1.3762  0.3501
   62MOL   H12025862   1.256   2.919   7.304 -1.0222 -0.4463  1.3367
   62MOL   H12125863   1.113   2.825   7.315 -0.0244 -0.4911 -2.6614
   62MOL   H12225864   1.170   3.196   7.325  0.4755 -0.4085 -0.6442
   62MOL   H12325865   1.282   3.141   7.445 -0.2762  0.7832 -0.3386
   62MOL   H12425866   1.141   3.224   7.501 -0.2504 -0.0192 -0.6312
   62MOL   H12525867   0.933   3.094   7.514  0.6056  0.1541  0.2838
   62MOL   H12625868   0.904   2.940   7.428  1.3459 -0.6204 -1.1400
   62MOL   H12725869   0.947   3.090   7.340  0.7655 -1.0242 -0.7232
   62MOL   C12825870   1.012   2.949   7.762 -0.1528 -0.6257 -0.4430
   62MOL   C12925871   0.961   3.036   0.118 -0.2144  0.0098  0.2988
   62MOL   C13025872   0.919   3.178   0.066  0.0085  0.0312 -0.0904
   62MOL   C13125873   0.920   3.300   0.170 -0.4469  0.0156  0.0783
   62MOL   C13225874   0.821   3.275   0.281 -0.1395  0.2748  0.4202
   62MOL   C13325875   0.875   3.432   0.095 -1.0235 -0.4418 -0.3331
   62MOL   C13425876   1.063   3.334   0.227 -0.4354 -0.0057 -0.1747
   62MOL   H13525877   1.022   2.846   0.028  0.5168 -0.3165  0.3804
   62MOL   H13625878   0.930   2.936   7.692 -0.7142  0.1278  0.0515
   62MOL   H13725879   1.044   3.051   0.188  2.6841 -1.8622 -2.6077
   62MOL   H13825880   0.974   3.217   7.747 -0.1718 -0.6712 -0.5353
   62MOL   H13925881   0.820   3.182   0.022 -0.7200 -1.0081  1.4189
   62MOL   H14025882   0.814   3.351   0.359 -0.8911 -0.3902  1.0194
   62MOL   H14125883   0.844   3.191   0.346  0.0589 -0.7189 -0.9190
   62MOL   H14225884   0.718   3.271   0.246  0.0942  1.0173 -0.3527
   62MOL   H14325885   0.851   3.509   0.168  0.5521 -0.3043  0.0599
   62MOL   H14425886   0.784   3.405   0.041  0.0871  0.7945 -2.9238
   62MOL   H14525887   0.948   3.467   0.023 -0.7970 -0.6603 -0.2089
   62MOL   H14625888   1.143   3.373   0.165 -1.8489 -1.4513 -2.9993
   62MOL   H14725889   1.047   3.398   0.314 -2.2635  1.8521 -1.8025
   62MOL   H14825890   1.092   3.244   0.280  0.8694 -0.2748 -1.3471
   62MOL   C14925891   0.841   2.955   0.177 -0.1968 -0.5949  0.9206
   62MOL   C15025892   0.854   2.884   0.316 -0.1835 -0.2891 -0.0930
   62MOL   C15125893   0.721   2.813   0.342  0.5848  0.4490 -0.8255
   62MOL   C15225894   0.605   2.876   0.423  0.3249  0.3973  0.6466
   62MOL   C15325895   0.543   3.000   0.347 -0.1643 -0.2231 -0.6022
   62MOL   C15425896   0.650   2.928   0.561 -0.0400  0.6155  0.0103
   62MOL   C15525897   0.491   2.776   0.435  0.4513 -0.5392  0.1027
   62MOL   H15625898   0.800   2.881   0.108 -0.8199 -0.2296  0.8975
   62MOL   H15725899   0.757   3.023   0.186  0.8624  0.6996  1.2462
   62MOL   H15825900   0.870   2.975   0.375 -1.4288  0.7123 -1.2810
   62MOL   H15925901   0.744   2.724   0.399 -1.5380  0.0627 -0.5450
   62MOL   H16025902   0.674   2.776   0.251 -1.8590  0.5401  0.3643
   62MOL   H16125903   0.612   3.084   0.338  1.6424 -1.7873 -1.5509
   62MOL   H16225904   0.516   2.970   0.246 -1.1102 -0.1513 -0.3750
   62MOL   H16325905   0.459   3.043   0.402  0.2612 -0.8072  0.5251
   62MOL   H16425906   0.569   2.970   0.620 -0.9279  1.6738 -1.9054
   62MOL   H16525907   0.718   3.011   0.544 -1.5425  2.0670  0.9776
   62MOL   H16625908   0.711   2.853   0.610 -0.0239  0.1274 -0.7456
   62MOL   H16725909   0.505   2.690   0.501 -0.0609 -0.1321  0.7547
   62MOL   H16825910   0.393   2.810   0.470  1.7422 -0.4460  3.8628
   62MOL   H16925911   0.475   2.725   0.341 -2.5615 -1.2377  0.9421
   62MOL   C17025912   0.977   2.796   0.348 -0.2104  0.4422  0.0387
   62MOL   C17125913   0.999   2.759   0.504 -0.1382  0.5461  1.0249
   62MOL   C17225914   1.146   2.799   0.552 -0.3197  0.2193 -0.0769
   62MOL   C17325915   1.182   2.948   0.587  0.1290  0.0079  0.8199
   62MOL   C17425916   1.065   3.020   0.657  0.4688  0.0117 -0.5196
   62MOL   C17525917   1.238   3.026   0.468  0.3863 -0.2902 -0.3575
   62MOL   C17625918   1.295   2.958   0.697 -0.6160  0.0191 -0.0853
   62MOL   H17725919   1.067   2.852   0.323  0.2662  0.4564  1.7101
   62MOL   H17825920   0.980   2.704   0.289 -0.1211  0.7970 -0.5136
   62MOL   H17925921   0.918   2.814   0.552 -3.2258 -0.3416 -2.8571
   62MOL   H18025922   1.170   2.735   0.637 -0.7584 -0.0239 -0.1329
   62MOL   H18125923   1.219   2.764   0.478 -1.5405 -1.9294 -0.3067
   62MOL   H18225924   1.093   3.108   0.715 -3.2749  2.2818 -1.9588
   62MOL   H18325925   0.999   3.052   0.577  1.0007  0.7250 -0.6711
   62MOL   H18425926   1.005   2.962   0.728 -0.9776 -0.3401 -1.9991
   62MOL   H18525927   1.148   3.048   0.409  0.2631 -0.0496 -0.0839
   62MOL   H18625928   1.261   3.131   0.489 -1.2692  0.1762 -0.7934
   62MOL   H18725929   1.326   2.990   0.417  2.0875  0.3784  2.0024
   62MOL   H18825930   1.252   2.939   0.795 -0.0501 -1.6875 -0.1503
   62MOL   H18925931   1.367   2.876   0.691 -0.8619 -0.2016 -0.0283
   62MOL   H19025932   1.339   3.058   0.700  0.5409 -0.4383 -1.3319
   62MOL   C19125933   0.981   2.607   0.518 -0.0671 -0.0750 -0.2472
   62MOL   C19225934   0.978   2.538   0.657  0.8585  0.0045  0.1045
   62MOL   C19325935   1.002   2.383   0.652  0.4554 -0.1189 -0.2220
   62MOL   C19425936   1.140   2.323   0.603 -0.3416 -0.1684  0.3581
   62MOL   C19525937   1.151   2.190   0.679  0.2795  1.3792 -0.4137
   62MOL   C19625938   1.256   2.408   0.647  0.0666 -0.0910 -0.4197
   62MOL   C19725939   1.136   2.294   0.454  0.5763  0.5354  0.3932
   62MOL   H19825940   0.892   2.568   0.468 -2.5366  1.2153  2.9932
   62MOL   H19925941   1.061   2.566   0.456 -0.6915 -0.6426 -0.6822
   62MOL   H20025942   1.060   2.582   0.715  0.1809  1.5761 -0.1164
   62MOL   H20125943   0.924   2.335   0.594  0.1434 -0.7973  0.7424
   62MOL   H20225944   0.987   2.353   0.756  3.0019  0.5609  0.3764
   62MOL   H20325945   1.243   2.143   0.645 -0.6628 -1.5335  0.9304
   62MOL   H20425946   1.171   2.206   0.785 -1.3994 -0.3883  0.2028
   62MOL   H20525947   1.065   2.124   0.665  1.9213 -1.5114  2.5476
   62MOL   H20625948   1.351   2.357   0.634 -0.6251 -1.4307 -0.3405
   62MOL   H20725949   1.258   2.493   0.579  1.2316  1.1438  1.0947
   62MOL   H20825950   1.232   2.454   0.743  1.4642  1.1480 -0.6577
   62MOL   H20925951   1.053   2.224   0.442 -1.7981  3.2727  0.3668
   62MOL   H21025952   1.109   2.383   0.398 -1.2162  0.8217  1.6679
   62MOL   H21125953   1.230   2.252   0.420  0.3929  1.0245 -0.7641
   62MOL   C21225954   0.844   2.576   0.732  0.0239  0.9965  0.2263
   62MOL   C21325955   0.820   2.529   0.883  0.1993  0.0566  0.1111
   62MOL   C21425956   0.937   2.563   0.976 -0.5297  0.4160 -0.1776
   62MOL   C21525957   0.905   2.635   1.120 -0.0012 -0.1076  0.0518
   62MOL   C21625958   0.799   2.748   1.113 -0.0080  0.1255  0.2181
   62MOL   C21725959   0.853   2.532   1.222  0.3397  0.4312  0.0313
   62MOL   C21825960   1.038   2.697   1.167  0.5584 -0.3708  0.4329
   62MOL   H21925961   0.836   2.685   0.725 -1.8815  1.0547  2.7373
   62MOL   H22025962   0.754   2.545   0.681  1.0065  1.1056 -1.6213
   62MOL   H22125963   0.743   2.599   0.915 -0.6665 -0.7509 -0.1594
   62MOL   H22225964   1.000   2.632   0.919 -0.3632 -0.9761 -1.7233
   62MOL   H22325965   1.002   2.477   0.986 -1.5803 -0.3511  0.1538
   62MOL   H22425966   0.835   2.822   1.042 -0.0188  0.3021  0.3959
   62MOL   H22525967   0.784   2.806   1.204 -2.0283  1.5913 -1.0419
   62MOL   H22625968   0.703   2.706   1.086 -0.4373 -0.9513  3.1742
   62MOL   H22725969   0.840   2.567   1.325 -0.9609 -0.2485  0.1068
   62MOL   H22825970   0.766   2.488   1.173  0.2901  2.0241 -1.3423
   62MOL   H22925971   0.930   2.456   1.233  1.1494  0.9306 -2.1342
   62MOL   H23025972   1.119   2.626   1.150  1.1600  0.5194 -0.4214
   62MOL   H23125973   1.032   2.726   1.271  1.7491  0.4947  0.2618
   62MOL   H23225974   1.054   2.793   1.119 -1.7903 -0.5228 -0.7518
   62MOL   C23325975   0.761   2.390   0.903 -0.2515  0.3344  0.6879
   62MOL   C23425976   0.606   2.362   0.890 -0.2274  0.8509 -0.3005
   62MOL   C23525977   0.568   2.213   0.919  0.2684  0.6396 -0.5691
   62MOL   C23625978   0.639   2.094   0.844  0.1535 -0.2214 -0.1558
   62MOL   C23725979   0.646   2.127   0.695 -0.2650 -0.5111  0.8103
   62MOL   C23825980   0.772   2.061   0.909 -1.1202 -0.7451 -0.0670
   62MOL   C23925981   0.546   1.969   0.858 -0.0297 -0.0221  0.2067
   62MOL   H24025982   0.802   2.347   0.994  1.1337  4.5443  2.1321
   62MOL   H24125983   0.806   2.323   0.830 -0.9334 -0.4575  0.9813
   62MOL   H24225984   0.596   2.382   0.783 -2.6667  0.8592 -0.1036
   62MOL   H24325985   0.580   2.185   1.023  2.0239  1.4578 -0.5294
   62MOL   H24425986   0.462   2.204   0.894 -0.3425 -0.0509  2.1558
   62MOL   H24525987   0.554   2.172   0.657  0.0793 -0.2249  0.3092
   62MOL   H24625988   0.666   2.041   0.631  3.5152 -0.6735  2.1255
   62MOL   H24725989   0.728   2.196   0.680 -1.1758  0.5003  0.3990
   62MOL   H24825990   0.825   1.978   0.863  0.3372  0.0048  0.2305
   62MOL   H24925991   0.842   2.144   0.921 -2.8157  0.4935  1.6094
   62MOL   H25025992   0.754   2.040   1.014  0.2069  0.5485  0.4345
   62MOL   H25125993   0.453   1.970   0.800 -0.2007  1.3080  0.4924
   62MOL   H25225994   0.599   1.876   0.837 -0.0696 -0.3827  1.6282
   62MOL   H25325995   0.507   1.960   0.959  1.9162 -0.8018  0.9051
   62MOL   C25425996   0.526   2.450   0.986  0.3458 -0.5445 -0.1183
   62MOL   C25525997   0.373   2.464   0.965 -0.5392  0.1546 -0.5217
   62MOL   C25625998   0.345   2.570   0.858 -0.4093 -0.3564  0.1995
   62MOL   C25725999   0.251   2.541   0.741 -0.5182  0.3500  0.2456
   62MOL   C25826000   0.321   2.432   0.656 -0.5256  0.0759 -0.7639
   62MOL   C25926001   0.238   2.669   0.660 -0.2082 -0.2323 -0.1235
   62MOL   C26026002   0.114   2.499   0.791  0.1342  0.2394 -1.0159
   62MOL   H26126003   0.569   2.550   0.983 -0.7624 -0.0686 -0.4625
   62MOL   H26226004   0.552   2.413   1.085 -0.3701 -2.9395 -0.7899
   62MOL   H26326005   0.326   2.373   0.928  0.5459 -1.1184  1.1417
   62MOL   H26426006   0.301   2.657   0.905 -1.0639 -2.7478  4.1932
   62MOL   H26526007   0.439   2.608   0.816 -1.6730 -0.3226 -2.7402
   62MOL   H26626008   0.424   2.465   0.641  0.3948 -2.6109 -0.6465
   62MOL   H26726009   0.277   2.419   0.557 -3.0637  0.6040  0.2571
   62MOL   H26826010   0.327   2.335   0.704 -0.5704  0.5532  0.2142
   62MOL   H26926011   0.325   2.732   0.678 -0.2915 -0.4448  1.0470
   62MOL   H27026012   0.154   2.725   0.702 -0.0099  1.1415 -1.5275
   62MOL   H27126013   0.222   2.652   0.553 -1.3958 -1.1169  0.1795
   62MOL   H27226014   0.065   2.566   0.862 -0.7094  1.2334 -2.5067
   62MOL   H27326015   0.045   2.481   0.708  0.2421 -0.5956 -0.9245
   62MOL   H27426016   0.129   2.406   0.846 -0.4717  0.8607  0.2255
   62MOL   C27526017   0.307   2.490   1.102 -0.0906 -0.2670 -0.3382
   62MOL   C27626018   0.302   2.373   1.212 -0.4470  0.5679 -0.1051
   62MOL   C27726019   0.261   2.433   1.351 -0.0476  0.4265  0.3113
   62MOL   C27826020   0.357   2.536   1.426  0.3085  0.1695 -0.3253
   62MOL   C27926021   0.348   2.680   1.366  0.3992  0.7555  0.0750
   62MOL   C28026022   0.294   2.561   1.566 -0.3809  0.3543  0.4185
   62MOL   C28126023   0.505   2.485   1.430 -0.8562  0.1520 -0.0117
   62MOL   H28226024   0.362   2.577   1.139  0.2356 -0.3673 -0.5836
   62MOL   H28326025   0.204   2.526   1.096 -0.3381 -0.4833  1.9957
   62MOL   H28426026   0.397   2.319   1.218 -1.3523 -1.5844 -3.7261
   62MOL   H28526027   0.250   2.344   1.412 -1.5502 -0.5693 -1.3572
   62MOL   H28626028   0.158   2.469   1.345 -0.4148 -0.8273 -1.2504
   62MOL   H28726029   0.247   2.699   1.327 -0.4787 -0.8654  1.4995
   62MOL   H28826030   0.358   2.745   1.453  0.0020  1.0493 -0.0947
   62MOL   H28926031   0.421   2.704   1.288 -0.2354  0.2634 -0.6856
   62MOL   H29026032   0.306   2.472   1.628  1.7060  0.5602  0.3435
   62MOL   H29126033   0.189   2.590   1.570 -0.0701  1.4665  0.7484
   62MOL   H29226034   0.345   2.638   1.624 -2.1696  0.8981  1.3128
   62MOL   H29326035   0.507   2.393   1.489  1.0975  0.7775  0.9216
   62MOL   H29426036   0.556   2.552   1.499 -0.0044 -0.8716  0.3656
   62MOL   H29526037   0.564   2.482   1.338  1.9441  0.7268  1.7112
   62MOL   C29626038   0.190   2.271   1.160  0.9432 -0.0694 -0.5753
   62MOL   C29726039   0.191   2.133   1.233 -0.8334  0.5300  0.4527
   62MOL   C29826040   0.315   2.046   1.192 -0.2120  0.1963 -0.0732
   62MOL   C29926041   0.400   1.983   1.306 -0.2226  0.1208 -0.4065
   62MOL   C30026042   0.445   2.089   1.409 -0.4474 -0.3026 -0.9200
   62MOL   C30126043   0.326   1.877   1.385 -0.3712 -0.5182  0.4483
   62MOL   C30226044   0.517   1.916   1.243  0.0294  0.4083 -0.2360
   62MOL   H30326045   0.204   2.242   1.056 -4.3451 -1.9249 -0.8972
   62MOL   H30426046   0.090   2.311   1.144  0.7182  0.2264  1.4955
   62MOL   H30526047   0.208   2.154   1.339  3.4527 -1.4474  0.2849
   62MOL   H30626048   0.382   2.099   1.124 -1.1478  0.0744 -1.1070
   62MOL   H30726049   0.291   1.968   1.120 -1.3968  1.3725 -0.9871
   62MOL   H30826050   0.512   2.160   1.360  0.3635 -0.8603 -0.6147
   62MOL   H30926051   0.366   2.141   1.464 -2.3436 -2.0361 -1.9537
   62MOL   H31026052   0.513   2.040   1.478  2.0342  1.6400 -1.9047
   62MOL   H31126053   0.388   1.827   1.459 -1.6886 -2.2855  0.4074
   62MOL   H31226054   0.240   1.922   1.434 -1.2569 -0.0823 -1.4713
   62MOL   H31326055   0.287   1.794   1.325 -0.8690  0.6196 -0.8239
   62MOL   H31426056   0.491   1.842   1.167  0.3270 -1.1884  1.1880
   62MOL   H31526057   0.582   1.988   1.194  0.9761  0.1162  0.5836
   62MOL   H31626058   0.577   1.869   1.321 -0.1927  1.7404  0.7443
   62MOL   C31726059   0.060   2.058   1.225  0.9986  0.0211 -0.4595
   62MOL   C31826060   7.704   2.127   1.290  0.0234  1.0373  0.1677
   62MOL   C31926061   7.568   2.059   1.241 -0.5048  0.5846  0.3463
   62MOL   C32026062   7.484   2.144   1.134 -0.7436 -0.2080 -0.1732
   62MOL   C32126063   7.363   2.061   1.085  0.6048 -0.1150 -0.4563
   62MOL   C32226064   7.570   2.174   1.012  0.1905 -0.7600  0.2594
   62MOL   C32326065   7.418   2.274   1.196 -0.6027 -0.1083 -0.6039
   62MOL   H32426066   0.038   2.050   1.118 -1.3215  1.7685 -0.1401
   62MOL   H32526067   0.072   1.952   1.250 -1.0206 -0.2920 -0.7227
   62MOL   H32626068   7.699   2.231   1.258 -4.6326  1.6393  2.4166
   62MOL   H32726069   7.505   2.032   1.325 -2.1872 -0.3296 -1.1645
   62MOL   H32826070   7.594   1.962   1.198  0.7176  0.9513  0.2379
   62MOL   H32926071   7.292   2.024   1.159 -0.4551 -1.2158 -1.9815
   62MOL   H33026072   7.409   1.968   1.051  0.8146 -0.0829 -0.2622
   62MOL   H33126073   7.321   2.103   0.994  0.2822  0.3887 -0.0767
   62MOL   H33226074   7.523   2.238   0.937  0.5670  1.2116  1.6735
   62MOL   H33326075   7.661   2.226   1.041 -0.4865 -0.0838  1.2006
   62MOL   H33426076   7.611   2.084   0.966 -0.7269  0.7168 -3.6168
   62MOL   H33526077   7.353   2.260   1.283 -1.8439  1.2358 -1.2925
   62MOL   H33626078   7.347   2.309   1.121 -0.2130 -1.6277 -1.6950
   62MOL   H33726079   7.495   2.348   1.220 -0.1949 -1.3945  2.2800
   62MOL   C33826080   7.715   2.116   1.444 -0.1626 -0.1907  0.6081
   62MOL   C33926081   7.610   2.194   1.526 -0.3732 -0.6880 -0.1048
   62MOL   C34026082   7.640   2.344   1.513 -0.3772  0.0050 -0.1175
   62MOL   C34126083   7.552   2.453   1.577  0.5547 -0.2155 -0.6664
   62MOL   C34226084   7.407   2.418   1.545  0.1594  0.1132 -0.2598
   62MOL   C34326085   7.570   2.470   1.732 -0.0091 -0.0749 -0.2437
   62MOL   C34426086   7.574   2.599   1.517 -0.0974 -0.2109  0.2046
   62MOL   H34526087   0.048   2.135   1.487 -0.1602 -0.6794  0.8239
   62MOL   H34626088   7.705   2.009   1.459  2.4822 -0.4559  0.6397
   62MOL   H34726089   7.514   2.183   1.477 -0.1961 -0.4164 -0.5072
   62MOL   H34826090   7.639   2.367   1.406  0.6235  1.0616  0.0954
   62MOL   H34926091   7.745   2.362   1.534 -0.2301  0.0997 -0.9000
   62MOL   H35026092   7.344   2.500   1.580  2.6682  2.5173 -1.2603
   62MOL   H35126093   7.386   2.412   1.438 -0.1122  0.0421 -0.2023
   62MOL   H35226094   7.367   2.328   1.592 -1.1710  1.4559  1.2296
   62MOL   H35326095   7.667   2.518   1.746 -1.6385  2.9432  1.3139
   62MOL   H35426096   7.507   2.548   1.774 -0.4119 -1.5362  1.9295
   62MOL   H35526097   7.559   2.380   1.793  0.0913 -0.2189 -0.4363
   62MOL   H35626098   7.678   2.631   1.524  0.1415 -1.1481  1.0636
   62MOL   H35726099   7.548   2.599   1.411 -0.4630 -4.2046  0.2262
   62MOL   H35826100   7.515   2.674   1.569  0.3683  0.3507 -0.0728
   62MOL   C35926101   7.598   2.142   1.671 -0.1323  0.5891  0.1951
   62MOL   C36026102   7.597   1.990   1.711 -0.5547 -0.0738 -0.5126
   62MOL   C36126103   7.475   1.917   1.652  0.3826 -0.5461 -0.2919
   62MOL   C36226104   7.483   1.768   1.612  1.6472 -0.0655  0.5447
   62MOL   C36326105   7.505   1.668   1.727 -0.8571 -0.3239  0.3576
   62MOL   C36426106   7.588   1.743   1.502  0.0596  0.5333  0.3010
   62MOL   C36526107   7.346   1.734   1.551  0.2300 -0.4044 -0.0102
   62MOL   H36626108   7.507   2.189   1.708 -1.5289 -1.1924 -0.9268
   62MOL   H36726109   7.680   2.192   1.723 -0.0639  0.1060  0.5533
   62MOL   H36826110   7.686   1.938   1.676 -0.1226  1.5072 -1.8303
   62MOL   H36926111   7.389   1.922   1.719 -0.8150 -1.9661 -1.6970
   62MOL   H37026112   7.453   1.968   1.559  1.3280  0.7597  0.1814
   62MOL   H37126113   7.591   1.701   1.786 -0.6625  0.1675 -0.1994
   62MOL   H37226114   7.417   1.665   1.791 -1.9887 -0.7054 -1.2041
   62MOL   H37326115   7.528   1.568   1.693 -0.4200  0.0794 -0.5379
   62MOL   H37426116   7.557   1.817   1.428 -1.8260 -0.8401 -0.3254
   62MOL   H37526117   7.585   1.644   1.456  0.8779 -0.2625  1.9251
   62MOL   H37626118   7.689   1.762   1.539  1.6447 -2.9394 -1.8604
   62MOL   H37726119   7.262   1.751   1.619  0.6635 -0.7961  0.6243
   62MOL   H37826120   7.345   1.627   1.532  0.2410 -0.9767  3.0365
   62MOL   H37926121   7.311   1.790   1.464 -0.9505  1.6325  1.7091
   62MOL   C38026122   7.607   1.972   1.868 -0.0003 -0.5755  0.0093
   62MOL   C38126123   7.743   1.988   1.929  0.2544 -0.1489  0.2035
   62MOL   C38226124   0.037   1.851   1.963 -0.0969  0.0858 -0.4452
   62MOL   C38326125   0.191   1.843   1.929  0.1288  0.7250  0.0297
   62MOL   C38426126   0.237   1.696   1.988  0.2021  0.5839  0.1825
   62MOL   C38526127   0.271   1.947   1.999  0.0655 -0.1875  1.0000
   62MOL   C38626128   0.212   1.848   1.782  0.2941  0.6853 -0.3334
   62MOL   H38726129   7.563   1.878   1.902 -0.2000 -0.1955  0.8064
   62MOL   H38826130   7.533   2.042   1.907  0.6518  0.9404 -1.4219
   62MOL   H38926131   0.029   2.052   1.857  0.2680  0.7798  1.0301
   62MOL   H39026132   0.004   1.815   2.060 -0.7093 -1.2198 -1.1305
   62MOL   H39126133   7.764   1.775   1.895 -0.7515 -0.3931  0.4582
   62MOL   H39226134   0.179   1.611   1.952  1.8796 -0.1907 -0.7393
   62MOL   H39326135   0.340   1.670   1.962 -0.2761 -0.1271 -1.0339
   62MOL   H39426136   0.232   1.708   2.096 -1.5260  0.9172  0.0818
   62MOL   H39526137   0.372   1.935   1.958  0.0063  0.4583  0.6673
   62MOL   H39626138   0.260   1.942   2.107 -2.1659  0.2982  0.8155
   62MOL   H39726139   0.241   2.047   1.970 -2.1191 -1.0760  0.1021
   62MOL   H39826140   0.179   1.945   1.744  0.4873  0.4852 -1.0120
   62MOL   H39926141   0.162   1.780   1.714  0.7558 -0.6359  0.6390
   62MOL   H40026142   0.320   1.838   1.770  0.4562 -0.2540  1.7392
   62MOL   C40126143   7.719   2.080   2.053 -0.1946  0.1298 -0.2520
   62MOL   C40226144   7.715   2.234   2.034  0.2837 -0.1593 -0.4776
   62MOL   C40326145   7.720   2.316   2.169  0.4587  0.5239  0.2534
   62MOL   C40426146   7.690   2.469   2.155 -0.5179  1.1131  0.7014
   62MOL   C40526147   7.729   2.537   2.283 -0.0916  0.2602 -0.2287
   62MOL   C40626148   7.542   2.490   2.133  0.9091  0.1094 -0.2221
   62MOL   C40726149   7.758   2.527   2.031 -0.2875  0.7860 -0.1425
   62MOL   H40826150   7.641   2.044   2.120 -0.3823 -0.5796 -0.8403
   62MOL   H40926151   0.045   2.063   2.109  0.8623  2.9350 -1.0615
   62MOL   H41026152   0.027   2.264   1.963  1.9695  0.9372  1.7886
   62MOL   H41126153   0.040   2.307   2.236  0.3577 -0.6831  0.2255
   62MOL   H41226154   7.640   2.272   2.229 -1.6110  2.4002 -1.0423
   62MOL   H41326155   7.686   2.494   2.374 -0.8908 -1.5291 -1.4194
   62MOL   H41426156   7.703   2.643   2.277  2.7127  0.8414 -3.4581
   62MOL   H41526157   0.070   2.519   2.289  0.1746  0.4891 -3.4474
   62MOL   H41626158   7.478   2.456   2.214 -1.7303 -3.1353 -3.4726
   62MOL   H41726159   7.503   2.447   2.040 -0.5705 -2.3520  1.4707
   62MOL   H41826160   7.525   2.598   2.131  2.9230  0.4618  0.3477
   62MOL   H41926161   7.730   2.630   2.011  3.2356  1.8973  0.3011
   62MOL   H42026162   0.100   2.531   2.042 -0.4550  1.0536  1.5473
   62MOL   H42126163   7.734   2.474   1.939 -0.9991 -0.3482  0.6863
   62MOL   H42226164   7.622   2.269   1.989  0.1289  1.1053  0.8089
   63MOL     C126165   4.220   4.639   7.093 -0.3683 -0.1449 -0.3008
   63MOL     C226166   4.363   4.686   7.126 -0.1195  0.0946 -0.4411
   63MOL     C326167   4.457   4.613   7.024  0.1882  0.3247 -0.1285
   63MOL     C426168   4.577   4.688   6.963 -0.0139  0.2925 -0.5052
   63MOL     C526169   4.653   4.577   6.890  0.5553 -0.0555  0.6184
   63MOL     C626170   4.532   4.794   6.862  0.4407  0.4970  0.6854
   63MOL     C726171   4.667   4.754   7.080 -0.3771 -0.3785 -0.2980
   63MOL     H826172   4.185   4.651   6.990 -2.4722  0.9180  0.4975
   63MOL     H926173   4.213   4.533   7.118  6.2614 -0.4946  1.0129
   63MOL    H1026174   4.359   4.792   7.102 -0.8251  0.2159  0.1756
   63MOL    H1126175   4.406   4.566   6.940  3.4970 -0.1415 -1.9555
   63MOL    H1226176   4.502   4.528   7.076 -1.7614 -1.3133 -1.0502
   63MOL    H1326177   4.680   4.494   6.955 -1.2426 -0.4472  0.9052
   63MOL    H1426178   4.747   4.615   6.850 -0.0728  1.8730  0.9035
   63MOL    H1526179   4.597   4.543   6.803  3.2489 -1.2002 -0.7077
   63MOL    H1626180   4.457   4.751   6.796  0.7053  0.9537  0.0757
   63MOL    H1726181   4.500   4.884   6.914  1.0143  1.4818 -0.6100
   63MOL    H1826182   4.620   4.815   6.800  0.7653 -2.7232 -0.0093
   63MOL    H1926183   4.614   4.824   7.145 -0.9657 -1.4061  0.3576
   63MOL    H2026184   4.757   4.802   7.043 -1.2753  2.1031  0.6439
   63MOL    H2126185   4.712   4.677   7.142 -1.4812 -0.4928  0.3756
   63MOL    H2226186   4.146   4.699   7.147  1.1454  0.1801  1.4626
   63MOL    C2326187   4.408   4.656   7.278 -0.4157  0.3374 -0.3000
   63MOL    C2426188   4.348   4.740   7.391 -0.4008  0.2806 -0.3814
   63MOL    C2526189   4.372   4.892   7.371  0.2763  0.0137  0.1378
   63MOL    C2626190   4.250   4.981   7.396  0.3407  0.3593  0.2837
   63MOL    C2726191   4.207   4.973   7.548  0.2853  0.0175 -0.2606
   63MOL    C2826192   4.287   5.125   7.361  0.2976 -0.1194  0.1867
   63MOL    C2926193   4.123   4.933   7.311  0.0774 -0.5320 -0.0840
   63MOL    H3026194   4.410   4.549   7.298  0.3904  0.9448  3.3786
   63MOL    H3126195   4.514   4.682   7.280  0.0855 -1.5815 -1.1923
   63MOL    H3226196   4.241   4.723   7.383 -0.0794 -0.8140 -2.6966
   63MOL    H3326197   4.417   4.909   7.273  1.5485 -0.6037  0.6090
   63MOL    H3426198   4.451   4.918   7.442 -1.1944  1.9587  1.1398
   63MOL    H3526199   4.300   4.986   7.605 -0.0111  0.9390  0.0206
   63MOL    H3626200   4.142   5.053   7.584  0.8542  0.0663  0.6922
   63MOL    H3726201   4.160   4.876   7.558 -0.5592  0.3318 -1.1409
   63MOL    H3826202   4.373   5.159   7.418 -0.0404 -1.4726  1.5345
   63MOL    H3926203   4.308   5.145   7.256  0.3390 -0.6097  0.0998
   63MOL    H4026204   4.199   5.186   7.384  0.4045 -0.2297  0.8760
   63MOL    H4126205   4.039   5.002   7.307  0.0558 -0.4645  1.5140
   63MOL    H4226206   4.077   4.843   7.352  1.0198 -0.9565  0.0558
   63MOL    H4326207   4.153   4.907   7.209  1.9170 -2.7790  0.9810
   63MOL    C4426208   4.391   4.686   7.531 -0.1407 -0.9707 -0.0743
   63MOL    C4526209   4.331   4.552   7.576  0.0181  0.3123 -0.9332
   63MOL    C4626210   4.177   4.549   7.606 -0.8862 -1.0285 -0.3355
   63MOL    C4726211   4.087   4.430   7.558  0.5990  0.0360  0.0874
   63MOL    C4826212   3.938   4.451   7.605  0.6039 -0.4565  0.7896
   63MOL    C4926213   4.142   4.304   7.630 -0.0841 -0.0380  0.1163
   63MOL    C5026214   4.086   4.420   7.405 -0.3137  0.2460 -0.0578
   63MOL    H5126215   4.497   4.710   7.539 -0.3437  0.1287 -0.5888
   63MOL    H5226216   4.357   4.767   7.596  1.4702  0.9434 -1.5381
   63MOL    H5326217   4.347   4.478   7.498 -1.4682 -1.7365  0.6262
   63MOL    H5426218   4.134   4.644   7.573 -1.1317 -0.9943  0.0798
   63MOL    H5526219   4.163   4.557   7.714 -2.4535 -0.1116 -0.5897
   63MOL    H5626220   3.900   4.547   7.571 -2.0626 -0.6610  3.0326
   63MOL    H5726221   3.938   4.455   7.714  0.8727 -2.0116  0.8570
   63MOL    H5826222   3.876   4.367   7.574  1.3505 -0.3094 -1.1807
   63MOL    H5926223   4.239   4.268   7.596  0.4993  2.0119 -0.4596
   63MOL    H6026224   4.171   4.320   7.733 -0.0725 -2.9881  0.6043
   63MOL    H6126225   4.075   4.218   7.627  1.3189 -1.1175 -3.0659
   63MOL    H6226226   4.180   4.391   7.358 -0.1186 -1.0051  1.0957
   63MOL    H6326227   4.010   4.356   7.361  0.3125  1.4452 -2.9824
   63MOL    H6426228   4.072   4.516   7.356 -0.8951 -0.1896 -0.7604
   63MOL    C6526229   4.399   4.499   7.708  0.1042  0.0456  0.5750
   63MOL    C6626230   4.552   4.464   7.695 -0.2864 -0.3385 -0.4556
   63MOL    C6726231   4.573   4.331   7.610 -0.7955  0.3004 -0.2453
   63MOL    C6826232   4.704   4.316   7.525  0.2324  0.0556 -0.4563
   63MOL    C6926233   4.832   4.300   7.611 -0.2096 -0.1124  0.7646
   63MOL    C7026234   4.678   4.193   7.441 -0.2443 -0.6139 -0.4069
   63MOL    C7126235   4.734   4.440   7.429  0.2187  0.2052  0.1730
   63MOL    H7226236   4.389   4.577   0.017  2.8329  1.3468 -0.3559
   63MOL    H7326237   4.359   4.409   7.754  4.4250 -0.7865  2.9526
   63MOL    H7426238   4.586   4.559   7.653 -0.6184  1.3942  3.0554
   63MOL    H7526239   4.493   4.325   7.536  0.3714  0.6435 -1.5645
   63MOL    H7626240   4.556   4.241   7.669 -0.1948  0.1967 -0.2291
   63MOL    H7726241   4.926   4.282   7.558 -1.4390 -0.3428 -1.3914
   63MOL    H7826242   4.853   4.381   7.681 -1.1399 -0.1834  1.1265
   63MOL    H7926243   4.823   4.213   7.675 -2.1229  0.6178  1.5053
   63MOL    H8026244   4.657   4.110   7.509 -1.0096 -0.8093 -0.8878
   63MOL    H8126245   4.763   4.175   7.375  0.6728 -1.2234  0.9105
   63MOL    H8226246   4.583   4.195   7.389  0.3459 -1.0003 -1.5198
   63MOL    H8326247   4.739   4.535   7.481 -0.2398  0.7314 -0.7382
   63MOL    H8426248   4.648   4.445   7.362 -0.1415 -0.3243  0.5890
   63MOL    H8526249   4.827   4.438   7.372  0.1341  2.2081 -0.0569
   63MOL    C8626250   4.610   4.458   0.074  0.1881  0.0814  1.0401
   63MOL    C8726251   4.562   4.358   0.183 -0.3256  0.4635  0.0476
   63MOL    C8826252   4.556   4.418   0.325 -0.7278  0.3549 -0.5710
   63MOL    C8926253   4.438   4.512   0.362 -0.0477  0.3529  0.4500
   63MOL    C9026254   4.451   4.523   0.520  0.4427 -0.1702 -0.6570
   63MOL    C9126255   4.300   4.441   0.330 -0.3134  0.4570 -0.7189
   63MOL    C9226256   4.448   4.646   0.310 -0.0900  0.2060 -0.1032
   63MOL    H9326257   4.620   4.559   0.113 -2.8582  1.7847 -2.3014
   63MOL    H9426258   4.711   4.425   0.047 -0.0049 -0.5627  1.0968
   63MOL    H9526259   4.462   4.320   0.162 -0.6179  0.3269  1.6003
   63MOL    H9626260   4.645   4.466   0.366 -1.8305  0.2133  2.1393
   63MOL    H9726261   4.550   4.333   0.392 -0.3491  1.1528  0.4943
   63MOL    H9826262   4.366   4.571   0.569 -1.2160 -1.5517 -2.0583
   63MOL    H9926263   4.546   4.567   0.547  0.9201 -2.5799  1.7066
   63MOL   H10026264   4.449   4.422   0.561  0.3445 -0.1242 -0.5515
   63MOL   H10126265   4.299   4.342   0.377  0.3021  1.1880  0.8445
   63MOL   H10226266   4.225   4.505   0.376  0.3817  0.2111  0.7940
   63MOL   H10326267   4.275   4.425   0.225  0.9062 -1.1354 -0.7905
   63MOL   H10426268   4.548   4.685   0.290 -1.8468  4.3134 -1.5262
   63MOL   H10526269   4.398   4.643   0.213 -1.8602 -1.7156  0.8372
   63MOL   H10626270   4.395   4.719   0.371  2.0310  1.9165 -0.2338
   63MOL   C10726271   4.658   4.230   0.182 -0.0197  0.4348 -0.0305
   63MOL   C10826272   4.623   4.099   0.268  0.1424 -0.2111 -0.0707
   63MOL   C10926273   4.478   4.048   0.243 -0.3439 -0.2331  0.1625
   63MOL   C11026274   4.399   3.971   0.360 -0.1244 -0.2526  0.6095
   63MOL   C11126275   4.397   4.042   0.499  0.3384 -0.0827  0.2055
   63MOL   C11226276   4.463   3.836   0.368  0.4200  0.3220  0.7088
   63MOL   C11326277   4.251   3.947   0.312  0.0277  0.3107  0.0351
   63MOL   H11426278   4.755   4.269   0.210 -0.0216  1.1073 -0.9345
   63MOL   H11526279   4.664   4.205   0.076 -3.4927  1.0767 -0.4544
   63MOL   H11626280   4.621   4.117   0.376 -2.6126  2.1319 -0.4497
   63MOL   H11726281   4.418   4.133   0.212  0.5970  0.5581  0.4730
   63MOL   H11826282   4.470   3.992   0.150  1.7327 -1.2987  0.5762
   63MOL   H11926283   4.497   4.044   0.541  0.4741  0.8714 -0.1435
   63MOL   H12026284   4.354   4.142   0.502  3.4482  1.4757 -2.7272
   63MOL   H12126285   4.339   3.975   0.562 -1.7752  1.8808  0.4259
   63MOL   H12226286   4.461   3.796   0.267 -0.4917 -0.0571  0.8667
   63MOL   H12326287   4.390   3.778   0.425 -2.1012  2.1183 -0.6115
   63MOL   H12426288   4.553   3.848   0.428  0.1664 -0.3004  1.2336
   63MOL   H12526289   4.245   3.874   0.231  0.3448 -2.3052  2.2994
   63MOL   H12626290   4.184   4.029   0.286 -0.5548 -0.0886  0.2615
   63MOL   H12726291   4.186   3.907   0.390 -0.4001  0.0992 -0.4223
   63MOL   C12826292   4.733   3.992   0.245  0.5577  0.5225 -0.1697
   63MOL   C12926293   4.862   4.011   0.324  0.3538 -0.4967 -0.1408
   63MOL   C13026294   4.844   3.990   0.482 -0.3315 -0.7681  0.2049
   63MOL   C13126295   4.884   4.104   0.579  0.2088 -0.1571 -0.6529
   63MOL   C13226296   4.822   4.235   0.543  0.1276 -0.1658 -0.7745
   63MOL   C13326297   5.034   4.130   0.571 -0.2722  0.6332  0.2172
   63MOL   C13426298   4.860   4.070   0.729  0.1607  0.0273 -0.9897
   63MOL   H13526299   4.758   3.995   0.139  0.0025 -3.1777 -0.4553
   63MOL   H13626300   4.696   3.891   0.261 -1.0183  0.7939 -1.9772
   63MOL   H13726301   4.910   4.107   0.309 -1.7995  0.4062 -1.5239
   63MOL   H13826302   4.742   3.951   0.486 -0.6367  0.0690  0.5333
   63MOL   H13926303   4.903   3.904   0.515  0.5857  0.4126  1.7368
   63MOL   H14026304   4.717   4.253   0.567  0.5211  1.4815 -0.2237
   63MOL   H14126305   4.827   4.250   0.435 -1.5521  0.4008 -0.7969
   63MOL   H14226306   4.870   4.314   0.600  0.4256 -0.4727 -0.5997
   63MOL   H14326307   5.079   4.190   0.650  3.3230  1.2710 -2.2041
   63MOL   H14426308   5.058   4.171   0.473 -1.9528  2.5388  0.5607
   63MOL   H14526309   5.083   4.035   0.592  0.0244  1.2887  2.5006
   63MOL   H14626310   4.920   3.981   0.745  0.7606  0.3843 -1.1929
   63MOL   H14726311   4.904   4.142   0.798 -0.7265  0.1826 -0.5908
   63MOL   H14826312   4.757   4.053   0.758  0.8881 -1.7222  0.6260
   63MOL   C14926313   4.962   3.901   0.274  0.6568 -0.0017  0.1658
   63MOL   C15026314   5.028   3.954   0.138  0.2475 -0.1508 -0.8485
   63MOL   C15126315   5.150   4.048   0.159 -0.3068  0.7328  0.0696
   63MOL   C15226316   5.173   4.176   0.081 -0.2827 -0.1741  0.3769
   63MOL   C15326317   5.311   4.233   0.124  0.3232 -0.4550  0.4927
   63MOL   C15426318   5.056   4.276   0.127 -0.2758  0.4029 -0.2946
   63MOL   C15526319   5.158   4.146   7.700 -0.2250  0.0349 -0.2011
   63MOL   H15626320   4.911   3.805   0.267  1.4400 -0.3863 -0.3659
   63MOL   H15726321   5.044   3.870   0.339 -1.0076 -0.4669  2.0702
   63MOL   H15826322   4.957   4.021   0.089  0.4521  0.3935 -0.4078
   63MOL   H15926323   5.239   3.985   0.156 -0.5396  0.4605 -1.2133
   63MOL   H16026324   5.149   4.069   0.266 -0.9068 -0.0872  0.2319
   63MOL   H16126325   5.389   4.159   0.106  0.4999 -0.0327 -0.4983
   63MOL   H16226326   5.345   4.326   0.079 -0.4321 -0.1370  0.5744
   63MOL   H16326327   5.306   4.246   0.232  1.6268  0.3115  0.4687
   63MOL   H16426328   5.060   4.372   0.075 -0.8990 -0.3727 -1.7985
   63MOL   H16526329   5.082   4.289   0.232  1.2376 -0.8908 -0.4848
   63MOL   H16626330   4.958   4.233   0.108 -0.5433  0.1846  1.4874
   63MOL   H16726331   5.191   4.226   7.633  0.9604 -1.2201 -1.1468
   63MOL   H16826332   5.223   4.061   7.683  0.0268 -0.8791  4.4877
   63MOL   H16926333   5.054   4.126   7.676 -0.6786  0.7935  1.0663
   63MOL   C17026334   5.081   3.837   0.054  0.5878 -0.1317 -0.7748
   63MOL   C17126335   4.973   3.744   7.758 -0.3740 -0.1562 -0.4808
   63MOL   C17226336   5.027   3.608   7.702 -0.1079 -0.7926 -0.4390
   63MOL   C17326337   5.024   3.478   0.023 -1.1152  0.6485 -0.3386
   63MOL   C17426338   5.097   3.511   0.154 -0.4280 -0.4054  0.7868
   63MOL   C17526339   5.094   3.352   7.730 -0.0335  0.0350  0.3784
   63MOL   C17626340   4.881   3.438   0.053 -0.4698 -0.1233  0.0188
   63MOL   H17726341   5.142   3.774   0.119  1.5646 -0.3621 -1.9008
   63MOL   H17826342   5.154   3.872   7.747  1.9854  1.0096  1.1158
   63MOL   H17926343   4.908   3.721   0.076 -1.9028 -0.7990 -1.8299
   63MOL   H18026344   4.992   3.579   7.603  2.2247  1.2428 -1.9243
   63MOL   H18126345   5.130   3.639   7.686 -0.9446  2.2059 -0.3134
   63MOL   H18226346   5.103   3.420   0.213  1.0635 -0.7865  0.0653
   63MOL   H18326347   5.200   3.542   0.137 -0.3941 -0.9002  0.0762
   63MOL   H18426348   5.052   3.581   0.224  0.5201 -0.2739  1.2672
   63MOL   H18526349   5.039   3.305   7.649  1.3280 -2.1601  0.6688
   63MOL   H18626350   5.191   3.373   7.687 -1.1614  0.7300 -1.8700
   63MOL   H18726351   5.115   3.274   0.038  0.1451  0.2908  0.5953
   63MOL   H18826352   4.854   3.384   7.728  0.7589 -2.3766  0.9777
   63MOL   H18926353   4.877   3.367   0.136 -1.0954  0.3233  0.3811
   63MOL   H19026354   4.818   3.527   0.068  0.6085  0.5163  0.8599
   63MOL   C19126355   4.899   3.830   7.645 -0.2914  0.6974  0.7930
   63MOL   C19226356   4.767   3.773   7.589 -0.6775 -0.8286  0.5579
   63MOL   C19326357   4.753   3.821   7.440 -0.2771  0.4069  0.5497
   63MOL   C19426358   4.816   3.740   7.320 -0.1780 -0.2419  0.3419
   63MOL   C19526359   4.752   3.800   7.194  0.3995  0.5413 -0.2872
   63MOL   C19626360   4.770   3.592   7.335  0.1532  0.3325  1.5136
   63MOL   C19726361   4.976   3.755   7.323  0.1358 -0.2515  0.3026
   63MOL   H19826362   4.889   3.931   7.684  0.8896  0.0088  3.0136
   63MOL   H19926363   4.963   3.833   7.557  1.3125  0.4659  1.9271
   63MOL   H20026364   4.770   3.664   7.585  1.8503 -0.7158 -2.2343
   63MOL   H20126365   4.784   3.926   7.434  0.6637  0.3768  3.6448
   63MOL   H20226366   4.647   3.833   7.418 -0.4989 -1.1385  0.7732
   63MOL   H20326367   4.787   3.747   7.105  1.6978  1.2653 -0.2346
   63MOL   H20426368   4.644   3.801   7.201  0.4522  0.5728  0.5331
   63MOL   H20526369   4.797   3.896   7.168  0.9297  0.0713 -1.1450
   63MOL   H20626370   4.785   3.546   7.238 -1.8883  3.7603 -0.5350
   63MOL   H20726371   4.837   3.547   7.408  0.1338 -0.2892  1.1476
   63MOL   H20826372   4.664   3.582   7.358 -0.8305  1.2057 -2.3285
   63MOL   H20926373   5.004   3.855   7.354  2.1782 -0.8213  0.4126
   63MOL   H21026374   5.033   3.685   7.385  0.1303  0.3824  1.0276
   63MOL   H21126375   5.005   3.746   7.218  0.4204 -0.5220  0.4001
   63MOL   C21226376   4.647   3.815   7.676 -0.4128  0.3341  0.4937
   63MOL   C21326377   4.512   3.722   7.644 -0.5532 -0.0077  0.2227
   63MOL   C21426378   4.374   3.786   7.671  0.5364 -0.0097 -0.5553
   63MOL   C21526379   4.304   3.885   7.567 -0.0473  0.1749 -0.6798
   63MOL   C21626380   4.170   3.922   7.626 -0.2547 -0.0239 -0.9707
   63MOL   C21726381   4.395   4.007   7.541 -0.0769  0.3368 -0.1123
   63MOL   C21826382   4.275   3.830   7.426 -0.0874  0.1529 -0.7892
   63MOL   H21926383   4.663   3.785   0.014 -2.1298  0.5589  0.8381
   63MOL   H22026384   4.639   3.923   7.673 -0.6325  0.3264  0.8279
   63MOL   H22126385   4.509   3.689   7.540 -0.9659 -1.5582  0.7180
   63MOL   H22226386   4.396   3.840   7.764  3.3273 -2.6524  0.4111
   63MOL   H22326387   4.303   3.705   7.692  0.4155  0.8152  2.5092
   63MOL   H22426388   4.176   3.979   7.718  0.6035 -0.5713 -0.6721
   63MOL   H22526389   4.133   3.821   7.644  1.4030 -0.3333  0.8881
   63MOL   H22626390   4.101   3.968   7.555 -0.1213  1.9965  0.1844
   63MOL   H22726391   4.349   4.078   7.472  0.8832  0.4468 -0.6607
   63MOL   H22826392   4.423   4.066   7.628 -1.4057 -0.5179  0.9000
   63MOL   H22926393   4.486   3.975   7.490 -0.7917 -3.3568  0.7380
   63MOL   H23026394   4.358   3.782   7.374  0.8258 -0.0934  0.8771
   63MOL   H23126395   4.229   3.905   7.361  0.2497 -0.4680 -1.7698
   63MOL   H23226396   4.203   3.748   7.434  1.0407 -0.6709  1.2798
   63MOL   C23326397   4.525   3.597   7.734 -0.5501 -0.5012 -0.1713
   63MOL   C23426398   4.448   3.474   7.707  0.6055  0.0483 -0.2924
   63MOL   C23526399   4.514   3.415   7.580 -0.3367 -0.0226 -0.3368
   63MOL   C23626400   4.418   3.371   7.468 -0.7525 -0.1783 -0.0583
   63MOL   C23726401   4.300   3.281   7.515 -0.0270 -0.5904 -0.4165
   63MOL   C23826402   4.361   3.500   7.402 -0.2080 -0.1109 -0.2409
   63MOL   C23926403   4.504   3.307   7.363 -0.5442 -0.1201  0.0374
   63MOL   H24026404   4.508   3.638   0.068 -1.1312 -1.2443  0.0421
   63MOL   H24126405   4.628   3.564   7.733 -0.3526 -0.0863  2.9370
   63MOL   H24226406   4.343   3.495   7.683  0.4757 -1.9005 -1.5557
   63MOL   H24326407   4.582   3.489   7.539  0.7738 -0.8421  0.0233
   63MOL   H24426408   4.573   3.325   7.596 -1.1711 -0.5195  0.0003
   63MOL   H24526409   4.337   3.189   7.560  1.2403  0.0213 -0.1969
   63MOL   H24626410   4.237   3.251   7.431  0.1858  0.9986 -1.1710
   63MOL   H24726411   4.239   3.338   7.585  0.3872 -0.1314 -0.4271
   63MOL   H24826412   4.430   3.573   7.361 -0.6016  0.7975  0.6856
   63MOL   H24926413   4.273   3.478   7.342 -1.6621  1.6652  1.1882
   63MOL   H25026414   4.305   3.569   7.466 -2.1211 -0.7579 -1.1871
   63MOL   H25126415   4.437   3.262   7.290  0.1330 -1.1715  0.0581
   63MOL   H25226416   4.562   3.378   7.304 -3.0642  1.2941 -0.8433
   63MOL   H25326417   4.569   3.233   7.410 -2.1904 -2.4301 -1.2063
   63MOL   C25426418   4.454   3.359   0.043 -0.0785  0.7714  0.0412
   63MOL   C25526419   4.380   3.376   0.181  0.2494  0.0057 -0.9856
   63MOL   C25626420   4.381   3.247   0.277 -0.0012  0.3465 -0.1583
   63MOL   C25726421   4.519   3.183   0.319 -0.7931 -0.0674 -0.4181
   63MOL   C25826422   4.500   3.098   0.450 -1.0529 -0.5872  0.8137
   63MOL   C25926423   4.624   3.294   0.338 -0.2047 -0.4083 -0.0630
   63MOL   C26026424   4.570   3.075   0.215  0.7900  0.0116 -0.3708
   63MOL   H26126425   4.558   3.327   0.054  0.1248 -0.1681 -3.7770
   63MOL   H26226426   4.411   3.267   0.002 -1.6781  0.8271  1.5397
   63MOL   H26326427   4.424   3.458   0.237 -1.9214 -0.3799  1.3552
   63MOL   H26426428   4.336   3.291   0.366  2.4195  1.7009  0.4176
   63MOL   H26526429   4.306   3.172   0.250  0.2047  0.1481 -0.1795
   63MOL   H26626430   4.460   3.167   0.525 -0.8494  1.4078 -0.8660
   63MOL   H26726431   4.594   3.060   0.490 -0.5261 -0.1980 -0.0407
   63MOL   H26826432   4.430   3.017   0.431 -2.1480 -0.3219  3.4902
   63MOL   H26926433   4.669   3.340   0.250 -0.0462 -0.1289  0.1663
   63MOL   H27026434   4.712   3.242   0.376 -0.5067 -0.4536  0.5751
   63MOL   H27126435   4.604   3.364   0.418  1.9891 -0.3027  0.4035
   63MOL   H27226436   4.502   2.990   0.207  0.1391  0.2141  2.3258
   63MOL   H27326437   4.597   3.118   0.119 -2.4198 -1.5974 -2.0824
   63MOL   H27426438   4.658   3.029   0.261  0.1154  0.6187  1.6020
   63MOL   C27526439   4.238   3.414   0.141  0.0097 -0.1360 -0.2229
   63MOL   C27626440   4.120   3.410   0.238 -0.4166  0.6422 -0.0523
   63MOL   C27726441   4.128   3.510   0.356  0.0241 -0.3275 -0.4548
   63MOL   C27826442   4.071   3.468   0.501 -0.2650  0.3628 -0.0104
   63MOL   C27926443   4.150   3.349   0.557 -0.1720  1.0764 -0.1424
   63MOL   C28026444   4.104   3.587   0.590  0.2329  0.4056  0.1938
   63MOL   C28126445   3.916   3.437   0.503 -0.0979  0.0556 -0.1931
   63MOL   H28226446   4.227   3.514   0.100  1.1356 -0.9669 -2.6737
   63MOL   H28326447   4.209   3.347   0.059  1.3716  0.2514 -1.0449
   63MOL   H28426448   4.120   3.308   0.276  2.2267 -0.4529 -2.8368
   63MOL   H28526449   4.083   3.603   0.320  0.0784 -0.1329 -0.0220
   63MOL   H28626450   4.229   3.549   0.356 -0.2326  0.4178  1.6428
   63MOL   H28726451   4.111   3.318   0.654  0.2836  0.7278 -0.0699
   63MOL   H28826452   4.149   3.257   0.498 -0.7294  0.3637  0.9586
   63MOL   H28926453   4.254   3.378   0.571 -0.0517  0.8395 -0.5259
   63MOL   H29026454   4.091   3.572   0.698  1.5829 -0.1552  0.2869
   63MOL   H29126455   4.048   3.678   0.568  2.3948  1.5952 -0.5866
   63MOL   H29226456   4.208   3.620   0.587 -0.2615  2.1506  1.2431
   63MOL   H29326457   3.899   3.405   0.606  0.1828  0.3364 -0.0574
   63MOL   H29426458   3.902   3.363   0.424 -0.1462  0.9858 -1.0609
   63MOL   H29526459   3.857   3.525   0.479 -1.7490 -0.8544  0.4092
   63MOL   C29626460   3.977   3.426   0.159 -0.6424  0.1593  0.3388
   63MOL   C29726461   3.933   3.318   0.058 -0.2402 -0.3407  0.3990
   63MOL   C29826462   3.826   3.373   7.730 -0.2713 -0.0153  0.5995
   63MOL   C29926463   3.872   3.441   7.593  1.0652  0.4242 -0.5041
   63MOL   C30026464   3.894   3.335   7.476  0.2024 -0.6373 -0.0391
   63MOL   C30126465   3.757   3.533   7.554  0.3902 -0.0403 -0.1695
   63MOL   C30226466   3.992   3.529   7.600  0.4955  0.2992  0.1326
   63MOL   H30326467   3.996   3.515   0.099  0.9462 -0.6310 -0.3658
   63MOL   H30426468   3.894   3.456   0.223 -0.3105  0.9211  0.4090
   63MOL   H30526469   4.018   3.293   7.761  0.4351 -1.6423  1.8098
   63MOL   H30626470   3.771   3.452   0.014  0.5039  0.7039  0.3414
   63MOL   H30726471   3.754   3.298   7.698 -2.0978  1.1269  1.9913
   63MOL   H30826472   3.981   3.270   7.485 -0.6152 -2.2541 -3.2124
   63MOL   H30926473   3.808   3.268   7.468 -0.6232  0.3251  0.5839
   63MOL   H31026474   3.896   3.384   7.379 -2.4638  1.2793  0.8100
   63MOL   H31126475   3.785   3.563   7.453  0.1008  0.3934 -0.1221
   63MOL   H31226476   3.664   3.477   7.562 -0.8876  2.2696  1.7061
   63MOL   H31326477   3.743   3.623   7.614  2.3682  0.7913 -0.9067
   63MOL   H31426478   3.972   3.628   7.640 -1.2514  0.0905 -0.2053
   63MOL   H31526479   4.073   3.483   7.657 -0.5588  0.0984  1.4947
   63MOL   H31626480   4.025   3.549   7.498 -1.6910 -1.2766 -0.9059
   63MOL   C31726481   3.881   3.190   0.130 -0.0441  0.1645 -0.1375
   63MOL   C31826482   3.911   3.053   0.060 -0.2520  0.8218  0.2848
   63MOL   C31926483   4.061   3.024   0.087  0.1226 -0.0411 -0.2434
   63MOL   C32026484   4.134   2.938   7.755  0.2857 -0.3050  0.5053
   63MOL   C32126485   4.091   2.792   0.004  0.5497 -0.2046 -0.9095
   63MOL   C32226486   4.284   2.947   0.017 -0.0065 -0.7166 -0.5664
   63MOL   C32326487   4.120   2.980   7.608 -0.2526 -0.2366  0.1393
   63MOL   H32426488   3.931   3.191   0.227  1.5210  0.2804 -0.9266
   63MOL   H32526489   3.779   3.220   0.153 -0.9158 -1.2417 -2.1199
   63MOL   H32626490   3.892   3.064   7.720  0.7251  2.2151  0.2372
   63MOL   H32726491   4.065   2.984   0.188  1.0722  1.6793  0.4223
   63MOL   H32826492   4.116   3.116   0.108  2.1134 -1.6207  1.6308
   63MOL   H32926493   4.135   2.738   7.686 -0.5426  0.0611 -1.6549
   63MOL   H33026494   3.986   2.771   7.751 -0.0654  1.4637  0.4689
   63MOL   H33126495   4.127   2.747   0.097 -0.9763 -0.2908 -0.3448
   63MOL   H33226496   4.328   3.045   0.002 -0.9202 -0.2369 -0.1248
   63MOL   H33326497   4.298   2.925   0.123  0.9505 -1.6653 -0.8844
   63MOL   H33426498   4.344   2.874   7.729 -0.0725 -1.9509  0.9978
   63MOL   H33526499   4.034   2.957   7.545  0.0812  1.0934 -0.8413
   63MOL   H33626500   4.205   2.941   7.551 -0.3189 -0.8691  0.4680
   63MOL   H33726501   4.134   3.088   7.598 -0.1663 -0.3528 -1.0855
   63MOL   C33826502   3.805   2.949   0.114 -0.9377  0.2221 -0.3892
   63MOL   C33926503   3.653   2.961   0.078  0.3662 -0.3606  0.2390
   63MOL   C34026504   3.574   2.890   0.187 -0.4504 -0.0863  0.2988
   63MOL   C34126505   3.487   2.976   0.284  0.3462 -0.2348 -0.5084
   63MOL   C34226506   3.582   3.067   0.366  0.4598  0.6154 -0.3377
   63MOL   C34326507   3.371   3.061   0.217  0.6409 -0.3346 -0.4759
   63MOL   C34426508   3.407   2.878   0.380 -0.1808  0.2986  1.1263
   63MOL   H34526509   3.827   2.942   0.220  1.8758  2.4691 -0.7815
   63MOL   H34626510   3.828   2.847   0.085  0.9211  0.6915 -0.6246
   63MOL   H34726511   3.617   3.064   0.081  0.1974 -0.4197  0.2635
   63MOL   H34826512   3.635   2.825   0.249  0.3882 -0.1770 -0.6156
   63MOL   H34926513   3.499   2.823   0.145  0.2105  0.0117 -1.0706
   63MOL   H35026514   3.669   3.016   0.408  0.3457  0.0038 -0.8273
   63MOL   H35126515   3.625   3.140   0.297  0.4811  1.3267  0.4167
   63MOL   H35226516   3.530   3.130   0.438  0.2668 -1.0805  1.0424
   63MOL   H35326517   3.290   2.995   0.185 -2.5198  2.2222  1.8916
   63MOL   H35426518   3.329   3.124   0.296 -1.4459 -1.7914 -0.3665
   63MOL   H35526519   3.393   3.118   0.127 -0.2596  0.4517 -0.2001
   63MOL   H35626520   3.473   2.814   0.438  0.2954  0.2856  0.5790
   63MOL   H35726521   3.362   2.940   0.458 -2.9072 -1.6481  1.1739
   63MOL   H35826522   3.331   2.815   0.333  0.1153  0.9787 -0.2858
   63MOL   C35926523   3.632   2.900   7.702 -0.0620 -0.2740  0.3090
   63MOL   C36026524   3.524   2.969   7.615  0.0374 -0.1299 -0.8861
   63MOL   C36126525   3.475   2.877   7.499  0.2105  0.8393 -0.7271
   63MOL   C36226526   3.344   2.802   7.499  0.3433 -0.3936 -0.0886
   63MOL   C36326527   3.325   2.723   7.370  0.7796 -0.4112 -0.8346
   63MOL   C36426528   3.226   2.892   7.533  0.0107  0.1000  0.4755
   63MOL   C36526529   3.346   2.692   7.605 -0.2325  0.4294 -0.2573
   63MOL   H36626530   3.597   2.798   7.719 -1.4772 -0.1244 -1.5463
   63MOL   H36726531   3.726   2.916   7.649 -0.3861  1.9004  0.3260
   63MOL   H36826532   3.438   2.984   7.680  0.4927  0.6217 -0.4385
   63MOL   H36926533   3.474   2.942   7.411  0.8840  2.6373  0.5773
   63MOL   H37026534   3.555   2.804   7.481 -2.3655 -1.6608 -2.4495
   63MOL   H37126535   3.350   2.779   7.280 -0.3700  1.1110 -0.2205
   63MOL   H37226536   3.394   2.639   7.374  2.0054  0.6707  1.5835
   63MOL   H37326537   3.221   2.690   7.358  1.3400 -2.9976  0.9755
   63MOL   H37426538   3.135   2.831   7.540 -1.6079  2.3275 -0.4115
   63MOL   H37526539   3.210   2.965   7.453  2.1855 -2.2783 -2.2515
   63MOL   H37626540   3.228   2.951   7.625 -2.2779  1.0293 -0.0299
   63MOL   H37726541   3.431   2.625   7.593 -0.7764 -0.5534  1.3812
   63MOL   H37826542   3.254   2.635   7.622  0.2998 -0.1792  0.5935
   63MOL   H37926543   3.359   2.738   7.702  1.6443 -4.7254  2.1168
   63MOL   C38026544   3.559   3.109   7.565  0.2498 -0.2321  0.1159
   63MOL   C38126545   3.437   3.198   7.531 -0.3995 -0.4270 -0.1805
   63MOL   C38226546   3.483   3.314   7.434 -0.4480  0.4165  0.2705
   63MOL   C38326547   3.425   3.305   7.288  0.3683 -0.1929 -0.5374
   63MOL   C38426548   3.522   3.389   7.198  0.0939  0.0626  0.0273
   63MOL   C38526549   3.278   3.371   7.287 -0.3432 -0.4649  0.0003
   63MOL   C38626550   3.417   3.165   7.218 -0.0347  0.9219 -0.9789
   63MOL   H38726551   3.624   3.096   7.479  0.0305  1.2646 -0.2759
   63MOL   H38826552   3.620   3.155   7.642  1.6839 -4.4186  1.6332
   63MOL   H38926553   3.364   3.137   7.477 -0.8571  1.1274 -1.3604
   63MOL   H39026554   3.449   3.408   7.476  2.6866  2.0422 -0.6425
   63MOL   H39126555   3.592   3.311   7.437 -0.4929 -0.0630  2.4219
   63MOL   H39226556   3.472   3.403   7.102  1.5325  1.9447 -0.4813
   63MOL   H39326557   3.545   3.482   7.250  1.1146 -0.9583  1.4551
   63MOL   H39426558   3.611   3.330   7.176  0.1939  0.0398  0.4780
   63MOL   H39526559   3.248   3.390   7.184 -0.3733  0.1562  0.1264
   63MOL   H39626560   3.281   3.475   7.318 -1.0132 -0.5454  0.3401
   63MOL   H39726561   3.206   3.309   7.341  1.5065 -2.5679  0.1256
   63MOL   H39826562   3.391   3.175   7.113  0.2367 -0.6574 -1.2070
   63MOL   H39926563   3.338   3.100   7.256 -1.0142  3.2569  1.1130
   63MOL   H40026564   3.512   3.113   7.229  0.3622  1.9252  0.4519
   63MOL   C40126565   3.359   3.261   7.650  0.2380 -0.2242 -0.5063
   63MOL   C40226566   3.440   3.346   7.746  0.4216 -0.8956  0.1197
   63MOL   C40326567   3.350   3.416   0.079  0.2652 -0.0878 -1.0000
   63MOL   C40426568   3.420   3.503   0.188  0.5513 -0.4401 -0.9793
   63MOL   C40526569   3.500   3.626   0.143  0.0165 -0.3050  0.2474
   63MOL   C40626570   3.514   3.420   0.277  0.0867 -0.1989  0.0957
   63MOL   C40726571   3.306   3.548   0.275 -0.5883  0.2623 -0.1772
   63MOL   H40826572   3.275   3.318   7.610 -0.1254  0.1435  0.7739
   63MOL   H40926573   3.300   3.185   7.700 -1.4664  1.1359 -0.3932
   63MOL   H41026574   3.511   3.285   0.035  0.7927  1.0375  1.8681
   63MOL   H41126575   3.288   3.352   0.142  0.7843  0.8064  0.4401
   63MOL   H41226576   3.288   3.483   0.019  0.3812 -2.4097 -3.7876
   63MOL   H41326577   3.434   3.698   0.094 -1.4563 -2.0053 -0.3299
   63MOL   H41426578   3.591   3.613   0.084  0.1227  1.5131 -0.0457
   63MOL   H41526579   3.539   3.682   0.228  1.8465  0.4238 -1.0280
   63MOL   H41626580   3.462   3.335   0.320 -0.0366 -0.5937 -0.8096
   63MOL   H41726581   3.555   3.483   0.356 -1.5977  0.9404  0.0726
   63MOL   H41826582   3.606   3.382   0.232  0.0840 -0.8853  0.6658
   63MOL   H41926583   3.338   3.610   0.359  0.0472  1.6926 -1.4579
   63MOL   H42026584   3.238   3.612   0.219  1.1731  0.3337 -2.3147
   63MOL   H42126585   3.257   3.470   0.334 -3.0890  1.7635 -0.1836
   63MOL   H42226586   3.501   3.425   7.700 -1.4816 -0.3661 -1.5904
   64MOL     C126587   0.915   4.823   2.510 -0.0716  0.8730 -0.0943
   64MOL     C226588   0.926   4.944   2.608  0.3221 -0.2201 -0.1181
   64MOL     C326589   0.812   4.927   2.708  0.9485 -1.0915  0.0661
   64MOL     C426590   0.844   4.918   2.865 -0.7755  0.2215  0.1233
   64MOL     C526591   0.917   4.783   2.889  0.8646  0.3632  0.0997
   64MOL     C626592   0.917   5.046   2.906  0.0156 -0.0696 -0.1847
   64MOL     C726593   0.707   4.912   2.932 -0.4309 -0.2093  0.0656
   64MOL     H826594   1.009   4.814   2.455 -0.9712  0.0709 -1.5252
   64MOL     H926595   0.897   4.728   2.558 -0.2824  1.3745  0.8220
   64MOL    H1026596   1.023   4.954   2.656  0.8865  2.5427 -1.7178
   64MOL    H1126597   0.744   4.853   2.667 -0.8971  1.0595 -0.8628
   64MOL    H1226598   0.744   5.012   2.704  0.4306 -1.5671 -1.4770
   64MOL    H1326599   1.015   4.796   2.844  0.8120 -0.5217 -0.2701
   64MOL    H1426600   0.871   4.701   2.833  0.4619  0.2788  0.5570
   64MOL    H1526601   0.919   4.752   2.993 -0.9458  1.2708  0.4399
   64MOL    H1626602   0.944   5.051   3.012  1.0559  1.5251 -0.5140
   64MOL    H1726603   1.009   5.059   2.850  0.0676 -0.3290 -0.1588
   64MOL    H1826604   0.854   5.129   2.874 -0.8374 -1.5405 -2.4415
   64MOL    H1926605   0.651   5.006   2.939  0.9552  0.7827 -1.8169
   64MOL    H2026606   0.724   4.882   3.035  3.6745 -1.6540 -0.9698
   64MOL    H2126607   0.644   4.841   2.879 -2.3750  0.7302  1.0204
   64MOL    H2226608   0.839   4.835   2.433 -1.6814  0.4623  1.4198
   64MOL    C2326609   0.916   5.080   2.532  0.0021  0.3429  0.0130
   64MOL    C2426610   1.025   5.112   2.422  0.2247 -0.3735 -0.0170
   64MOL    C2526611   1.155   5.162   2.495 -0.1650 -0.1692 -0.1746
   64MOL    C2626612   1.287   5.138   2.414 -0.5271 -0.2807 -0.6885
   64MOL    C2726613   1.315   4.987   2.414 -1.1379  0.0741  0.3855
   64MOL    C2826614   1.283   5.178   2.270  0.1257  0.4592 -0.0396
   64MOL    C2926615   1.408   5.205   2.487  0.5650  0.6932  0.5756
   64MOL    H3026616   0.821   5.078   2.479 -0.8212  1.2650  1.4462
   64MOL    H3126617   0.914   5.167   2.598  0.8357  0.2388  0.1837
   64MOL    H3226618   1.050   5.022   2.366  1.0111  0.5567 -1.1686
   64MOL    H3326619   1.166   5.118   2.594  0.7749 -2.5945 -1.2944
   64MOL    H3426620   1.147   5.269   2.510 -1.7784 -0.6349  2.6368
   64MOL    H3526621   1.395   4.953   2.349 -0.5334  0.2574  1.0245
   64MOL    H3626622   1.349   4.959   2.514  0.0252  1.6130  0.4375
   64MOL    H3726623   1.223   4.932   2.392 -1.2721 -0.4336  2.0981
   64MOL    H3826624   1.212   5.124   2.208 -1.3246  1.8684  0.3506
   64MOL    H3926625   1.266   5.285   2.256  1.7903  1.1159  2.5330
   64MOL    H4026626   1.378   5.179   2.217  0.2385 -0.0536  0.1556
   64MOL    H4126627   1.423   5.152   2.581  0.4080 -0.2827  0.0572
   64MOL    H4226628   1.404   5.314   2.491 -0.3019  0.6265  1.8178
   64MOL    H4326629   1.501   5.185   2.434  0.0191 -0.7220  0.1338
   64MOL    C4426630   0.968   5.218   2.326 -0.1475  0.3921  1.0825
   64MOL    C4526631   0.937   5.171   2.185  0.0829  0.5807 -0.5847
   64MOL    C4626632   0.888   5.296   2.094  0.2437 -0.5792 -0.0230
   64MOL    C4726633   0.981   5.403   2.037 -0.1951 -0.1467 -0.6210
   64MOL    C4826634   1.095   5.340   1.951 -0.6309 -0.0132 -1.2825
   64MOL    C4926635   1.027   5.506   2.142 -0.0957 -0.0163 -0.4842
   64MOL    C5026636   0.898   5.495   1.933 -0.8432 -0.2625  0.6636
   64MOL    H5126637   0.884   5.267   2.375 -0.3703  0.2646  0.8274
   64MOL    H5226638   1.043   5.296   2.317 -0.5383  0.4105 -2.5186
   64MOL    H5326639   1.023   5.132   2.131 -0.5932  0.0805 -1.3280
   64MOL    H5426640   0.821   5.359   2.151  0.7039 -0.6661  0.6190
   64MOL    H5526641   0.829   5.259   2.010 -0.3694 -2.6921  1.3269
   64MOL    H5626642   1.166   5.284   2.013  1.8251  2.4546 -1.7461
   64MOL    H5726643   1.176   5.410   1.932 -0.4124 -0.6247 -2.6850
   64MOL    H5826644   1.059   5.287   1.863 -0.5505 -2.1166 -0.0840
   64MOL    H5926645   0.960   5.514   2.228  1.1132 -1.6853  0.6538
   64MOL    H6026646   1.122   5.482   2.189 -1.0010  1.5580  2.2444
   64MOL    H6126647   1.042   5.598   2.085 -2.9067 -0.6936 -2.4540
   64MOL    H6226648   0.832   5.562   1.988 -2.4157 -0.6493 -0.7154
   64MOL    H6326649   0.959   5.550   1.861  1.0078 -0.3842  2.0930
   64MOL    H6426650   0.835   5.439   1.864  2.2116 -0.2548 -2.2909
   64MOL    C6526651   0.828   5.060   2.194  0.9879  0.3141 -0.0068
   64MOL    C6626652   0.827   4.951   2.078 -0.6287 -0.0461 -0.7922
   64MOL    C6726653   0.684   4.885   2.091  0.1243  0.4163  0.4643
   64MOL    C6826654   0.563   4.937   2.007 -0.3926 -0.2228  0.1460
   64MOL    C6926655   0.442   4.850   2.050  0.2151 -0.4341 -0.6731
   64MOL    C7026656   0.523   5.082   2.050 -0.6199 -0.8317  0.8247
   64MOL    C7126657   0.588   4.935   1.854 -0.1504 -0.2902 -0.1737
   64MOL    H7226658   0.832   4.999   2.285 -0.2647  0.3932  0.1056
   64MOL    H7326659   0.738   5.121   2.193  1.5513  1.2778  2.8733
   64MOL    H7426660   0.841   4.997   1.980  0.7257 -1.2545 -1.1898
   64MOL    H7526661   0.646   4.864   2.191 -0.4964  1.1570  0.3983
   64MOL    H7626662   0.699   4.786   2.050  2.1092  1.5507 -1.6592
   64MOL    H7726663   0.454   4.744   2.030 -1.5298 -0.8431  0.3288
   64MOL    H7826664   0.412   4.850   2.155 -0.4519  1.6104 -0.8433
   64MOL    H7926665   0.350   4.873   1.997 -0.3531 -0.4332  0.3021
   64MOL    H8026666   0.587   5.158   2.007  2.7004 -2.7560  2.2083
   64MOL    H8126667   0.520   5.092   2.159  0.9123  1.6787  0.6463
   64MOL    H8226668   0.423   5.092   2.007 -0.8420  0.1076  1.5455
   64MOL    H8326669   0.695   4.942   1.832 -0.3032  1.4534 -0.4093
   64MOL    H8426670   0.534   5.014   1.801  0.8896  0.9988  0.6664
   64MOL    H8526671   0.561   4.840   1.808  2.1199 -0.4261 -1.3232
   64MOL    C8626672   0.953   4.866   2.080  0.1286  0.1447 -0.8120
   64MOL    C8726673   0.956   4.745   1.988  0.0778 -0.4055  0.2364
   64MOL    C8826674   0.925   4.612   2.059 -0.2723 -0.4042 -0.2233
   64MOL    C8926675   0.848   4.503   1.995 -0.0958  0.3788 -0.2933
   64MOL    C9026676   0.703   4.544   1.957 -0.5339 -0.3062  0.5974
   64MOL    C9126677   0.834   4.388   2.102  0.0985 -0.3867 -0.2679
   64MOL    C9226678   0.924   4.458   1.869  0.8344  0.3018  0.0474
   64MOL    H9326679   0.972   4.841   2.185 -0.0624 -2.0583 -1.2743
   64MOL    H9426680   1.042   4.926   2.062 -1.3813  2.4846 -0.6666
   64MOL    H9526681   0.877   4.767   1.915 -0.7186  4.2855  2.3094
   64MOL    H9626682   0.868   4.638   2.148 -0.8906 -0.4103 -0.6199
   64MOL    H9726683   1.016   4.568   2.099 -0.4215 -0.2201  0.3250
   64MOL    H9826684   0.638   4.582   2.035 -0.8288 -1.3695  0.8674
   64MOL    H9926685   0.653   4.456   1.916  1.6469 -1.4573  0.2855
   64MOL   H10026686   0.716   4.626   1.885  2.1751 -0.9286  0.3082
   64MOL   H10126687   0.925   4.346   2.145 -0.4814  0.4356  1.8385
   64MOL   H10226688   0.770   4.413   2.187  0.0442  0.7884 -0.6475
   64MOL   H10326689   0.780   4.303   2.060 -0.2142  0.1368 -0.9266
   64MOL   H10426690   0.901   4.354   1.843 -3.4674  0.7163  1.7704
   64MOL   H10526691   0.896   4.518   1.783 -0.1313  1.7828  1.3735
   64MOL   H10626692   1.030   4.436   1.884  0.3720 -0.8204  1.8174
   64MOL   C10726693   1.094   4.743   1.907 -0.7693 -0.3621  0.3113
   64MOL   C10826694   1.115   4.854   1.801  0.7558 -0.1328  0.0222
   64MOL   C10926695   1.255   4.837   1.738  0.1092  0.1639  0.5002
   64MOL   C11026696   1.373   4.920   1.798 -0.2714  0.0726  0.6684
   64MOL   C11126697   1.411   4.871   1.940  0.0229 -0.8152  0.2601
   64MOL   C11226698   1.344   5.072   1.802 -0.1852  0.2220 -0.0225
   64MOL   C11326699   1.491   4.903   1.705 -0.0326  0.1746 -0.7700
   64MOL   H11426700   1.100   4.643   1.863 -1.8284 -0.1194 -0.3994
   64MOL   H11526701   1.175   4.737   1.980  0.5178  0.4082 -1.0309
   64MOL   H11626702   1.111   4.952   1.849  2.5024  0.5034 -1.1137
   64MOL   H11726703   1.275   4.731   1.747  1.5099  0.3300 -0.4314
   64MOL   H11826704   1.251   4.859   1.631 -1.0201  1.3876  0.7756
   64MOL   H11926705   1.412   4.762   1.943  1.8500 -0.8867 -1.7228
   64MOL   H12026706   1.502   4.915   1.982  0.3569 -1.9175  0.6895
   64MOL   H12126707   1.332   4.912   2.003  2.1534  0.7031  2.0326
   64MOL   H12226708   1.432   5.124   1.841  0.4211  0.3918 -1.5858
   64MOL   H12326709   1.253   5.103   1.852 -0.1086 -0.3860  0.5121
   64MOL   H12426710   1.339   5.116   1.703 -0.1972 -0.3874 -0.2938
   64MOL   H12526711   1.476   4.943   1.604 -0.7366 -0.4719 -0.9214
   64MOL   H12626712   1.511   4.799   1.679 -0.1458  0.1198 -0.6387
   64MOL   H12726713   1.586   4.947   1.737  0.7775 -2.3818  0.4450
   64MOL   C12826714   1.001   4.861   1.701 -1.3711  0.0778 -0.7769
   64MOL   C12926715   1.009   4.964   1.585  0.5478  0.4212  0.1005
   64MOL   C13026716   0.931   4.907   1.456 -0.0993 -0.3000 -0.2641
   64MOL   C13126717   0.978   4.775   1.378 -0.3655  0.1809  0.2717
   64MOL   C13226718   0.890   4.664   1.440 -0.1254 -0.1812 -0.2248
   64MOL   C13326719   1.127   4.747   1.386  0.5626  0.0577 -0.1050
   64MOL   C13426720   0.952   4.808   1.228  0.2246 -0.6076  0.2486
   64MOL   H13526721   0.906   4.894   1.743  0.2896  0.1933  3.1561
   64MOL   H13626722   0.996   4.757   1.668 -0.5185 -0.8935  2.0080
   64MOL   H13726723   1.112   4.985   1.555 -0.1605  0.2397 -2.5850
   64MOL   H13826724   0.823   4.908   1.465 -0.2567  0.6770 -2.0309
   64MOL   H13926725   0.946   4.994   1.392  4.0366  0.4069  1.4739
   64MOL   H14026726   0.786   4.696   1.444 -0.4755 -1.0697 -1.6893
   64MOL   H14126727   0.914   4.630   1.541  0.0124  2.2685  0.5851
   64MOL   H14226728   0.881   4.576   1.375  4.1892 -0.9070 -0.0204
   64MOL   H14326729   1.163   4.725   1.486 -1.1754 -0.1489  0.4992
   64MOL   H14426730   1.176   4.839   1.353  0.6110 -0.3461 -1.1629
   64MOL   H14526731   1.163   4.659   1.333 -1.4037  0.8250 -2.8174
   64MOL   H14626732   0.945   4.714   1.174 -0.9744 -2.0018  2.7389
   64MOL   H14726733   0.855   4.856   1.214 -0.2184 -1.6691 -0.4389
   64MOL   H14826734   1.021   4.881   1.187 -1.3188  0.4542 -0.5147
   64MOL   C14926735   0.955   5.111   1.635 -0.2127  0.1973  0.5115
   64MOL   C15026736   0.987   5.232   1.548 -0.0048  0.2167  0.1653
   64MOL   C15126737   0.888   5.352   1.555  0.1337  0.7657  0.1869
   64MOL   C15226738   0.742   5.329   1.494 -0.1975  0.1755 -0.0818
   64MOL   C15326739   0.649   5.276   1.604  0.6895  0.4069  0.3318
   64MOL   C15426740   0.746   5.227   1.369  0.4898 -0.8537 -0.6096
   64MOL   C15526741   0.691   5.468   1.447 -0.3420 -0.1092  0.0781
   64MOL   H15626742   1.004   5.134   1.729  0.3111 -0.7539  0.4761
   64MOL   H15726743   0.847   5.115   1.648 -0.2790 -0.2232  0.1527
   64MOL   H15826744   0.994   5.203   1.443  0.3736  0.1953  0.1954
   64MOL   H15926745   0.930   5.434   1.497 -0.6284  0.5800 -0.6451
   64MOL   H16026746   0.886   5.398   1.654  3.0615 -1.0446  1.1539
   64MOL   H16126747   0.664   5.169   1.619 -1.0207 -0.0071 -0.6885
   64MOL   H16226748   0.658   5.347   1.686  0.6710  0.7177  0.0660
   64MOL   H16326749   0.544   5.278   1.573  1.4874  1.7404 -2.4539
   64MOL   H16426750   0.775   5.128   1.404  0.1792 -0.8337 -0.2912
   64MOL   H16526751   0.807   5.267   1.288 -0.1216 -2.2855 -1.7992
   64MOL   H16626752   0.643   5.210   1.337 -0.0272 -0.9409  1.0222
   64MOL   H16726753   0.675   5.538   1.529  0.6877  0.2377 -0.0155
   64MOL   H16826754   0.760   5.518   1.380  1.0131 -0.7889  0.9534
   64MOL   H16926755   0.589   5.457   1.409 -0.3663  1.0708 -0.2225
   64MOL   C17026756   1.138   5.267   1.573  0.3668  0.4543 -0.7343
   64MOL   C17126757   1.194   5.374   1.484 -0.0019 -0.1452  0.1229
   64MOL   C17226758   1.336   5.342   1.427  0.1741  0.3456 -0.4733
   64MOL   C17326759   1.334   5.245   1.305 -0.3888  0.7540  0.6568
   64MOL   C17426760   1.269   5.304   1.179 -0.9898 -0.3225  0.3197
   64MOL   C17526761   1.292   5.104   1.327 -0.2282  0.3315 -0.0050
   64MOL   C17626762   1.484   5.225   1.280 -0.0213 -1.1678 -0.3916
   64MOL   H17726763   1.192   5.173   1.573 -0.9120 -0.3052  0.2103
   64MOL   H17826764   1.152   5.302   1.676 -0.7786  0.6896 -0.6546
   64MOL   H17926765   1.125   5.384   1.401  2.1422  0.6965 -1.6080
   64MOL   H18026766   1.393   5.433   1.412 -0.5824  0.7323 -0.9947
   64MOL   H18126767   1.396   5.297   1.507 -1.9187 -0.2694  0.7982
   64MOL   H18226768   1.162   5.324   1.186 -1.0555  0.2816 -2.2565
   64MOL   H18326769   1.318   5.399   1.158  0.2239 -0.6317  1.6640
   64MOL   H18426770   1.284   5.238   1.095  0.9393 -1.2800  1.3793
   64MOL   H18526771   1.309   5.037   1.243 -0.1831  0.7174 -0.3033
   64MOL   H18626772   1.315   5.051   1.420 -0.1219 -1.7664 -1.2035
   64MOL   H18726773   1.184   5.096   1.334 -0.0453 -0.9130  1.9691
   64MOL   H18826774   1.529   5.324   1.264 -1.7153  0.0830  2.1606
   64MOL   H18926775   1.525   5.168   1.364 -3.1418  0.0136  2.0513
   64MOL   H19026776   1.506   5.174   1.187  2.5015 -0.2496 -0.3482
   64MOL   C19126777   1.194   5.511   1.555 -0.0477 -0.4605  0.4331
   64MOL   C19226778   1.235   5.636   1.486  0.4355 -0.0103 -0.5064
   64MOL   C19326779   1.243   5.763   1.578  0.5003 -0.7086 -0.7900
   64MOL   C19426780   1.322   5.771   1.710 -0.4822  0.2614 -0.3388
   64MOL   C19526781   1.311   5.918   1.764 -0.1310  0.6539 -0.4772
   64MOL   C19626782   1.467   5.744   1.681 -0.7129  0.1909 -0.6090
   64MOL   C19726783   1.266   5.678   1.820  0.4800 -0.0783  0.2329
   64MOL   H19826784   1.106   5.525   1.617 -0.4540  1.7486 -0.5972
   64MOL   H19926785   1.264   5.491   1.636  0.5155 -0.7877 -0.1255
   64MOL   H20026786   1.338   5.619   1.454  1.1520 -0.3937  1.8608
   64MOL   H20126787   1.138   5.786   1.599  0.9048  1.3501 -0.9245
   64MOL   H20226788   1.258   5.844   1.507  0.5112 -1.0198 -1.1450
   64MOL   H20326789   1.209   5.948   1.790  0.2622  0.7750  0.9926
   64MOL   H20426790   1.381   5.938   1.845 -0.3979 -3.8960  1.0097
   64MOL   H20526791   1.352   5.977   1.682  0.7285  0.3929 -0.2414
   64MOL   H20626792   1.497   5.641   1.704  2.0885  1.2776  0.8558
   64MOL   H20726793   1.489   5.761   1.576 -3.0833 -1.2290 -1.3814
   64MOL   H20826794   1.540   5.800   1.739  1.0224 -1.3018 -1.2905
   64MOL   H20926795   1.303   5.576   1.812 -2.2061 -1.0226 -0.5777
   64MOL   H21026796   1.290   5.717   1.919 -3.1132  1.3630  0.5747
   64MOL   H21126797   1.158   5.683   1.810  0.8210  1.3111 -3.1939
   64MOL   C21226798   1.149   5.666   1.357  0.6381  0.7340 -0.2440
   64MOL   C21326799   1.188   5.784   1.263 -0.4806 -0.1835  0.1033
   64MOL   C21426800   1.082   5.788   1.144  0.1873  0.1576 -0.2482
   64MOL   C21526801   0.964   5.892   1.138  0.9247 -0.2931 -0.2426
   64MOL   C21626802   1.023   6.021   1.080  0.0963 -0.3742  0.7540
   64MOL   C21726803   0.844   5.841   1.055 -0.4592 -0.3616  0.1823
   64MOL   C21826804   0.904   5.926   1.275  0.5386  0.4316  0.2310
   64MOL   H21926805   1.156   5.575   1.298 -0.9270  1.8737 -2.2450
   64MOL   H22026806   1.044   5.672   1.389 -0.1918 -5.3758 -1.2300
   64MOL   H22126807   1.191   5.883   1.311 -1.9689  1.2551 -2.6548
   64MOL   H22226808   1.030   5.693   1.161  0.7369 -0.4481 -1.9335
   64MOL   H22326809   1.128   5.788   1.046  0.5164 -0.5552 -0.1026
   64MOL   H22426810   0.946   6.094   1.057 -1.8722 -2.1752  1.4610
   64MOL   H22526811   1.088   5.996   0.995 -0.9428  0.7340 -0.3965
   64MOL   H22626812   1.081   6.067   1.160  1.7329 -2.0966  0.6036
   64MOL   H22726813   0.881   5.824   0.954 -0.3427  1.9606 -0.1937
   64MOL   H22826814   0.820   5.742   1.091  0.0504  0.0511  1.6977
   64MOL   H22926815   0.756   5.904   1.055 -0.8193 -0.8600  1.2765
   64MOL   H23026816   0.831   6.005   1.258 -0.4924 -0.7323 -0.8312
   64MOL   H23126817   0.975   5.967   1.347  0.8230 -0.3705  0.4120
   64MOL   H23226818   0.861   5.835   1.317  0.8260  1.6480  3.2379
   64MOL   C23326819   1.329   5.748   1.210  0.5905 -0.2399 -0.0820
   64MOL   C23426820   1.424   5.867   1.179 -0.0130 -0.2009 -0.1046
   64MOL   C23526821   1.503   5.906   1.306 -0.0952  0.3836  0.1353
   64MOL   C23626822   1.527   6.051   1.341  0.4605 -0.3575  0.3324
   64MOL   C23726823   1.605   6.068   1.470  0.3874 -0.8836  0.0003
   64MOL   C23826824   1.605   6.123   1.226  0.8550 -0.0358  0.3894
   64MOL   C23926825   1.390   6.125   1.372 -0.3560  0.8880  0.0901
   64MOL   H24026826   1.304   5.694   1.119 -0.0238  1.6331 -1.0615
   64MOL   H24126827   1.390   5.672   1.259 -0.3786 -1.4185 -0.6799
   64MOL   H24226828   1.360   5.952   1.154  0.2848  0.6037  1.7941
   64MOL   H24326829   1.454   5.860   1.392  0.9197  2.9820  2.1763
   64MOL   H24426830   1.599   5.856   1.295  0.5937  1.9366 -1.1382
   64MOL   H24526831   1.560   6.009   1.550 -0.4884 -1.7814 -1.1553
   64MOL   H24626832   1.624   6.173   1.496 -2.4320 -0.4610  0.4829
   64MOL   H24726833   1.708   6.037   1.453  1.5282  2.6776 -0.0159
   64MOL   H24826834   1.688   6.059   1.197  1.1029 -1.5463  4.0824
   64MOL   H24926835   1.538   6.140   1.142  1.1199 -0.5383  0.0720
   64MOL   H25026836   1.642   6.217   1.267 -1.3453  1.1369 -0.2485
   64MOL   H25126837   1.406   6.233   1.376  0.3584  0.7531  0.9673
   64MOL   H25226838   1.311   6.100   1.301 -0.2229 -1.4184  0.7024
   64MOL   H25326839   1.342   6.093   1.465  1.4156  0.6845  0.9384
   64MOL   C25426840   1.519   5.839   1.062 -0.2496 -0.3591 -0.2196
   64MOL   C25526841   1.467   5.805   0.918  0.4494 -0.0450  0.2254
   64MOL   C25626842   1.572   5.728   0.838  0.0667 -0.0206 -0.2551
   64MOL   C25726843   1.564   5.571   0.834  0.0253 -0.3376  0.4048
   64MOL   C25826844   1.671   5.520   0.733 -0.8588 -0.0547  0.4291
   64MOL   C25926845   1.435   5.513   0.781  0.1323 -0.1342  0.5953
   64MOL   C26026846   1.590   5.505   0.972 -0.1229  0.1940  0.6862
   64MOL   H26126847   1.573   5.751   1.097  0.9085 -0.4937 -2.2366
   64MOL   H26226848   1.598   5.915   1.062  2.0563 -2.7030 -0.7314
   64MOL   H26326849   1.378   5.744   0.934 -1.8526  2.7519 -1.3735
   64MOL   H26426850   1.555   5.759   0.735 -3.2174 -3.1359 -0.7511
   64MOL   H26526851   1.671   5.759   0.870  0.6837  0.9507 -2.9760
   64MOL   H26626852   1.722   5.433   0.774 -1.9594 -1.1141 -0.4345
   64MOL   H26726853   1.757   5.584   0.713 -1.5480  0.0168 -2.5471
   64MOL   H26826854   1.621   5.492   0.640 -0.5030 -0.3531  0.3246
   64MOL   H26926855   1.447   5.411   0.746  0.5244 -0.0242  0.4161
   64MOL   H27026856   1.400   5.562   0.690  2.4275 -1.0415 -0.8120
   64MOL   H27126857   1.348   5.515   0.848  1.4272 -1.1405  2.3605
   64MOL   H27226858   1.692   5.518   1.010  0.3332 -0.5643 -0.2529
   64MOL   H27326859   1.524   5.549   1.046  0.1534  0.9237  0.5055
   64MOL   H27426860   1.575   5.397   0.971 -0.7805  0.2715 -1.8181
   64MOL   C27526861   1.422   5.935   0.853  0.5904 -0.6672  1.2678
   64MOL   C27626862   1.351   5.949   0.715 -0.1734 -0.2547  0.5328
   64MOL   C27726863   1.249   5.844   0.689 -0.6639  0.1939  0.5941
   64MOL   C27826864   1.195   5.818   0.540 -0.1121 -0.0370 -0.6951
   64MOL   C27926865   1.110   5.687   0.535  0.2873  0.1565 -0.6779
   64MOL   C28026866   1.107   5.934   0.491  0.3369  0.0695 -0.2758
   64MOL   C28126867   1.310   5.803   0.436 -0.2932  0.0905 -0.2011
   64MOL   H28226868   1.364   5.996   0.923 -0.4936 -0.5220  0.2581
   64MOL   H28326869   1.511   5.996   0.846  0.1859  0.1385  2.7963
   64MOL   H28426870   1.426   5.932   0.637  0.3195 -0.2553  1.0065
   64MOL   H28526871   1.173   5.865   0.764  0.5203  1.2436  1.5216
   64MOL   H28626872   1.289   5.744   0.706 -1.2698 -0.2310 -0.4129
   64MOL   H28726873   1.171   5.599   0.553 -0.4910  0.0736  1.6171
   64MOL   H28826874   1.028   5.700   0.606  1.5572  6.3855 -0.0463
   64MOL   H28926875   1.069   5.683   0.434 -2.4415  3.5368  0.1956
   64MOL   H29026876   1.051   5.890   0.408 -1.7707 -1.2642  1.7746
   64MOL   H29126877   1.167   6.011   0.443 -1.0079  0.5202 -1.2574
   64MOL   H29226878   1.034   5.966   0.566  0.1595  1.6124 -1.0859
   64MOL   H29326879   1.377   5.724   0.470 -0.5422  0.3792  1.0081
   64MOL   H29426880   1.375   5.891   0.433 -1.6704  1.0994 -1.2276
   64MOL   H29526881   1.282   5.779   0.334  1.5495  0.3522 -0.7854
   64MOL   C29626882   1.300   6.089   0.706  0.3949 -0.7978 -0.6843
   64MOL   C29726883   1.406   6.205   0.667 -0.1039  0.1527  0.3910
   64MOL   C29826884   1.363   6.346   0.701 -0.0279 -0.5703 -0.4481
   64MOL   C29926885   1.397   6.412   0.840  0.7758 -0.5249 -0.2851
   64MOL   C30026886   1.347   6.328   0.959 -0.1388 -0.3927  0.4744
   64MOL   C30126887   1.549   6.436   0.848  0.0403  0.9730  0.6224
   64MOL   C30226888   1.332   6.553   0.836  0.3725 -0.5687  0.7531
   64MOL   H30326889   1.238   6.119   0.790 -0.9624  0.8233 -2.2037
   64MOL   H30426890   1.226   6.104   0.627 -0.7553  2.6175  0.9242
   64MOL   H30526891   1.497   6.184   0.723  1.1934 -1.3996 -2.2068
   64MOL   H30626892   1.257   6.361   0.685 -0.2104 -0.9882  0.3660
   64MOL   H30726893   1.405   6.412   0.625  2.4154 -0.8300  0.6209
   64MOL   H30826894   1.241   6.326   0.936 -0.2107  1.7706  0.5540
   64MOL   H30926895   1.399   6.234   0.976  1.1789  0.7778  3.1519
   64MOL   H31026896   1.356   6.392   1.046 -1.2601 -0.2472  0.4843
   64MOL   H31126897   1.590   6.487   0.761  4.5248 -2.1225  0.7263
   64MOL   H31226898   1.556   6.504   0.934 -0.4153  0.4216  1.0952
   64MOL   H31326899   1.610   6.351   0.877 -0.6518  0.3509  0.2643
   64MOL   H31426900   1.327   6.611   0.928 -2.8083 -1.7746  1.4325
   64MOL   H31526901   1.390   6.614   0.767 -1.5032  0.7909  0.3292
   64MOL   H31626902   1.230   6.540   0.799  0.2051 -0.2254  1.0862
   64MOL   C31726903   1.416   6.204   0.509  0.5464  0.3864  0.0964
   64MOL   C31826904   1.556   6.223   0.447  0.2536 -0.6022 -0.3868
   64MOL   C31926905   1.653   6.116   0.494 -0.1449 -0.3906  0.1330
   64MOL   C32026906   1.808   6.136   0.496 -0.2496 -0.1157 -0.6242
   64MOL   C32126907   1.851   6.274   0.545 -0.6795 -0.0893  0.0399
   64MOL   C32226908   1.861   6.128   0.352  1.0164 -0.0241 -0.6094
   64MOL   C32326909   1.868   6.033   0.591 -1.0378  0.4680  0.5966
   64MOL   H32426910   1.379   6.106   0.479  2.3780 -0.3916  0.2861
   64MOL   H32526911   1.345   6.271   0.461  2.5160  0.8745 -2.2185
   64MOL   H32626912   1.594   6.316   0.489  1.2731 -1.8355  1.4563
   64MOL   H32726913   1.630   6.022   0.444  1.7963 -0.5767 -0.4289
   64MOL   H32826914   1.641   6.101   0.601  2.9624  2.3812  0.9376
   64MOL   H32926915   1.830   6.363   0.486  2.0780  1.3148  1.0661
   64MOL   H33026916   1.960   6.275   0.545 -0.6797  0.8013  0.8533
   64MOL   H33126917   1.820   6.289   0.649 -1.2053 -0.0636 -0.1205
   64MOL   H33226918   1.869   6.225   0.303  2.4327 -0.4245 -1.1871
   64MOL   H33326919   1.965   6.095   0.350  0.6707 -1.0480 -1.3282
   64MOL   H33426920   1.805   6.053   0.297  0.8472 -0.5457  0.2520
   64MOL   H33526921   1.826   6.037   0.691  0.7774 -0.5657  1.4271
   64MOL   H33626922   1.977   6.025   0.590 -1.2476 -3.3061 -0.1845
   64MOL   H33726923   1.816   5.942   0.559 -1.7820  1.5553 -1.3654
   64MOL   C33826924   1.553   6.230   0.291 -0.0072 -0.3941  0.2914
   64MOL   C33926925   1.483   6.351   0.217  0.0825 -0.7052  0.2073
   64MOL   C34026926   1.444   6.320   0.069 -0.5729 -0.7307  0.5364
   64MOL   C34126927   1.314   6.254   0.029  0.4005  0.2511 -0.4602
   64MOL   C34226928   1.304   6.254   7.640  0.7758  0.1488 -0.6642
   64MOL   C34326929   1.306   6.109   0.068 -0.7638  0.4656  0.2014
   64MOL   C34426930   1.191   6.346   0.073  0.4670 -0.1285 -0.3948
   64MOL   H34526931   1.491   6.145   0.260  1.1328 -0.7255 -1.1518
   64MOL   H34626932   1.655   6.220   0.254  0.0832 -0.0067  0.4320
   64MOL   H34726933   1.381   6.381   0.243  0.5755  3.4810 -2.2559
   64MOL   H34826934   1.536   6.272   0.035 -0.0653  1.3861 -1.2307
   64MOL   H34926935   1.458   6.407   0.005  0.9470  0.0923  1.9309
   64MOL   H35026936   1.311   6.356   7.604 -1.6256  0.2082 -1.0661
   64MOL   H35126937   1.395   6.210   7.599  0.0573 -0.5243 -1.5615
   64MOL   H35226938   1.213   6.213   7.596 -0.1806  1.0564  0.4482
   64MOL   H35326939   1.326   6.085   0.172 -2.2463  0.3625  0.4638
   64MOL   H35426940   1.213   6.054   0.050  0.2248 -0.9545 -0.7236
   64MOL   H35526941   1.379   6.049   0.012  0.4507  1.9626  0.1553
   64MOL   H35626942   1.161   6.344   0.178  0.3264 -1.6854 -0.4506
   64MOL   H35726943   1.200   6.453   0.058  1.3972 -0.5069 -2.8075
   64MOL   H35826944   1.096   6.311   0.031  0.9297 -1.2912 -0.4810
   64MOL   C35926945   1.579   6.474   0.240  0.5654 -0.9376  0.6302
   64MOL   C36026946   1.494   6.610   0.246  0.2519  1.1743  0.2597
   64MOL   C36126947   1.590   6.733   0.235 -0.2729  0.0078  0.4315
   64MOL   C36226948   1.608   6.808   0.096 -0.0241 -0.4505  0.4731
   64MOL   C36326949   1.669   6.709   7.759 -0.4565 -0.4397 -0.4860
   64MOL   C36426950   1.693   6.928   0.110  0.4014  0.4965  0.1861
   64MOL   C36526951   1.470   6.862   0.052 -0.1013 -0.4072  0.3605
   64MOL   H36626952   1.658   6.475   0.165 -0.9000 -1.6099 -0.9689
   64MOL   H36726953   1.626   6.465   0.338 -1.5746  0.8729  1.8805
   64MOL   H36826954   1.423   6.608   0.163  2.2612 -0.6413 -1.4809
   64MOL   H36926955   1.569   6.807   0.312 -0.4612  1.0139 -0.5743
   64MOL   H37026956   1.686   6.693   0.269 -0.6620 -1.4043 -0.0924
   64MOL   H37126957   1.757   6.660   0.034 -1.1871 -1.8482 -0.5639
   64MOL   H37226958   1.592   6.633   7.744 -0.2547 -0.5244 -1.1399
   64MOL   H37326959   1.696   6.761   7.667 -0.0769  3.1678  1.5710
   64MOL   H37426960   1.795   6.890   0.119 -0.2174 -1.5166 -1.0368
   64MOL   H37526961   1.692   6.975   0.208  0.5239  3.0105 -0.9940
   64MOL   H37626962   1.688   6.995   0.025  0.4925  1.9223  1.2855
   64MOL   H37726963   1.400   6.779   0.046  1.7832 -2.0870  1.2019
   64MOL   H37826964   1.483   6.891   7.714 -2.3986 -3.3656 -0.8183
   64MOL   H37926965   1.442   6.943   0.120 -1.7020 -0.5870 -0.0729
   64MOL   C38026966   1.422   6.626   0.381 -0.5744 -0.4244  0.4759
   64MOL   C38126967   1.308   6.726   0.378 -1.1338  0.0121 -0.3246
   64MOL   C38226968   1.266   6.783   0.517 -0.1240  0.6583  0.4255
   64MOL   C38326969   1.323   6.908   0.568  0.3001  0.4948 -0.4281
   64MOL   C38426970   1.474   6.890   0.603  0.5354  0.3679  0.1883
   64MOL   C38526971   1.238   6.934   0.689  0.1149  0.1448  0.7468
   64MOL   C38626972   1.314   7.031   0.480  0.0686  0.1369  0.9281
   64MOL   H38726973   1.490   6.647   0.464  1.8026 -0.4513 -1.3942
   64MOL   H38826974   1.390   6.528   0.416 -1.0595  0.4001  2.4234
   64MOL   H38926975   1.331   6.815   0.319 -0.6548 -0.1122 -0.3274
   64MOL   H39026976   1.164   6.814   0.497 -0.1293 -0.0337 -0.6517
   64MOL   H39126977   1.262   6.701   0.589 -0.1462  0.6197  0.3805
   64MOL   H39226978   1.502   6.812   0.674 -0.0738  0.2790  0.3370
   64MOL   H39326979   1.537   6.876   0.516 -1.5459  1.2124 -1.4915
   64MOL   H39426980   1.500   6.990   0.640 -0.7008  0.8202 -0.1447
   64MOL   H39526981   1.136   6.959   0.659 -0.2315  0.0635  1.8236
   64MOL   H39626982   1.280   7.010   0.756  2.6196 -1.1659  0.7378
   64MOL   H39726983   1.224   6.844   0.750  1.4947 -0.4486  0.2124
   64MOL   H39826984   1.377   7.034   0.391  2.3229 -2.1018  2.3647
   64MOL   H39926985   1.344   7.125   0.526 -1.0392  1.5266 -1.1642
   64MOL   H40026986   1.208   7.050   0.463  0.1831 -1.2680 -1.5580
   64MOL   C40126987   1.183   6.660   0.308  0.4477 -0.0153 -0.3334
   64MOL   C40226988   1.115   6.551   0.393 -0.0175 -0.4181  0.8488
   64MOL   C40326989   0.975   6.512   0.355 -0.4702 -0.5665 -0.1160
   64MOL   C40426990   0.908   6.396   0.429  0.3680  0.5957 -0.2298
   64MOL   C40526991   0.992   6.269   0.409  0.2460  0.5622 -0.1472
   64MOL   C40626992   0.775   6.366   0.363 -0.4694 -0.3609 -0.9517
   64MOL   C40726993   0.875   6.428   0.578 -0.4396 -0.1744  0.4460
   64MOL   H40826994   1.113   6.742   0.292 -1.5709 -1.9870 -1.8772
   64MOL   H40926995   1.206   6.619   0.210  1.5538  0.4563 -0.2683
   64MOL   H41026996   1.171   6.460   0.372  3.4016  1.1100  2.9315
   64MOL   H41126997   0.980   6.480   0.251 -1.5581 -1.4829  0.1080
   64MOL   H41226998   0.923   6.608   0.355 -0.2547 -0.4052  3.3933
   64MOL   H41326999   1.087   6.261   0.462  0.6394  1.3020 -0.7350
   64MOL   H41427000   1.014   6.239   0.306  3.4501 -0.5441  0.8115
   64MOL   H41527001   0.935   6.182   0.439  0.5851  0.1495 -0.6835
   64MOL   H41627002   0.716   6.457   0.355  0.0146 -0.1273 -1.9238
   64MOL   H41727003   0.715   6.289   0.410  0.3853  0.3309  1.3619
   64MOL   H41827004   0.789   6.350   0.256  0.9665 -3.7141 -0.3001
   64MOL   H41927005   0.822   6.348   0.630 -1.3009 -0.0178 -0.1859
   64MOL   H42027006   0.963   6.456   0.636 -0.8422  1.9648  0.0548
   64MOL   H42127007   0.811   6.516   0.587  0.8623  0.7199  1.1021
   64MOL   H42227008   1.118   6.563   0.501 -0.1459 -0.8876  0.9034
   65MOL     C127009   5.574   0.704   3.936  0.1529 -0.2211 -0.6183
   65MOL     C227010   5.693   0.769   3.864 -0.5018 -0.1398  0.1888
   65MOL     C327011   5.689   0.717   3.718 -0.4769 -0.2692 -0.2312
   65MOL     C427012   5.766   0.800   3.610 -0.4865  0.2058 -0.5862
   65MOL     C527013   5.709   0.943   3.593 -0.4359  0.4446  0.3031
   65MOL     C627014   5.916   0.802   3.627 -0.1498 -0.2696 -0.2368
   65MOL     C727015   5.753   0.725   3.472 -0.3701  0.5761  0.4306
   65MOL     H827016   5.483   0.723   3.880  0.1136  0.1593 -0.4264
   65MOL     H927017   5.586   0.596   3.947  2.1250  0.1064  0.6728
   65MOL    H1027018   5.681   0.876   3.847 -0.4263 -0.2980 -0.8915
   65MOL    H1127019   5.587   0.701   3.683  0.1687 -2.2062 -1.2931
   65MOL    H1227020   5.734   0.618   3.726  0.3405  0.0974 -0.2867
   65MOL    H1327021   5.735   0.994   3.500  0.0765  1.7504  1.1552
   65MOL    H1427022   5.731   1.008   3.678  1.6010  0.0250  0.1305
   65MOL    H1527023   5.602   0.926   3.583 -0.2886  0.9193 -2.3646
   65MOL    H1627024   5.934   0.871   3.709 -1.1281 -0.0948 -0.1593
   65MOL    H1727025   5.956   0.705   3.657 -1.5494 -1.0619 -0.8855
   65MOL    H1827026   5.974   0.820   3.537  1.0409 -0.7313  0.4342
   65MOL    H1927027   5.802   0.778   3.391  1.3680 -1.3921  0.1702
   65MOL    H2027028   5.651   0.718   3.434 -0.4659 -1.9212  1.0987
   65MOL    H2127029   5.787   0.622   3.475 -1.8307 -0.0120 -2.0078
   65MOL    H2227030   5.554   0.743   4.036  0.8158 -0.4972 -0.3792
   65MOL    C2327031   5.824   0.745   3.944 -1.0088 -0.2382  0.5592
   65MOL    C2427032   5.844   0.836   4.066 -0.2370  0.5450  0.2378
   65MOL    C2527033   5.880   0.981   4.018 -0.1611 -0.4600  0.8462
   65MOL    C2627034   5.831   1.105   4.099 -0.1243  0.0967  0.1573
   65MOL    C2727035   5.885   1.109   4.242 -0.4546  0.0702  0.1124
   65MOL    C2827036   5.892   1.233   4.030 -0.0867  0.5894  0.2921
   65MOL    C2927037   5.674   1.119   4.094 -0.3783 -0.0855  0.2979
   65MOL    H3027038   5.825   0.640   3.976 -0.9460 -0.8677 -1.4686
   65MOL    H3127039   5.912   0.753   3.881 -0.0763 -2.7568  1.4524
   65MOL    H3227040   5.750   0.841   4.119 -0.6861 -1.9999 -0.2427
   65MOL    H3327041   5.856   1.000   3.914 -1.9077 -1.4937  1.0470
   65MOL    H3427042   5.988   0.987   4.028 -0.2669  0.8890  1.2905
   65MOL    H3527043   5.843   1.029   4.302  2.5737 -2.4176 -1.0095
   65MOL    H3627044   5.993   1.104   4.227 -0.7500 -0.0703 -2.1612
   65MOL    H3727045   5.849   1.200   4.291 -1.4954 -0.0617 -0.3935
   65MOL    H3827046   5.999   1.216   4.015 -0.4416 -0.1122 -1.5809
   65MOL    H3927047   5.851   1.240   3.929  0.2943 -0.2158  0.0712
   65MOL    H4027048   5.892   1.326   4.086  0.4737 -0.1448  1.5401
   65MOL    H4127049   5.630   1.184   4.170 -2.5963  0.0435 -1.0378
   65MOL    H4227050   5.632   1.019   4.103 -1.5507  0.4675  1.1584
   65MOL    H4327051   5.632   1.161   4.002  0.6937 -0.2238 -0.2569
   65MOL    C4427052   5.949   0.792   4.176  0.0280  0.0886  1.0771
   65MOL    C4527053   5.955   0.642   4.232 -0.0173  0.5688  0.4741
   65MOL    C4627054   5.836   0.622   4.338 -0.0425 -0.1281 -0.3471
   65MOL    C4727055   5.789   0.483   4.384 -0.1545 -0.0887  0.1738
   65MOL    C4827056   5.903   0.402   4.454 -0.2551  0.0102  0.2861
   65MOL    C4927057   5.737   0.400   4.259 -0.1340 -0.4446  0.2077
   65MOL    C5027058   5.677   0.503   4.484  0.3404  0.0411 -0.3389
   65MOL    H5127059   6.040   0.804   4.117 -0.2039 -1.2978  0.4116
   65MOL    H5227060   5.951   0.866   4.255 -2.0559 -1.2647  2.4244
   65MOL    H5327061   5.951   0.570   4.150 -1.4356  1.4158 -0.2127
   65MOL    H5427062   5.743   0.672   4.313  0.3531  0.6142 -0.3714
   65MOL    H5527063   5.874   0.675   4.425 -0.4495  0.4679 -0.5327
   65MOL    H5627064   5.868   0.309   4.499 -0.1470  0.2659  0.9068
   65MOL    H5727065   5.935   0.462   4.539 -1.7229  1.9408 -0.4792
   65MOL    H5827066   5.984   0.376   4.387  0.7945  1.1094  1.1094
   65MOL    H5927067   5.664   0.442   4.191 -2.0788  1.7293  3.5220
   65MOL    H6027068   5.820   0.390   4.190 -0.7780  0.1751 -0.6564
   65MOL    H6127069   5.699   0.303   4.292 -0.6339  0.0287  1.0364
   65MOL    H6227070   5.636   0.405   4.507  0.4044 -0.6699 -3.0613
   65MOL    H6327071   5.729   0.543   4.572  1.2437  3.0843 -2.1651
   65MOL    H6427072   5.610   0.585   4.460 -1.0877 -0.9035  0.3517
   65MOL    C6527073   6.098   0.625   4.305  0.1861  0.3064  0.7838
   65MOL    C6627074   6.211   0.584   4.210 -0.1169 -0.1258  0.0636
   65MOL    C6727075   6.184   0.449   4.144 -0.1161 -0.2220 -0.0643
   65MOL    C6827076   6.207   0.427   3.997 -0.5934  0.3338  0.3066
   65MOL    C6927077   6.086   0.494   3.923 -0.2040 -0.2755  0.8877
   65MOL    C7027078   6.347   0.483   3.954 -0.6809 -0.0293  0.0570
   65MOL    C7127079   6.219   0.274   3.960 -0.3498  0.6851  0.5723
   65MOL    H7227080   6.119   0.717   4.359  2.7067 -0.7789  1.7062
   65MOL    H7327081   6.095   0.555   4.388 -0.2521  0.2160  0.6922
   65MOL    H7427082   6.204   0.662   4.134 -0.1675  0.2917  0.4883
   65MOL    H7527083   6.087   0.407   4.169 -0.1353 -0.1316  0.0116
   65MOL    H7627084   6.243   0.377   4.201 -1.0503 -1.1110 -0.2102
   65MOL    H7727085   6.088   0.490   3.814  2.9083 -0.6355  0.9251
   65MOL    H7827086   5.987   0.460   3.955 -2.2443  3.6183 -0.8711
   65MOL    H7927087   6.077   0.601   3.942  2.3674  0.5020 -1.8844
   65MOL    H8027088   6.364   0.588   3.978 -2.5695  0.5117 -0.8936
   65MOL    H8127089   6.364   0.486   3.846 -1.0314 -0.0767  0.0022
   65MOL    H8227090   6.432   0.427   3.994  0.7777  1.0576 -1.4205
   65MOL    H8327091   6.218   0.262   3.851  1.0683 -0.0032  0.6173
   65MOL    H8427092   6.151   0.208   4.013 -0.3487  0.2686  0.0636
   65MOL    H8527093   6.312   0.230   3.995  0.5722  0.5376 -1.9760
   65MOL    C8627094   6.352   0.590   4.282  0.2431  0.1325  0.2965
   65MOL    C8727095   6.406   0.731   4.335 -0.1771 -0.2571 -0.6884
   65MOL    C8827096   6.419   0.844   4.234 -0.3921  0.0957  0.4706
   65MOL    C8927097   6.395   0.996   4.276 -0.4141 -0.1694 -0.2288
   65MOL    C9027098   6.418   1.082   4.157  0.2121 -0.1378  0.3541
   65MOL    C9127099   6.476   1.045   4.399 -0.1520 -0.1508 -0.5404
   65MOL    C9227100   6.249   1.010   4.312 -0.1621 -0.0794  0.2691
   65MOL    H9327101   6.436   0.558   4.219  0.3104 -1.5154  1.2023
   65MOL    H9427102   6.351   0.514   4.359 -1.4546  0.8475  1.0070
   65MOL    H9527103   6.337   0.761   4.414 -0.1395  1.4042 -1.2805
   65MOL    H9627104   6.368   0.818   4.141  0.5820 -0.3980  0.0644
   65MOL    H9727105   6.520   0.846   4.192 -1.5667  0.0493 -2.4807
   65MOL    H9827106   6.409   1.188   4.182  0.2610 -0.2091  0.6814
   65MOL    H9927107   6.359   1.065   4.067  1.3672 -1.6389 -0.1353
   65MOL   H10027108   6.519   1.058   4.126  0.6178 -0.4764  1.8927
   65MOL   H10127109   6.584   1.041   4.384 -0.2105  0.3090 -1.0923
   65MOL   H10227110   6.453   1.151   4.409  2.2375  0.6911 -3.1580
   65MOL   H10327111   6.445   1.002   4.494 -0.8905  2.7193  0.5710
   65MOL   H10427112   6.181   0.974   4.234 -0.4612 -0.3080  0.6335
   65MOL   H10527113   6.225   0.949   4.399 -3.2167 -0.5153 -0.8185
   65MOL   H10627114   6.228   1.115   4.332  1.0315  0.3183 -0.5081
   65MOL   C10727115   6.541   0.715   4.402 -0.2030 -0.6144  0.5666
   65MOL   C10827116   6.550   0.659   4.545 -0.6135  0.2473  0.5267
   65MOL   C10927117   6.698   0.627   4.578 -0.1773 -0.2685  0.5566
   65MOL   C11027118   6.755   0.487   4.562  0.0071  1.3751 -0.0956
   65MOL   C11127119   6.660   0.383   4.635  0.1400 -0.0451 -0.0847
   65MOL   C11227120   6.884   0.477   4.638 -0.0421  0.4922  0.2709
   65MOL   C11327121   6.787   0.448   4.418  0.7701  0.3961 -0.7953
   65MOL   H11427122   6.597   0.808   4.405  0.1816 -0.7493 -1.3597
   65MOL   H11527123   6.597   0.642   4.343 -3.3166 -0.2955 -2.9623
   65MOL   H11627124   6.502   0.563   4.526 -0.6623 -0.5355  4.2033
   65MOL   H11727125   6.756   0.695   4.516 -2.5719 -0.7377 -2.3580
   65MOL   H11827126   6.712   0.649   4.684  1.8678 -0.3809  0.3176
   65MOL   H11927127   6.629   0.424   4.731 -0.6645 -0.0326 -0.3440
   65MOL   H12027128   6.567   0.354   4.586  0.7409 -1.0077 -0.6935
   65MOL   H12127129   6.708   0.287   4.656 -1.0491 -0.6836 -0.1977
   65MOL   H12227130   6.960   0.536   4.587  2.7911 -1.6161  1.8575
   65MOL   H12327131   6.930   0.382   4.609 -0.4721  0.5061 -0.4613
   65MOL   H12427132   6.877   0.506   4.743 -0.4750  1.4170 -0.0109
   65MOL   H12527133   6.835   0.533   4.368  0.0060  1.1949 -0.1994
   65MOL   H12627134   6.696   0.435   4.359 -0.8666 -1.0986  1.9739
   65MOL   H12727135   6.847   0.357   4.413 -0.6334 -0.6398  0.6969
   65MOL   C12827136   6.481   0.745   4.654  0.2449  0.1025 -0.1562
   65MOL   C12927137   6.408   0.665   4.771  0.6936  0.2887  0.7783
   65MOL   C13027138   6.344   0.528   4.736 -0.8495  0.2443  0.1998
   65MOL   C13127139   6.202   0.487   4.789 -0.5734  0.1409  0.5775
   65MOL   C13227140   6.219   0.455   4.942  0.4870  0.3094  0.7139
   65MOL   C13327141   6.157   0.364   4.707 -0.4195  0.2582  0.1551
   65MOL   C13427142   6.090   0.605   4.766  0.6426 -0.2503 -0.8782
   65MOL   H13527143   6.402   0.814   4.625  0.3423  0.6486  0.8408
   65MOL   H13627144   6.555   0.815   4.693  0.0356  1.1308 -1.5549
   65MOL   H13727145   6.322   0.726   4.800 -1.1797 -2.4278  1.1311
   65MOL   H13827146   6.323   0.527   4.630  1.6195  2.4223 -0.3604
   65MOL   H13927147   6.414   0.446   4.756 -1.0282 -0.2528 -1.1733
   65MOL   H14027148   6.297   0.381   4.958  2.7559  2.4822  0.1255
   65MOL   H14127149   6.127   0.417   4.986 -0.4752  1.4633 -0.3001
   65MOL   H14227150   6.251   0.546   4.994  2.4434  0.5695 -0.8982
   65MOL   H14327151   6.059   0.330   4.740 -0.1661 -0.0608  0.5803
   65MOL   H14427152   6.220   0.276   4.723 -1.1975 -0.2674  0.3314
   65MOL   H14527153   6.148   0.377   4.599  1.6926 -0.3518 -0.1183
   65MOL   H14627154   5.995   0.552   4.775  0.7996 -0.2406  1.1863
   65MOL   H14727155   6.085   0.670   4.854 -2.3867  0.4715 -1.5291
   65MOL   H14827156   6.099   0.657   4.671  2.6955 -1.6850 -1.4970
   65MOL   C14927157   6.492   0.670   4.904  0.0276  0.0165 -0.0302
   65MOL   C15027158   6.456   0.775   5.018 -0.0328 -0.6603 -0.0547
   65MOL   C15127159   6.552   0.766   5.136 -0.1133 -0.3883 -0.0130
   65MOL   C15227160   6.498   0.676   5.248  0.0251  0.4541  0.2240
   65MOL   C15327161   6.592   0.699   5.368  0.4831 -0.9195 -0.6050
   65MOL   C15427162   6.504   0.524   5.221  0.3061  0.6476  0.5905
   65MOL   C15527163   6.360   0.713   5.307 -0.0731  0.3144 -0.0630
   65MOL   H15627164   6.597   0.669   4.877 -0.2042  0.9289 -1.0060
   65MOL   H15727165   6.488   0.565   4.931  1.5948  0.1743  0.8534
   65MOL   H15827166   6.356   0.743   5.047 -0.3725 -1.9930 -2.5515
   65MOL   H15927167   6.561   0.862   5.185 -2.0077  0.9161 -2.1094
   65MOL   H16027168   6.650   0.736   5.100  0.1903 -0.6343  1.0055
   65MOL   H16127169   6.599   0.806   5.386  0.6446 -1.2360  1.2936
   65MOL   H16227170   6.567   0.658   5.466  2.3035 -0.7212 -0.0277
   65MOL   H16327171   6.697   0.680   5.343  0.9647 -0.9193  1.4005
   65MOL   H16427172   6.606   0.496   5.194 -0.2647 -0.6815 -0.2153
   65MOL   H16527173   6.425   0.510   5.147 -0.4971 -0.2532  1.6103
   65MOL   H16627174   6.480   0.472   5.313  2.6909 -1.1227  0.2606
   65MOL   H16727175   6.358   0.818   5.334 -1.9610  0.0484  0.9339
   65MOL   H16827176   6.272   0.684   5.249 -0.7740  1.6883  0.2936
   65MOL   H16927177   6.344   0.667   5.404 -2.2099  1.9728  0.4084
   65MOL   C17027178   6.460   0.917   4.956 -0.1850  0.3917  0.2971
   65MOL   C17127179   6.387   1.036   5.030 -0.4646  0.1517 -0.3571
   65MOL   C17227180   6.230   1.018   5.009 -0.9107  0.2175 -0.0701
   65MOL   C17327181   6.124   1.065   5.115  0.1537  0.2860  1.2895
   65MOL   C17427182   6.154   1.011   5.258 -0.1682 -0.1349 -0.0435
   65MOL   C17527183   5.993   1.010   5.055 -0.0694 -0.2601 -0.1724
   65MOL   C17627184   6.116   1.220   5.125 -0.0639  0.1920 -0.0813
   65MOL   H17727185   6.436   0.918   4.849 -1.3403 -1.7813  0.5095
   65MOL   H17827186   6.563   0.951   4.958  1.1034 -3.3065  1.0441
   65MOL   H17927187   6.408   1.027   5.137 -1.1782  1.0012 -0.1379
   65MOL   H18027188   6.211   1.053   4.908  1.6867  0.7786 -0.4068
   65MOL   H18127189   6.207   0.911   5.003  0.1290  0.0507 -1.3160
   65MOL   H18227190   6.178   0.905   5.249 -1.8245 -0.5531  0.2380
   65MOL   H18327191   6.245   1.054   5.298 -1.1461  0.0219  2.0763
   65MOL   H18427192   6.077   1.026   5.334 -1.2637  0.7684 -1.2968
   65MOL   H18527193   5.960   1.067   4.969  0.6385 -1.9096 -1.5751
   65MOL   H18627194   6.002   0.904   5.031  0.6809 -0.2578  0.0730
   65MOL   H18727195   5.920   1.031   5.134 -0.3826 -1.0099 -0.2488
   65MOL   H18827196   6.046   1.255   5.200  0.6671  0.9814  0.2305
   65MOL   H18927197   6.214   1.255   5.156 -0.0204  0.4275 -0.4750
   65MOL   H19027198   6.099   1.269   5.029 -0.0078  2.1885  0.9082
   65MOL   C19127199   6.427   1.181   4.977 -0.4173 -0.7722  0.0694
   65MOL   C19227200   6.560   1.245   5.021  0.9975 -0.2250  0.4960
   65MOL   C19327201   6.549   1.279   5.173  0.8992  0.0762 -0.1025
   65MOL   C19427202   6.668   1.255   5.256  0.1586 -0.2026 -0.2766
   65MOL   C19527203   6.663   1.307   5.402 -0.2312  0.1330 -0.5657
   65MOL   C19627204   6.795   1.320   5.191  0.0134  0.0636 -0.5085
   65MOL   C19727205   6.701   1.103   5.277 -0.0301  0.4059  0.2432
   65MOL   H19827206   6.405   1.175   4.871  0.0214 -1.0158 -0.0027
   65MOL   H19927207   6.350   1.252   5.008  0.3294 -0.6493  1.7134
   65MOL   H20027208   6.631   1.165   5.006  0.9088 -0.4491  1.2825
   65MOL   H20127209   6.473   1.220   5.224  0.4297  1.4160  0.7602
   65MOL   H20227210   6.528   1.385   5.186  0.0957 -0.1085  0.1672
   65MOL   H20327211   6.586   1.250   5.453  0.0938 -0.4142 -0.6871
   65MOL   H20427212   6.756   1.312   5.459 -0.5228 -2.0343  0.1244
   65MOL   H20527213   6.632   1.412   5.397  0.3486  0.2188 -2.8437
   65MOL   H20627214   6.881   1.307   5.257  0.7444  1.0327 -1.2563
   65MOL   H20727215   6.815   1.279   5.092 -0.3294  2.2838 -1.5207
   65MOL   H20827216   6.785   1.429   5.186 -0.3528 -0.0043 -1.4109
   65MOL   H20927217   6.707   1.049   5.182  0.2007  0.0687  0.4460
   65MOL   H21027218   6.802   1.082   5.314 -0.5385 -0.2804  1.2783
   65MOL   H21127219   6.627   1.045   5.332 -2.0436  0.8066 -1.9607
   65MOL   C21227220   6.602   1.372   4.935  1.2056  0.6577  0.4265
   65MOL   C21327221   6.630   1.351   4.787 -0.7962  0.1993 -0.1456
   65MOL   C21427222   6.774   1.284   4.771  0.7021  0.1692  0.1846
   65MOL   C21527223   6.807   1.191   4.657 -0.1643 -0.0644  0.4967
   65MOL   C21627224   6.780   1.249   4.516  0.2510 -0.7834  0.4197
   65MOL   C21727225   6.950   1.145   4.675  0.1603  0.2053 -0.7961
   65MOL   C21827226   6.708   1.070   4.672  0.3490  0.4011  0.6787
   65MOL   H21927227   6.510   1.428   4.946 -0.0403 -1.1753 -0.4355
   65MOL   H22027228   6.673   1.438   4.985 -1.8424  1.8401  3.3236
   65MOL   H22127229   6.556   1.283   4.745  0.8622 -0.6251 -1.7899
   65MOL   H22227230   6.785   1.219   4.858  0.7417 -1.0909 -0.7487
   65MOL   H22327231   6.854   1.355   4.794  0.5029  0.6296 -0.5511
   65MOL   H22427232   6.843   1.338   4.504 -0.0075 -0.1315  3.4111
   65MOL   H22527233   6.675   1.271   4.496  0.1118 -0.0749  1.8270
   65MOL   H22627234   6.806   1.185   4.433  2.6231  1.0440 -0.2914
   65MOL   H22727235   7.024   1.225   4.674 -0.8239  1.1650  0.6605
   65MOL   H22827236   6.961   1.105   4.776  3.2571  1.2094 -0.6891
   65MOL   H22927237   6.989   1.078   4.599 -0.6249 -1.2616  0.0650
   65MOL   H23027238   6.702   1.020   4.769  0.3735 -0.3978  0.2673
   65MOL   H23127239   6.741   0.991   4.605  4.1864 -0.3192  3.2098
   65MOL   H23227240   6.608   1.108   4.655 -0.2017 -1.7497 -0.9930
   65MOL   C23327241   6.639   1.491   4.719  0.0293  0.1923 -0.0086
   65MOL   C23427242   6.505   1.545   4.666  0.1124  0.7352 -0.6473
   65MOL   C23527243   6.506   1.694   4.638 -0.2596  0.5474  0.2575
   65MOL   C23627244   6.441   1.785   4.744  0.1089  0.6027 -0.2600
   65MOL   C23727245   6.466   1.934   4.698  0.0564 -0.4194  0.2726
   65MOL   C23827246   6.288   1.770   4.751  0.0832 -0.6026  0.4735
   65MOL   C23927247   6.504   1.765   4.887 -0.2937  0.4738 -0.9304
   65MOL   H24027248   6.703   1.485   4.632  0.6638  0.7012  0.4174
   65MOL   H24127249   6.699   1.566   4.771 -0.3408 -0.2436  1.0733
   65MOL   H24227250   6.427   1.526   4.739  0.0420  0.7727 -0.7121
   65MOL   H24327251   6.604   1.730   4.607  0.3259 -2.2502 -1.3341
   65MOL   H24427252   6.459   1.717   4.543  0.8732 -1.3805 -0.8014
   65MOL   H24527253   6.430   2.015   4.761 -1.1267  0.4430 -1.4500
   65MOL   H24627254   6.409   1.950   4.606  0.2736 -2.8481 -0.3156
   65MOL   H24727255   6.571   1.958   4.677 -0.2392  0.1874 -0.5334
   65MOL   H24827256   6.249   1.844   4.822  1.4834  0.8166 -0.1892
   65MOL   H24927257   6.241   1.789   4.654  0.9785 -0.8937 -0.0206
   65MOL   H25027258   6.251   1.675   4.789  0.8374 -0.1111  2.4709
   65MOL   H25127259   6.475   1.672   4.937  1.5038  0.0724 -0.5727
   65MOL   H25227260   6.613   1.772   4.881 -0.0330 -3.0631 -1.1711
   65MOL   H25327261   6.476   1.835   4.966  3.0094  3.7656 -2.5280
   65MOL   C25427262   6.465   1.475   4.538 -0.7707 -0.0410  0.4078
   65MOL   C25527263   6.314   1.476   4.508 -0.4515 -0.7027 -0.0499
   65MOL   C25627264   6.252   1.342   4.550  0.3022 -0.0326  0.1487
   65MOL   C25727265   6.098   1.332   4.589 -1.1213  0.8514 -0.4205
   65MOL   C25827266   6.053   1.436   4.692  0.6117 -0.1611  0.2959
   65MOL   C25927267   6.072   1.189   4.654  0.4322 -0.9080  0.6527
   65MOL   C26027268   6.002   1.342   4.470 -0.2624 -0.5450 -0.7102
   65MOL   H26127269   6.490   1.369   4.531  1.4140  0.5059 -0.2384
   65MOL   H26227270   6.522   1.512   4.454 -2.0644  0.4224 -0.2783
   65MOL   H26327271   6.269   1.558   4.564 -2.4429 -2.3088  0.7475
   65MOL   H26427272   6.282   1.263   4.480 -0.5161 -0.3188  0.1223
   65MOL   H26527273   6.298   1.319   4.646  0.6938 -0.1543 -0.0639
   65MOL   H26627274   6.120   1.437   4.778 -0.8962 -2.4749  1.5658
   65MOL   H26727275   5.951   1.423   4.728 -0.0143  2.3993 -0.4445
   65MOL   H26827276   6.052   1.539   4.657  0.6082  0.7664  2.9619
   65MOL   H26927277   6.092   1.111   4.581  1.0827 -2.5871  2.5508
   65MOL   H27027278   5.967   1.182   4.683  0.0980  0.3821 -0.1982
   65MOL   H27127279   6.140   1.173   4.738  2.5840 -0.4849 -0.9930
   65MOL   H27227280   6.003   1.429   4.405  0.6272 -0.1686 -0.2007
   65MOL   H27327281   6.027   1.257   4.407 -0.4850 -1.7436  0.7960
   65MOL   H27427282   5.898   1.331   4.501  0.2377  0.1220  1.3312
   65MOL   C27527283   6.282   1.503   4.360  0.2679  0.0890  0.2668
   65MOL   C27627284   6.234   1.650   4.319  0.0187  0.7921 -0.2261
   65MOL   C27727285   6.258   1.673   4.168  0.1964 -0.1158  0.0495
   65MOL   C27827286   6.196   1.575   4.051 -0.0749  0.0367  0.3230
   65MOL   C27927287   6.046   1.586   4.032 -0.2881  0.0272  0.0266
   65MOL   C28027288   6.265   1.640   3.928 -0.5135  0.0047  0.2087
   65MOL   C28127289   6.240   1.426   4.062  0.4010  0.0712 -0.0717
   65MOL   H28227290   6.361   1.470   4.293 -1.5189  0.7162 -2.2588
   65MOL   H28327291   6.204   1.431   4.337  1.0042 -1.1436  1.6313
   65MOL   H28427292   6.305   1.713   4.372  1.0478  1.2137 -2.0790
   65MOL   H28527293   6.367   1.677   4.162  0.1894  0.5097  0.3321
   65MOL   H28627294   6.237   1.777   4.146 -4.4879 -0.6739  1.5101
   65MOL   H28727295   6.002   1.520   4.107  1.1850 -3.2740 -1.8931
   65MOL   H28827296   6.005   1.685   4.049 -0.3752 -0.1497  0.8503
   65MOL   H28927297   6.010   1.539   3.940  1.6753  1.6450 -1.5957
   65MOL   H29027298   6.230   1.742   3.909  1.4327  1.0990  2.2311
   65MOL   H29127299   6.231   1.602   3.832  1.1115  0.6959 -0.6512
   65MOL   H29227300   6.372   1.625   3.918 -0.5820  0.1771 -0.8127
   65MOL   H29327301   6.218   1.387   3.963 -1.0759  2.3158 -0.6884
   65MOL   H29427302   6.179   1.372   4.135  0.4235 -0.4056 -0.4091
   65MOL   H29527303   6.346   1.407   4.076  0.2701 -0.8039 -0.2540
   65MOL   C29627304   6.101   1.696   4.367 -0.3065  0.4615 -0.6398
   65MOL   C29727305   6.064   1.843   4.347  1.0451 -0.1396  0.5924
   65MOL   C29827306   6.161   1.945   4.414 -0.8487 -0.1693 -0.1463
   65MOL   C29927307   6.186   2.083   4.349  0.0296  0.4782 -0.0359
   65MOL   C30027308   6.061   2.169   4.362 -0.7040 -0.8623  0.9684
   65MOL   C30127309   6.292   2.158   4.428  0.2278 -0.4190  0.1326
   65MOL   C30227310   6.225   2.073   4.199 -0.1008 -0.0599  0.0512
   65MOL   H30327311   6.082   1.672   4.472 -0.4572  2.9100 -0.0787
   65MOL   H30427312   6.039   1.635   4.301 -1.1424 -0.5024  0.9802
   65MOL   H30527313   6.070   1.861   4.240 -0.5030  0.9399  0.6770
   65MOL   H30627314   6.259   1.901   4.432 -1.0171 -0.2419  0.6252
   65MOL   H30727315   6.121   1.965   4.514  0.2976 -1.3384  0.5547
   65MOL   H30827316   6.088   2.271   4.333  0.4378 -1.4593 -0.0906
   65MOL   H30927317   5.981   2.136   4.296 -0.6723  0.2731  0.3423
   65MOL   H31027318   6.037   2.180   4.468  1.7249  0.7014  1.3878
   65MOL   H31127319   6.255   2.170   4.530 -0.8738  1.7929 -0.4949
   65MOL   H31227320   6.385   2.105   4.447  1.3417  1.9082  1.3266
   65MOL   H31327321   6.320   2.257   4.390  0.5027 -0.7849 -0.6328
   65MOL   H31427322   6.252   2.173   4.167  1.3550 -0.0907  1.1155
   65MOL   H31527323   6.312   2.009   4.185 -0.4307 -0.4113 -0.3865
   65MOL   H31627324   6.139   2.035   4.145  0.4599 -1.2690 -0.0269
   65MOL   C31727325   5.919   1.861   4.400 -0.0312  0.4159 -0.9504
   65MOL   C31827326   5.803   1.797   4.321 -0.1404  0.6475  0.1749
   65MOL   C31927327   5.672   1.788   4.417 -0.0827 -0.0237 -0.4234
   65MOL   C32027328   5.648   1.666   4.504 -0.8207 -0.0165  0.9394
   65MOL   C32127329   5.639   1.539   4.419  0.2860 -0.1950 -0.4074
   65MOL   C32227330   5.521   1.686   4.584  0.4394 -0.5212 -0.4794
   65MOL   C32327331   5.763   1.649   4.606  1.0327  0.5141  0.1708
   65MOL   H32427332   5.919   1.824   4.502 -2.4906  2.1011 -0.2913
   65MOL   H32527333   5.889   1.964   4.422 -0.4688  0.9369 -3.7428
   65MOL   H32627334   5.832   1.695   4.295 -0.9905 -0.1329  2.1886
   65MOL   H32727335   5.592   1.802   4.344  0.3658 -0.7312 -1.0649
   65MOL   H32827336   5.673   1.881   4.474  0.8087 -0.7318  0.7282
   65MOL   H32927337   5.602   1.458   4.482 -0.7865 -0.7570 -1.7238
   65MOL   H33027338   5.736   1.508   4.381 -0.8368 -3.0888 -1.0451
   65MOL   H33127339   5.575   1.553   4.331 -1.0089 -2.5993  0.1123
   65MOL   H33227340   5.511   1.617   4.668 -0.9742  1.5904  1.1308
   65MOL   H33327341   5.524   1.783   4.633  3.3301 -1.3865  1.1875
   65MOL   H33427342   5.431   1.671   4.524 -1.6782 -2.3748  2.9935
   65MOL   H33527343   5.850   1.616   4.549  1.0563 -1.3923  1.2516
   65MOL   H33627344   5.744   1.575   4.684  2.4445  1.3175  1.3168
   65MOL   H33727345   5.771   1.742   4.663 -1.4210  0.8809 -0.0354
   65MOL   C33827346   5.777   1.876   4.182  0.3273  0.2158 -0.0905
   65MOL   C33927347   5.659   1.836   4.090  0.0448  0.3026  0.5775
   65MOL   C34027348   5.689   1.695   4.032  0.5077 -0.1480 -0.7324
   65MOL   C34127349   5.583   1.620   3.948 -0.4140  0.2282  0.0780
   65MOL   C34227350   5.587   1.646   3.795  0.9098  0.1909 -0.3368
   65MOL   C34327351   5.632   1.474   3.959  0.4069 -0.2841  0.1744
   65MOL   C34427352   5.434   1.630   3.995 -0.3066 -0.6543 -0.1993
   65MOL   H34527353   5.869   1.886   4.125  0.4613  2.1645  0.4129
   65MOL   H34627354   5.752   1.978   4.210 -1.8496 -0.5557  0.9002
   65MOL   H34727355   5.573   1.817   4.154  0.5009 -2.4112  0.4457
   65MOL   H34827356   5.710   1.637   4.122 -1.5979 -0.4227 -0.3943
   65MOL   H34927357   5.782   1.701   3.976 -0.0587 -0.1834 -1.6772
   65MOL   H35027358   5.686   1.629   3.752  0.8631 -1.1237  0.0424
   65MOL   H35127359   5.519   1.580   3.741 -1.1811  1.5270  0.6111
   65MOL   H35227360   5.557   1.748   3.772 -0.7771  0.2363  1.8898
   65MOL   H35327361   5.594   1.417   3.874  0.4726  0.6809 -0.5088
   65MOL   H35427362   5.740   1.469   3.946  0.2948 -0.0346 -0.9016
   65MOL   H35527363   5.617   1.426   4.056  0.6865  0.7678  0.7386
   65MOL   H35627364   5.383   1.718   3.956 -0.9325 -1.6306 -1.6841
   65MOL   H35727365   5.376   1.544   3.960 -0.9598  0.0060 -0.7782
   65MOL   H35827366   5.421   1.621   4.102  0.1584 -0.7366 -0.1527
   65MOL   C35927367   5.620   1.942   3.984 -0.5016  0.8097 -0.4498
   65MOL   C36027368   5.586   2.090   4.024  0.2971  0.3149  0.3756
   65MOL   C36127369   5.462   2.100   4.122  0.7648 -0.0589 -0.1868
   65MOL   C36227370   5.436   2.223   4.218 -0.7330 -0.2505  0.4188
   65MOL   C36327371   5.559   2.251   4.304 -0.2205  0.0588  0.8716
   65MOL   C36427372   5.316   2.185   4.312 -0.0630 -0.3011  0.4537
   65MOL   C36527373   5.409   2.358   4.139  0.1712 -0.0122  0.2381
   65MOL   H36627374   5.529   1.902   3.938 -0.8307 -1.3961  1.9878
   65MOL   H36727375   5.703   1.955   3.916 -1.5667  0.5450 -1.8195
   65MOL   H36827376   5.669   2.135   4.078  1.5156 -0.6321 -0.6552
   65MOL   H36927377   5.377   2.092   4.055  1.9328  1.2653 -1.8707
   65MOL   H37027378   5.461   2.013   4.187  0.4532  1.7451  2.2985
   65MOL   H37127379   5.640   2.298   4.247  0.4576 -3.1328 -0.9223
   65MOL   H37227380   5.530   2.307   4.393  3.0505  1.9081  0.8748
   65MOL   H37327381   5.610   2.164   4.344  0.5087 -0.8202 -1.8491
   65MOL   H37427382   5.266   2.270   4.357 -1.0595 -1.4982  1.6666
   65MOL   H37527383   5.346   2.112   4.388 -0.4871  0.6149  1.5168
   65MOL   H37627384   5.236   2.146   4.249 -0.3143  1.9781 -0.6808
   65MOL   H37727385   5.498   2.387   4.084 -0.1622  0.2043 -0.1924
   65MOL   H37827386   5.384   2.438   4.209 -0.7912 -1.2910  1.3757
   65MOL   H37927387   5.322   2.339   4.076  0.8047 -0.3896 -0.5249
   65MOL   C38027388   5.561   2.175   3.895  0.3981 -0.3501 -0.3426
   65MOL   C38127389   5.689   2.226   3.822  0.8752 -0.4034 -0.0976
   65MOL   C38227390   5.762   2.344   3.894  0.0611  0.6311  0.5120
   65MOL   C38327391   5.916   2.336   3.938 -0.5528 -0.7997 -0.5518
   65MOL   C38427392   6.008   2.291   3.823  0.5527  0.6248  0.1951
   65MOL   C38527393   5.920   2.236   4.054 -0.2447 -0.2464 -0.1731
   65MOL   C38627394   5.961   2.471   3.991  0.2875 -0.4965 -0.1938
   65MOL   H38727395   5.494   2.260   3.913  0.5361 -0.4266  0.5704
   65MOL   H38827396   5.514   2.105   3.826 -1.5544 -0.0708  0.6473
   65MOL   H38927397   5.756   2.141   3.824 -1.6196 -2.4231  1.7757
   65MOL   H39027398   5.749   2.434   3.835 -2.6353 -0.4137 -0.5428
   65MOL   H39127399   5.700   2.362   3.981  0.5388 -3.0865  1.7130
   65MOL   H39227400   6.112   2.275   3.852  0.3421  1.3825  1.3686
   65MOL   H39327401   5.984   2.189   3.793 -1.1333  1.8407 -2.8090
   65MOL   H39427402   5.997   2.337   3.725  1.2266 -3.2269 -1.8122
   65MOL   H39527403   5.850   2.260   4.134 -0.6097  0.0592 -0.5835
   65MOL   H39627404   6.021   2.225   4.095  0.2082  2.4123 -0.4875
   65MOL   H39727405   5.899   2.137   4.014 -2.1628 -0.0051  0.2211
   65MOL   H39827406   5.942   2.555   3.924  0.8398  0.3818  0.7316
   65MOL   H39927407   6.068   2.467   4.015  0.3886 -1.3217 -0.7766
   65MOL   H40027408   5.918   2.494   4.088  1.9138 -0.2449  0.4848
   65MOL   C40127409   5.677   2.251   3.667  0.1732 -0.3151 -0.0846
   65MOL   C40227410   5.567   2.349   3.624  0.0635 -0.2749  0.5243
   65MOL   C40327411   5.551   2.347   3.473 -0.4216  0.6034 -0.0695
   65MOL   C40427412   5.447   2.436   3.402 -0.5894  0.0612 -0.0591
   65MOL   C40527413   5.303   2.389   3.437  0.1160 -0.5060  0.6711
   65MOL   C40627414   5.470   2.426   3.248 -0.1789 -0.1426 -0.0662
   65MOL   C40727415   5.462   2.589   3.439 -0.4194  0.4411  0.3911
   65MOL   H40827416   5.773   2.274   3.623 -0.3184  1.1559 -0.4055
   65MOL   H40927417   5.647   2.153   3.630 -0.6371 -0.1145  0.0107
   65MOL   H41027418   5.475   2.323   3.676 -0.7869  0.7617 -0.4416
   65MOL   H41127419   5.515   2.250   3.440 -1.0565  1.4449 -1.8778
   65MOL   H41227420   5.644   2.366   3.420 -1.0708  0.9664 -1.0813
   65MOL   H41327421   5.227   2.455   3.395 -0.0827  0.3166  2.3040
   65MOL   H41427422   5.285   2.379   3.544  1.4895  0.6020  1.0249
   65MOL   H41527423   5.274   2.292   3.398 -1.6193  0.7708 -1.3401
   65MOL   H41627424   5.403   2.491   3.191 -0.8006  0.0026  0.8263
   65MOL   H41727425   5.465   2.327   3.201 -1.7379  0.2827 -0.8234
   65MOL   H41827426   5.572   2.456   3.226  0.3128 -1.2986  0.5760
   65MOL   H41927427   5.483   2.594   3.545 -0.3766 -0.9308  0.4511
   65MOL   H42027428   5.532   2.649   3.381  0.9380 -0.5404  0.9855
   65MOL   H42127429   5.371   2.648   3.443  0.5556  2.0578 -0.7080
   65MOL   H42227430   5.600   2.448   3.655 -2.3170  0.2024  1.6541
   66MOL     C127431   7.193   1.424   3.636 -0.2517  0.4797  0.6478
   66MOL     C227432   7.210   1.285   3.689 -0.0021 -0.7928 -0.1355
   66MOL     C327433   7.322   1.279   3.806 -0.3177  0.5256  0.4182
   66MOL     C427434   7.268   1.295   3.956  0.0996  0.4378 -0.0828
   66MOL     C527435   7.158   1.192   3.997 -0.1725  0.1423  0.1441
   66MOL     C627436   7.391   1.278   4.045  0.0992 -0.2587 -0.5562
   66MOL     C727437   7.208   1.430   3.972 -0.6220 -0.1783 -0.9411
   66MOL     H827438   7.100   1.440   3.582  1.4034  1.7099 -1.9143
   66MOL     H927439   7.187   1.492   3.722 -2.3701  3.3044 -1.6394
   66MOL    H1027440   7.110   1.255   3.719 -0.8264 -1.0000 -2.9870
   66MOL    H1127441   7.397   1.355   3.783 -0.2759  0.2543 -0.3520
   66MOL    H1227442   7.364   1.180   3.791  0.1215  0.9041 -0.9334
   66MOL    H1327443   7.176   1.085   4.008  1.1454  0.6029  3.1208
   66MOL    H1427444   7.081   1.186   3.920  0.7282 -2.4584 -0.6178
   66MOL    H1527445   7.103   1.216   4.088 -2.4254 -0.3759 -1.0575
   66MOL    H1627446   7.466   1.344   4.002 -0.5916  0.8505 -0.0903
   66MOL    H1727447   7.384   1.315   4.147 -0.3435  1.8131 -1.3218
   66MOL    H1827448   7.428   1.176   4.052 -0.9593 -0.5506  1.1580
   66MOL    H1927449   7.279   1.499   3.926 -0.0842 -0.1960 -0.1419
   66MOL    H2027450   7.190   1.462   4.075  0.4002  2.2889 -1.4928
   66MOL    H2127451   7.112   1.433   3.921 -2.1320 -0.0065  1.7764
   66MOL    H2227452   7.270   1.463   3.570 -2.4684 -0.6086 -2.7304
   66MOL    C2327453   7.244   1.191   3.571 -0.3060  0.2808  0.8032
   66MOL    C2427454   7.221   1.042   3.592  0.5228 -0.4270 -0.1689
   66MOL    C2527455   7.303   0.970   3.484  0.3553 -0.4562  0.3019
   66MOL    C2627456   7.425   0.888   3.529  0.0472  0.8533  0.0675
   66MOL    C2727457   7.488   0.824   3.397 -0.1581 -0.3144 -0.0478
   66MOL    C2827458   7.530   0.966   3.599 -0.2176  0.2511 -0.1558
   66MOL    C2927459   7.390   0.772   3.625  0.2564 -0.0448  0.3951
   66MOL    H3027460   7.197   1.222   3.478 -1.1081  1.5302  1.6082
   66MOL    H3127461   7.345   1.223   3.545  0.2308 -2.2484 -0.3357
   66MOL    H3227462   7.257   1.025   3.693  0.5409 -0.8956 -0.2516
   66MOL    H3327463   7.333   1.042   3.408 -0.8347  0.2100  0.4582
   66MOL    H3427464   7.246   0.902   3.421 -0.0754 -0.2473  0.4663
   66MOL    H3527465   7.578   0.768   3.420 -1.1472 -1.0937  2.0343
   66MOL    H3627466   7.413   0.763   3.347 -1.0406  0.6146  0.1356
   66MOL    H3727467   7.509   0.904   3.327 -0.0784  0.3956  0.7789
   66MOL    H3827468   7.628   0.919   3.607 -1.1775 -2.4113 -3.0657
   66MOL    H3927469   7.555   1.058   3.545  1.5575  0.4960  1.0778
   66MOL    H4027470   7.492   0.989   3.698 -3.5735  0.9566 -1.5178
   66MOL    H4127471   7.481   0.716   3.645  0.8572  0.7621 -0.0334
   66MOL    H4227472   7.311   0.713   3.580 -1.2485  2.4651 -0.3794
   66MOL    H4327473   7.354   0.802   3.723 -0.1935 -2.7661  1.1032
   66MOL    C4427474   7.073   1.013   3.586  0.1862 -0.2569  0.1328
   66MOL    C4527475   7.021   0.873   3.635 -0.5796  0.0043  1.2951
   66MOL    C4627476   6.873   0.853   3.598 -0.2136  0.3562  0.1824
   66MOL    C4727477   6.840   0.798   3.460 -0.0031 -0.6805  0.2257
   66MOL    C4827478   6.919   0.872   3.353  0.3572 -0.9009 -0.3407
   66MOL    C4927479   6.689   0.829   3.433 -0.1869 -0.2072 -0.8588
   66MOL    C5027480   6.876   0.649   3.451  0.3473  0.1663  0.0481
   66MOL    H5127481   7.033   1.086   3.656 -0.8416 -2.1271  1.5724
   66MOL    H5227482   7.040   1.040   3.485  1.7959 -0.3860 -0.4421
   66MOL    H5327483   7.087   0.798   3.592 -0.7939 -0.4362  1.7300
   66MOL    H5427484   6.820   0.947   3.618 -0.5033  0.4281 -0.9121
   66MOL    H5527485   6.820   0.790   3.670 -0.5431  0.7839  0.3136
   66MOL    H5627486   6.891   0.828   3.257 -1.2665  0.0328 -0.3133
   66MOL    H5727487   7.026   0.868   3.376  0.3522  0.2023 -0.1090
   66MOL    H5827488   6.885   0.975   3.345 -2.0989 -1.7600 -1.3133
   66MOL    H5927489   6.612   0.770   3.483 -0.3429  1.4011  0.8897
   66MOL    H6027490   6.657   0.933   3.440  0.3805  0.0791 -2.4833
   66MOL    H6127491   6.674   0.806   3.328 -1.2879  0.9943 -0.9847
   66MOL    H6227492   6.979   0.625   3.476 -0.6423  1.3838  6.1419
   66MOL    H6327493   6.806   0.592   3.512 -0.0093 -0.8542 -1.2829
   66MOL    H6427494   6.859   0.624   3.346 -0.6946  0.2902  0.1786
   66MOL    C6527495   7.041   0.857   3.780  0.2751 -0.4576  0.0541
   66MOL    C6627496   7.017   0.723   3.861 -0.1261  1.0820  0.1656
   66MOL    C6727497   7.009   0.745   4.021 -0.1154  0.2367  0.9048
   66MOL    C6827498   6.870   0.778   4.089 -0.0908 -0.0225 -0.2498
   66MOL    C6927499   6.776   0.662   4.065  0.3240 -0.9328 -0.3857
   66MOL    C7027500   6.903   0.796   4.240 -0.0877  0.9123 -0.6930
   66MOL    C7127501   6.812   0.910   4.025 -0.1369 -0.6858  0.1469
   66MOL    H7227502   7.136   0.897   3.815  0.9886 -1.5733 -0.5367
   66MOL    H7327503   6.977   0.929   3.830  2.9145  0.8589  1.6605
   66MOL    H7427504   6.923   0.677   3.831  1.1103 -1.4690 -0.0181
   66MOL    H7527505   7.082   0.817   4.058 -0.6218  1.3412 -0.1917
   66MOL    H7627506   7.044   0.658   4.075  0.4772 -0.5850 -0.7697
   66MOL    H7727507   6.686   0.652   4.126  0.1368 -0.8607 -0.6509
   66MOL    H7827508   6.740   0.667   3.962 -1.9747 -0.4059  0.4112
   66MOL    H7927509   6.831   0.569   4.082  3.8888  0.8971 -1.3583
   66MOL    H8027510   6.931   0.700   4.283 -0.2593  1.1297 -0.0795
   66MOL    H8127511   6.817   0.833   4.295 -0.7603  1.3682 -2.0354
   66MOL    H8227512   6.983   0.867   4.262  0.9818 -0.7559  0.9323
   66MOL    H8327513   6.776   0.893   3.924 -0.0574  0.9321 -0.1676
   66MOL    H8427514   6.887   0.989   4.021  0.3267 -1.1495 -0.4639
   66MOL    H8527515   6.724   0.937   4.082  0.0565  0.2136  0.0249
   66MOL    C8627516   7.130   0.628   3.823 -0.9632  0.5168 -0.5132
   66MOL    C8727517   7.104   0.474   3.834  0.0245  0.4139 -0.0265
   66MOL    C8827518   7.232   0.399   3.853  0.2822 -0.2620  0.5287
   66MOL    C8927519   7.291   0.372   3.995 -0.6586  0.1866  0.3323
   66MOL    C9027520   7.352   0.499   4.064  0.5020  0.8157 -0.3633
   66MOL    C9127521   7.400   0.259   3.977  0.0183  0.0521  0.1560
   66MOL    C9227522   7.180   0.303   4.085 -0.2908  0.4983 -0.2623
   66MOL    H9327523   7.218   0.647   3.883  0.4179 -1.9673 -1.6826
   66MOL    H9427524   7.154   0.653   3.719  0.2998  1.4147 -0.0122
   66MOL    H9527525   7.050   0.459   3.927 -0.0514 -1.5833 -0.3648
   66MOL    H9627526   7.316   0.440   3.797  1.0614 -1.9065  0.4558
   66MOL    H9727527   7.221   0.309   3.794  4.2514 -2.7661  3.3705
   66MOL    H9827528   7.392   0.498   4.165 -2.9553 -0.3856  1.0760
   66MOL    H9927529   7.268   0.567   4.081 -1.2770 -1.8704  2.1738
   66MOL   H10027530   7.421   0.537   3.989  1.7098 -1.3097 -0.3748
   66MOL   H10127531   7.488   0.303   3.931  0.1407 -0.6033 -0.2516
   66MOL   H10227532   7.429   0.230   4.078  0.2634 -2.2260 -0.5321
   66MOL   H10327533   7.358   0.175   3.920 -1.3022  0.9326 -0.1938
   66MOL   H10427534   7.107   0.247   4.027  0.5716  1.4294 -2.2906
   66MOL   H10527535   7.216   0.254   4.176  0.4228  0.4389 -0.5750
   66MOL   H10627536   7.119   0.381   4.130  2.6435  1.3176  2.5046
   66MOL   C10727537   7.014   0.427   3.714 -0.5090 -0.6510 -0.2826
   66MOL   C10827538   6.978   0.278   3.697 -0.3084 -0.4624  0.2224
   66MOL   C10927539   6.833   0.266   3.639 -0.1397 -0.4213  0.1169
   66MOL   C11027540   6.720   0.242   3.744 -0.0412  0.5165 -0.3256
   66MOL   C11127541   6.583   0.262   3.680 -0.2419  0.4301 -0.0154
   66MOL   C11227542   6.719   0.340   3.864  0.6629  0.0317 -0.1806
   66MOL   C11327543   6.742   0.098   3.793  0.3440  0.1620 -0.4476
   66MOL   H11427544   7.062   0.461   3.622 -1.4846  1.1811 -0.1459
   66MOL   H11527545   6.926   0.491   3.722 -1.8252 -2.5294  0.5059
   66MOL   H11627546   6.982   0.234   3.797  0.2085 -1.3452 -0.1802
   66MOL   H11727547   6.827   0.363   3.589  5.2431 -0.1762 -0.3221
   66MOL   H11827548   6.822   0.188   3.563  2.0208  0.1436 -0.8229
   66MOL   H11927549   6.580   0.191   3.597  2.2150 -0.3764  0.5386
   66MOL   H12027550   6.501   0.240   3.749 -1.1606  0.9814 -0.9243
   66MOL   H12127551   6.564   0.360   3.636 -0.3760 -0.1836 -1.3470
   66MOL   H12227552   6.689   0.439   3.831 -0.2103  0.4148  1.7177
   66MOL   H12327553   6.811   0.348   3.922  0.4129 -0.6681  0.3141
   66MOL   H12427554   6.642   0.317   3.937 -0.3078  2.1155 -0.5295
   66MOL   H12527555   6.737   0.020   3.717  0.6408 -0.4549  0.1689
   66MOL   H12627556   6.659   0.077   3.861  0.8757 -0.0439  0.1367
   66MOL   H12727557   6.840   0.080   3.837  0.0150 -1.0168 -0.1791
   66MOL   C12827558   7.082   0.205   3.603 -0.0783 -0.0455 -1.0363
   66MOL   C12927559   7.079   0.047   3.597 -0.3220 -0.2640 -0.5992
   66MOL   C13027560   7.133   7.749   3.462  0.3770 -0.0360 -0.2879
   66MOL   C13127561   7.031   7.695   3.360 -0.0403  0.3898  0.1328
   66MOL   C13227562   6.917   0.028   3.325 -0.0939  0.3884 -0.3060
   66MOL   C13327563   6.957   7.569   3.415  0.3629 -0.4431 -0.0443
   66MOL   C13427564   7.101   7.649   3.236  0.6961 -0.2183 -0.6293
   66MOL   H13527565   7.185   0.238   3.618  0.2177 -1.9368  1.4171
   66MOL   H13627566   7.070   0.242   3.501  1.9270  2.0411 -0.5739
   66MOL   H13727567   6.976   0.016   3.610 -0.5487  0.5643 -0.3891
   66MOL   H13827568   7.197   0.057   3.414 -0.3010  0.2207 -0.8034
   66MOL   H13927569   7.206   7.671   3.483  0.9979  0.9030  1.0946
   66MOL   H14027570   6.945   0.133   3.328  0.4716  0.1982  1.4012
   66MOL   H14127571   6.831   0.029   3.391 -0.0360  1.4519 -0.2418
   66MOL   H14227572   6.879   0.004   3.226 -1.7637  0.2979  0.3450
   66MOL   H14327573   6.903   7.595   3.506  0.8019  1.9090 -0.4114
   66MOL   H14427574   7.029   7.492   3.444 -0.2522 -0.9780  0.0701
   66MOL   H14527575   6.890   7.514   3.350  0.9327 -0.8264 -0.3156
   66MOL   H14627576   7.165   7.564   3.257  0.5662 -0.4809 -1.2873
   66MOL   H14727577   7.031   7.622   3.156  1.2644  2.0691 -1.9437
   66MOL   H14827578   7.164   7.732   3.206  1.7734 -1.0231 -0.6221
   66MOL   C14927579   7.147   0.007   3.730 -0.3567  0.7594 -0.5410
   66MOL   C15027580   7.142   7.627   3.773  0.6143 -0.7796 -0.3650
   66MOL   C15127581   7.278   7.579   3.840 -0.1108 -0.0299  0.0201
   66MOL   C15227582   7.399   7.544   3.754 -0.2769  0.5063 -0.7353
   66MOL   C15327583   7.447   7.668   3.677 -0.7479  0.0096 -0.6029
   66MOL   C15427584   7.381   7.431   3.653  0.3085 -1.3923 -0.8181
   66MOL   C15527585   7.523   7.503   3.850  0.2737  0.0448  0.4207
   66MOL   H15627586   7.112   0.061   3.818  0.9370  0.1275  0.3672
   66MOL   H15727587   7.249   0.047   3.731  0.1623 -0.5976  1.2484
   66MOL   H15827588   7.118   7.565   3.687 -0.1921  0.6163 -1.1633
   66MOL   H15927589   7.253   7.481   3.880  1.1492 -0.4280 -0.1374
   66MOL   H16027590   7.297   7.653   3.918  0.5748 -0.8078  0.5996
   66MOL   H16127591   7.389   7.688   3.586 -1.1426 -0.1464 -0.3882
   66MOL   H16227592   7.466   7.764   3.725 -0.1019 -0.6028  0.3709
   66MOL   H16327593   7.541   7.645   3.627  0.4893  3.7309 -0.1487
   66MOL   H16427594   7.336   7.347   3.706  0.4015 -1.5632 -1.0060
   66MOL   H16527595   7.478   7.414   3.606 -0.6859 -3.3850 -2.2712
   66MOL   H16627596   7.329   7.466   3.564 -1.4011 -1.5195  0.1172
   66MOL   H16727597   7.551   7.582   3.919  1.8241 -1.5915  1.7379
   66MOL   H16827598   7.508   7.409   3.904 -2.0535  0.9663  1.4655
   66MOL   H16927599   7.607   7.480   3.785 -1.2179 -0.8613 -1.2557
   66MOL   C17027600   7.019   7.603   3.870 -0.9018 -0.6709  0.5990
   66MOL   C17127601   6.982   7.453   3.894 -0.0828  0.2494  0.3887
   66MOL   C17227602   6.858   7.403   3.812 -0.0500 -0.6704 -0.2809
   66MOL   C17327603   6.851   7.259   3.750  0.4121 -0.2192 -0.4510
   66MOL   C17427604   6.702   7.218   3.738 -0.2537 -0.0136  0.6451
   66MOL   C17527605   6.914   7.137   3.819  0.6544 -0.6753 -0.3244
   66MOL   C17627606   6.918   7.263   3.613 -0.0648  0.9560  0.8328
   66MOL   H17727607   6.934   7.644   3.816 -0.2908 -0.0216  0.1141
   66MOL   H17827608   7.028   7.666   3.958  1.3586 -0.5398  0.3017
   66MOL   H17927609   7.063   7.398   3.846 -0.7652  0.3294 -0.8859
   66MOL   H18027610   6.775   7.437   3.874 -0.5811  1.1960 -1.9494
   66MOL   H18127611   6.836   7.472   3.730 -1.0479 -0.4852  0.1348
   66MOL   H18227612   6.642   7.225   3.828 -2.2520 -3.1734 -0.3579
   66MOL   H18327613   6.642   7.282   3.673  0.3575 -0.3304 -0.2551
   66MOL   H18427614   6.689   7.122   3.687 -0.5340  0.4688 -0.2148
   66MOL   H18527615   6.861   7.137   3.914 -0.2475 -2.0598 -0.8123
   66MOL   H18627616   6.891   7.039   3.777  1.6629 -0.1273 -2.2257
   66MOL   H18727617   7.022   7.147   3.828  0.5168 -0.1490  0.8317
   66MOL   H18827618   6.913   7.162   3.575 -0.7636  1.5397 -0.6620
   66MOL   H18927619   6.859   7.324   3.545 -0.6245 -1.1759 -0.6342
   66MOL   H19027620   7.021   7.301   3.618 -0.3483  2.1832 -2.1006
   66MOL   C19127621   6.999   7.404   4.045 -0.3963  0.7434 -0.4703
   66MOL   C19227622   6.904   7.467   4.146 -0.5338 -0.2229  0.4211
   66MOL   C19327623   6.962   7.481   4.291  0.6347 -0.6096  0.1378
   66MOL   C19427624   7.066   7.588   4.332  1.1632  0.2198 -0.5539
   66MOL   C19527625   7.122   7.553   4.470 -1.1784 -0.4182  0.1339
   66MOL   C19627626   6.989   7.723   4.342  0.2419 -0.8300 -0.5380
   66MOL   C19727627   7.184   7.614   4.237  0.0248 -0.0780 -0.3308
   66MOL   H19827628   7.012   7.298   4.067  2.3842  1.2807  0.6620
   66MOL   H19927629   7.097   7.444   4.069 -0.1534  0.1742 -0.5093
   66MOL   H20027630   6.878   7.564   4.105  2.2794  0.2712 -0.3205
   66MOL   H20127631   6.991   7.379   4.316 -3.0060 -1.3570  1.6089
   66MOL   H20227632   6.885   7.492   4.367  2.6338  1.2876  1.9723
   66MOL   H20327633   7.046   7.551   4.547 -0.9420  1.7327  0.4658
   66MOL   H20427634   7.173   7.457   4.478 -0.0149 -0.0081 -1.8808
   66MOL   H20527635   7.197   7.626   4.502 -1.9823  0.7780 -0.6836
   66MOL   H20627636   6.921   7.726   4.427 -1.7602  3.3820 -2.1131
   66MOL   H20727637   7.051   0.037   4.384 -1.6772 -1.2893  3.3948
   66MOL   H20827638   6.928   7.758   4.259 -0.9619 -1.0166  0.2564
   66MOL   H20927639   7.154   7.660   4.143 -2.2170  0.5276  0.6290
   66MOL   H21027640   7.256   7.674   4.292 -0.7654  0.4704  0.1227
   66MOL   H21127641   7.236   7.520   4.218  0.3371  0.6162 -3.0351
   66MOL   C21227642   6.774   7.392   4.160  0.7422  0.8420  0.3473
   66MOL   C21327643   6.647   7.461   4.220  0.6788 -0.1069  0.6429
   66MOL   C21427644   6.551   7.361   4.281  0.2224  0.0448 -0.4905
   66MOL   C21527645   6.569   7.309   4.436 -1.0298  0.1673  0.2139
   66MOL   C21627646   6.434   7.238   4.473 -0.1773  0.1851 -0.0641
   66MOL   C21727647   6.685   7.205   4.451 -0.6511 -0.0827 -0.3379
   66MOL   C21827648   6.607   7.435   4.532  0.3744 -0.3028 -0.0438
   66MOL   H21927649   6.739   7.347   4.067 -0.2178 -0.6547  1.4310
   66MOL   H22027650   6.800   7.311   4.228  2.9069  0.9102 -0.3517
   66MOL   H22127651   6.684   7.536   4.289  4.2760 -1.1993  0.0214
   66MOL   H22227652   6.532   7.279   4.212 -0.2209 -0.3783  0.1299
   66MOL   H22327653   6.454   7.411   4.291 -0.0053 -0.3096 -0.9439
   66MOL   H22427654   6.357   7.315   4.485 -0.9492 -0.5922 -0.0168
   66MOL   H22527655   6.443   7.200   4.575  0.3853 -0.8683 -0.5083
   66MOL   H22627656   6.412   7.171   4.390  3.5620  0.4563 -1.3819
   66MOL   H22727657   6.787   7.242   4.438 -0.2261 -1.5482 -1.3032
   66MOL   H22827658   6.676   7.155   4.548 -0.0803  2.0980  0.8803
   66MOL   H22927659   6.679   7.128   4.374  0.8838 -1.9576  1.3454
   66MOL   H23027660   6.705   7.478   4.509  0.6603 -1.0509 -0.2261
   66MOL   H23127661   6.608   7.411   4.638 -1.4576 -3.6005 -0.7156
   66MOL   H23227662   6.531   7.513   4.530  0.5063 -0.1215  1.6668
   66MOL   C23327663   6.578   7.522   4.095 -0.3228 -0.4710 -0.2586
   66MOL   C23427664   6.466   7.629   4.110 -1.0405 -0.1802 -0.0124
   66MOL   C23527665   6.528   7.766   4.147 -0.1764  0.2301  0.6745
   66MOL   C23627666   6.475   0.081   4.269 -0.2852  0.0693 -0.0205
   66MOL   C23727667   6.548   0.218   4.276 -0.1134  0.1608 -0.5303
   66MOL   C23827668   6.320   0.094   4.270 -0.5920 -0.3728 -0.5026
   66MOL   C23927669   6.510   0.003   4.393  0.1829  0.6305 -0.1139
   66MOL   H24027670   6.524   7.445   4.039  0.4085 -0.7879 -0.5373
   66MOL   H24127671   6.653   7.569   4.031 -1.5549  2.3065  0.2902
   66MOL   H24227672   6.398   7.606   4.193 -0.7018 -0.5757  0.1594
   66MOL   H24327673   6.637   7.763   4.147 -0.1969 -0.6357  0.7087
   66MOL   H24427674   6.512   0.065   4.061 -1.2875 -2.0940 -0.9365
   66MOL   H24527675   6.652   0.231   4.306 -0.2708 -0.9977  0.5706
   66MOL   H24627676   6.494   0.272   4.353  0.1121 -2.0817  1.2567
   66MOL   H24727677   6.531   0.274   4.184  0.2177  1.7205  0.3354
   66MOL   H24827678   6.278   0.112   4.171 -1.7756  0.5347  0.1450
   66MOL   H24927679   6.269   0.003   4.301  3.0239 -1.0089  4.0956
   66MOL   H25027680   6.275   0.172   4.332  0.0782 -0.4086  0.0251
   66MOL   H25127681   6.457   7.674   4.392 -0.3192  0.8696  1.6387
   66MOL   H25227682   6.618   0.000   4.408  0.0745 -0.6653  0.4738
   66MOL   H25327683   6.479   0.055   4.484  2.5649  0.7443  0.6600
   66MOL   C25427684   6.393   7.640   3.972 -0.4977  0.1630  0.2640
   66MOL   C25527685   6.309   7.518   3.926  0.6398  0.6014  0.2439
   66MOL   C25627686   6.217   7.556   3.819  0.3259  0.7410 -0.8488
   66MOL   C25727687   6.284   7.612   3.692  0.1047 -0.1145  0.2951
   66MOL   C25827688   6.301   0.001   3.695 -0.1384 -0.2242  0.5212
   66MOL   C25927689   6.187   7.577   3.578  0.4665 -0.0748  0.6137
   66MOL   C26027690   6.419   7.529   3.660 -0.2450 -0.2233 -0.3863
   66MOL   H26127691   6.467   7.665   3.896 -1.3633  0.1139 -0.5967
   66MOL   H26227692   6.323   7.723   3.981 -1.0056 -0.4162  1.7142
   66MOL   H26327693   6.378   7.444   3.886 -1.5724  0.1591 -3.0111
   66MOL   H26427694   6.163   7.465   3.795  2.0471 -0.1959 -1.2253
   66MOL   H26527695   6.138   7.622   3.856 -0.1113  0.7949 -1.8614
   66MOL   H26627696   6.217   0.045   3.748 -0.8888 -1.3213  0.2628
   66MOL   H26727697   6.311   0.051   3.599  1.3857  0.2226  0.9004
   66MOL   H26827698   6.391   0.032   3.747 -0.0324  1.7662 -0.7781
   66MOL   H26927699   6.209   7.620   3.480 -0.3403 -1.7777 -0.3265
   66MOL   H27027700   6.096   7.635   3.597  1.5087  1.5857  0.6305
   66MOL   H27127701   6.151   7.474   3.585 -0.4180  0.2290  0.7010
   66MOL   H27227702   6.449   7.536   3.555  1.0966  0.4082  0.0312
   66MOL   H27327703   6.498   7.561   3.728 -1.3716  1.5674  0.1032
   66MOL   H27427704   6.399   7.423   3.672  0.7649 -0.4114 -0.2872
   66MOL   C27527705   6.235   7.446   4.050  0.5661 -0.1682  0.4613
   66MOL   C27627706   6.145   7.319   4.027 -0.7865  0.7768  0.3672
   66MOL   C27727707   6.229   7.191   3.993 -0.2716  0.0389  0.8449
   66MOL   C27827708   6.183   7.101   3.876  0.2077 -0.5500  0.3013
   66MOL   C27927709   6.266   6.974   3.866 -0.2810  0.3631  1.4900
   66MOL   C28027710   6.041   7.053   3.902 -0.0003  0.8712  0.0845
   66MOL   C28127711   6.181   7.186   3.749  0.5359 -0.1304  0.8027
   66MOL   H28227712   6.310   7.426   4.127  0.3834  0.7320  0.8813
   66MOL   H28327713   6.165   7.521   4.086 -0.2242  0.3279 -2.0592
   66MOL   H28427714   6.075   7.342   3.946 -1.3688 -2.0320  0.0302
   66MOL   H28527715   6.236   7.135   4.086 -1.5470 -1.1385  0.2586
   66MOL   H28627716   6.331   7.225   3.976 -0.1136 -0.4956  0.7407
   66MOL   H28727717   6.236   6.890   3.803  1.0714 -0.1939  1.5678
   66MOL   H28827718   6.362   7.006   3.823 -0.7915  1.0922  0.8690
   66MOL   H28927719   6.279   6.921   3.960  0.5769  0.9169  1.6923
   66MOL   H29027720   5.980   7.143   3.895  1.9434  2.1960 -0.1534
   66MOL   H29127721   6.015   7.008   3.998  2.8856 -2.3560 -0.5650
   66MOL   H29227722   6.017   6.995   3.813  0.7075  0.0672  0.4102
   66MOL   H29327723   6.110   7.268   3.763  0.0621 -0.4824  0.4949
   66MOL   H29427724   6.158   7.119   3.666  1.5948 -0.1789  0.5393
   66MOL   H29527725   6.279   7.229   3.729  0.0288 -0.5085 -2.8417
   66MOL   C29627726   6.063   7.282   4.157  0.0329  0.1934  0.5367
   66MOL   C29727727   5.957   7.384   4.201  0.1818 -0.2279  0.3350
   66MOL   C29827728   5.910   7.362   4.351  0.0272  0.0053 -0.5348
   66MOL   C29927729   6.001   7.402   4.467 -0.1747  0.1422 -0.3802
   66MOL   C30027730   6.107   7.502   4.428 -0.3867 -0.0915  0.0161
   66MOL   C30127731   5.920   7.441   4.589  0.3772  0.4005 -0.0533
   66MOL   C30227732   6.076   7.271   4.510 -0.5944 -0.4455  0.4357
   66MOL   H30327733   6.138   7.255   4.231  0.1779 -0.9428 -0.0227
   66MOL   H30427734   6.009   7.191   4.133  1.4156 -0.3148 -0.7368
   66MOL   H30527735   5.998   7.485   4.194  0.4380 -0.3987 -0.7319
   66MOL   H30627736   5.854   7.269   4.359  2.4506 -1.5491 -1.0533
   66MOL   H30727737   5.824   7.428   4.352  0.4824  0.6046  0.4827
   66MOL   H30827738   6.045   7.578   4.381  0.4549  0.3437 -0.3908
   66MOL   H30927739   6.152   7.557   4.511 -1.1532  0.2033  0.2429
   66MOL   H31027740   6.176   7.459   4.355  0.3296  2.3716 -0.8216
   66MOL   H31127741   5.980   7.474   4.674 -0.6332 -0.2231  0.9229
   66MOL   H31227742   5.851   7.520   4.559 -0.4203 -0.6524 -1.0007
   66MOL   H31327743   5.863   7.359   4.633  0.5569 -0.6346 -1.7111
   66MOL   H31427744   6.013   7.193   4.554 -1.1523  0.6181  1.5537
   66MOL   H31527745   6.131   7.216   4.433 -2.6040 -3.2054  0.8758
   66MOL   H31627746   6.153   7.293   4.584 -0.1530 -0.3251 -0.0550
   66MOL   C31727747   5.828   7.378   4.101 -0.2242  0.1966 -0.5621
   66MOL   C31827748   5.762   7.512   4.070 -0.1890 -0.2932  0.0213
   66MOL   C31927749   5.846   7.607   3.987 -0.0462  0.2568  0.5711
   66MOL   C32027750   5.854   7.759   4.033  0.0516  0.4908 -0.2416
   66MOL   C32127751   5.932   0.081   3.941  0.3257 -0.2215  0.4602
   66MOL   C32227752   5.918   0.011   4.177 -0.0405  0.4117  0.1266
   66MOL   C32327753   5.715   0.055   4.054  0.1693 -0.3023 -0.1570
   66MOL   H32427754   5.858   7.328   4.010 -0.7784  0.0778 -0.6797
   66MOL   H32527755   5.758   7.313   4.154  1.6395 -1.2955  0.1065
   66MOL   H32627756   5.745   7.560   4.166  1.2969  2.9140 -1.2463
   66MOL   H32727757   5.821   7.597   3.882  1.3554  1.6144  0.0925
   66MOL   H32827758   5.947   7.566   3.982 -0.5860 -1.0902  0.4949
   66MOL   H32927759   5.901   0.076   3.837 -0.3663  2.0840  0.5136
   66MOL   H33027760   6.035   0.048   3.946  0.4652  0.4046  2.2747
   66MOL   H33127761   5.925   0.188   3.964 -0.9310 -0.5674  1.7854
   66MOL   H33227762   5.844   7.724   4.237  0.3399  0.9607  1.0749
   66MOL   H33327763   6.016   7.734   4.198 -0.7485 -0.2930  2.0856
   66MOL   H33427764   5.919   0.114   4.210  0.2352  0.0048  1.4145
   66MOL   H33527765   5.726   0.153   4.101 -2.3423 -0.2127  0.3122
   66MOL   H33627766   5.653   0.004   4.128  1.2202 -1.6395 -0.1807
   66MOL   H33727767   5.663   0.079   3.962 -0.2482 -1.8069 -0.3203
   66MOL   C33827768   5.615   7.495   4.022 -0.0579  0.4272 -0.3830
   66MOL   C33927769   5.512   7.437   4.118 -0.0864  0.1942 -0.0945
   66MOL   C34027770   5.390   7.387   4.031  0.1803  0.3275 -0.8847
   66MOL   C34127771   5.373   7.235   4.015  0.4182 -0.2987  1.2436
   66MOL   C34227772   5.265   7.210   3.913 -0.0197 -0.1904  0.8539
   66MOL   C34327773   5.506   7.154   3.975  0.0135  0.5033 -0.2383
   66MOL   C34427774   5.326   7.170   4.152  0.3088 -0.1516  0.2641
   66MOL   H34527775   5.619   7.435   3.931 -1.4228 -0.0163 -0.1698
   66MOL   H34627776   5.571   7.586   3.981 -0.8460 -0.2050 -0.9665
   66MOL   H34727777   5.554   7.355   4.176  2.0170  2.1668  1.2899
   66MOL   H34827778   5.397   7.432   3.932 -1.0584 -2.1335 -2.1214
   66MOL   H34927779   5.301   7.437   4.068  0.0650 -0.2637 -0.3660
   66MOL   H35027780   5.174   7.262   3.941 -0.5119 -0.7792  0.3536
   66MOL   H35127781   5.294   7.241   3.812 -1.5873 -2.5000 -0.3528
   66MOL   H35227782   5.245   7.103   3.918 -1.4983 -0.0161 -0.8141
   66MOL   H35327783   5.585   7.167   4.049 -1.0040 -1.1373  1.1782
   66MOL   H35427784   5.489   7.047   3.967 -1.1303  0.7465 -1.1537
   66MOL   H35527785   5.545   7.192   3.881 -0.8541  0.2973 -0.6834
   66MOL   H35627786   5.281   7.071   4.153 -0.7960  0.3467  1.3684
   66MOL   H35727787   5.417   7.168   4.210  0.1717  3.4437  0.6918
   66MOL   H35827788   5.266   7.243   4.207  0.7010  0.8731 -0.6464
   66MOL   C35927789   5.467   7.554   4.220  0.0591  0.5504  0.4293
   66MOL   C36027790   5.398   7.521   4.354 -0.8011 -0.2381  0.5213
   66MOL   C36127791   5.325   7.644   4.410 -0.3614 -0.3074  0.4620
   66MOL   C36227792   5.175   7.671   4.376 -0.3474 -0.5711  1.0250
   66MOL   C36327793   5.119   7.756   4.486  0.4908  0.0750  0.1153
   66MOL   C36427794   5.092   7.547   4.375 -0.6067 -0.1046  1.0345
   66MOL   C36527795   5.161   7.744   4.236 -0.2469  0.0456 -0.8882
   66MOL   H36627796   5.406   7.630   4.172 -1.3409 -0.5481  0.4209
   66MOL   H36727797   5.555   7.607   4.256  0.5640  1.1144 -1.5631
   66MOL   H36827798   5.334   7.437   4.327 -0.4805 -0.4312  0.3553
   66MOL   H36927799   5.340   7.646   4.518 -1.3314  4.4276  0.6205
   66MOL   H37027800   5.381   7.732   4.377 -0.8298 -0.4272 -0.6699
   66MOL   H37127801   5.145   7.710   4.581  0.6923  2.4293  1.2482
   66MOL   H37227802   5.174   0.085   4.479  0.2000  0.1081 -2.3136
   66MOL   H37327803   5.012   0.008   4.488  0.5295  0.3171  0.1509
   66MOL   H37427804   5.101   7.484   4.463 -0.3055 -1.1704  0.2476
   66MOL   H37527805   5.115   7.485   4.289 -0.1659  0.0165  1.0645
   66MOL   H37627806   4.985   7.567   4.363 -0.3174  0.6759 -0.3118
   66MOL   H37727807   5.176   7.672   4.155  1.0005 -0.6047 -0.0993
   66MOL   H37827808   5.228   0.064   4.227  0.4740 -0.3403  0.6560
   66MOL   H37927809   5.064   0.027   4.238 -0.8187 -1.0397 -1.6429
   66MOL   C38027810   5.504   7.467   4.451 -0.3848  0.2733  0.3450
   66MOL   C38127811   5.438   7.371   4.561  0.5476 -0.1004 -0.1285
   66MOL   C38227812   5.531   7.351   4.683  0.4775 -0.7202 -0.3749
   66MOL   C38327813   5.499   7.440   4.806  0.1110 -0.1025  0.3341
   66MOL   C38427814   5.524   7.592   4.774  0.3373 -0.3430  0.1539
   66MOL   C38527815   5.588   7.398   4.920 -0.9169  0.3788  0.1415
   66MOL   C38627816   5.355   7.423   4.854 -0.2288  0.1683  0.7772
   66MOL   H38727817   5.566   7.545   4.495  0.6181 -0.6448  0.5702
   66MOL   H38827818   5.563   7.399   4.389 -0.4518  1.9745 -1.6519
   66MOL   H38927819   5.337   7.404   4.582  0.1470 -0.2784 -1.6481
   66MOL   H39027820   5.541   7.249   4.719 -1.6063 -1.1623 -0.9546
   66MOL   H39127821   5.630   7.372   4.643  0.2042  2.2529  0.4097
   66MOL   H39227822   5.504   7.655   4.860 -0.3149 -0.6716  0.2431
   66MOL   H39327823   5.626   7.621   4.747  0.6989 -0.6224  1.1770
   66MOL   H39427824   5.467   7.633   4.691  1.2968  0.8050  0.0333
   66MOL   H39527825   5.540   7.417   5.016 -1.2711  1.5680 -0.2660
   66MOL   H39627826   5.686   7.445   4.919 -0.0387 -1.3406  1.2574
   66MOL   H39727827   5.603   7.290   4.932  1.0339  0.7329  1.0287
   66MOL   H39827828   5.340   7.445   4.960  2.3965 -1.2498  1.4871
   66MOL   H39927829   5.323   7.320   4.837 -1.8387  0.8068 -0.1384
   66MOL   H40027830   5.288   7.474   4.785 -0.4065  0.2447  1.0069
   66MOL   C40127831   5.419   7.232   4.497 -0.0546 -0.1500  0.1387
   66MOL   C40227832   5.353   7.119   4.582  0.0779 -0.0169 -0.0340
   66MOL   C40327833   5.199   7.132   4.580 -0.6168  0.8152  0.4556
   66MOL   C40427834   5.116   7.031   4.666 -0.4312  0.4637 -0.4988
   66MOL   C40527835   5.152   7.032   4.813 -0.8720  0.2200 -0.5917
   66MOL   C40627836   5.144   6.886   4.618  0.0798  0.3659  0.1317
   66MOL   C40727837   4.961   7.065   4.649 -0.1180  0.2142 -1.1374
   66MOL   H40827838   5.366   7.245   4.404  0.5469 -3.2590 -0.7101
   66MOL   H40927839   5.512   7.189   4.458 -0.4520 -1.2801  0.4002
   66MOL   H41027840   5.396   7.023   4.552  1.7815 -0.0164  2.2821
   66MOL   H41127841   5.166   7.129   4.476 -4.9056  1.6161  1.6922
   66MOL   H41227842   5.184   7.234   4.616  0.3546  0.4435  1.9003
   66MOL   H41327843   5.258   7.015   4.832 -1.1859  0.4344  1.4581
   66MOL   H41427844   5.085   6.973   4.876  0.7493  0.5851  1.5293
   66MOL   H41527845   5.137   7.134   4.847 -0.4480 -0.4169  1.5738
   66MOL   H41627846   5.247   6.862   4.646  0.7477  0.5031 -2.1104
   66MOL   H41727847   5.126   6.879   4.511 -0.6811  1.0697  0.2089
   66MOL   H41827848   5.084   6.813   4.672  0.9527 -1.7485 -1.6410
   66MOL   H41927849   4.904   7.000   4.716  0.7824  0.6121  0.0306
   66MOL   H42027850   4.923   7.163   4.677 -1.3718 -0.6635  0.3550
   66MOL   H42127851   4.928   7.039   4.548  1.2473  1.8747 -2.0213
   66MOL   H42227852   5.388   7.123   4.685  1.8138 -0.2487 -0.6074
   67MOL     C127853   6.060   6.557   3.125 -0.4819 -0.9353  0.0937
   67MOL     C227854   6.078   6.665   3.231 -0.0316 -0.1725  0.0192
   67MOL     C327855   5.952   6.752   3.239 -0.0721 -0.2890 -0.2603
   67MOL     C427856   5.892   6.785   3.377  0.1149  0.0263  0.1681
   67MOL     C527857   5.994   6.862   3.460 -0.4905 -0.3481  0.5583
   67MOL     C627858   5.764   6.875   3.351 -0.5677  0.0607 -0.3286
   67MOL     C727859   5.853   6.657   3.443 -0.8250  0.2982 -0.0902
   67MOL     H827860   6.128   6.476   3.150 -1.1777 -1.2643  0.9605
   67MOL     H927861   5.957   6.521   3.118 -0.9704  0.1800  1.4524
   67MOL    H1027862   6.092   6.615   3.327  0.5388  0.6999  0.3982
   67MOL    H1127863   5.874   6.708   3.176  2.0953 -0.7375 -2.7254
   67MOL    H1227864   5.983   6.845   3.193  1.1505 -1.6127 -2.1665
   67MOL    H1327865   6.043   6.941   3.404 -1.4032 -0.8474 -0.9772
   67MOL    H1427866   6.076   6.793   3.482  1.2713  1.6034  0.1723
   67MOL    H1527867   5.953   6.903   3.552 -2.4153  0.4590 -0.5997
   67MOL    H1627868   5.667   6.827   3.364 -0.9113  0.5658 -1.0284
   67MOL    H1727869   5.769   6.956   3.424 -3.2713  0.3974 -0.4694
   67MOL    H1827870   5.766   6.924   3.254  3.5791  0.2986 -0.2167
   67MOL    H1927871   5.798   6.678   3.535  0.3660  1.3155  0.3918
   67MOL    H2027872   5.934   6.588   3.467 -2.4430 -2.0668 -1.2556
   67MOL    H2127873   5.776   6.609   3.383 -0.8912 -0.8713  0.8987
   67MOL    H2227874   6.089   6.616   3.038 -2.9572  2.3120  1.3881
   67MOL    C2327875   6.210   6.743   3.221  0.5771 -0.4295  0.3465
   67MOL    C2427876   6.342   6.660   3.242 -0.5707  0.1477 -0.4122
   67MOL    C2527877   6.373   6.649   3.399 -0.5233 -0.2037  0.0578
   67MOL    C2627878   6.379   6.507   3.462 -0.2675  0.1004  0.2612
   67MOL    C2727879   6.424   6.521   3.606  0.5733 -0.6286  0.8250
   67MOL    C2827880   6.246   6.433   3.476  0.2904 -0.9222 -0.6001
   67MOL    C2927881   6.479   6.407   3.390  0.2325  0.2731 -0.1571
   67MOL    H3027882   6.201   6.782   3.120 -0.6038  1.6828  1.2248
   67MOL    H3127883   6.198   6.830   3.285  0.5371 -0.2037  0.0298
   67MOL    H3227884   6.325   6.556   3.213 -0.0423  0.4836 -1.9857
   67MOL    H3327885   6.292   6.703   3.448 -0.4453  1.0381 -1.1764
   67MOL    H3427886   6.472   6.693   3.414 -0.1352 -0.2673 -2.2671
   67MOL    H3527887   6.523   6.566   3.596  0.7325 -1.3207 -0.8660
   67MOL    H3627888   6.351   6.579   3.662 -1.6120 -2.1615 -0.3452
   67MOL    H3727889   6.445   6.427   3.658  0.4753 -0.6332  0.8569
   67MOL    H3827890   6.205   6.409   3.378  1.7515 -1.0670 -1.1875
   67MOL    H3927891   6.265   6.350   3.544  1.6547 -0.8869 -0.9287
   67MOL    H4027892   6.172   6.494   3.526 -0.6873 -3.0824  0.6399
   67MOL    H4127893   6.498   6.314   3.442  1.6602  0.7836  0.2388
   67MOL    H4227894   6.570   6.462   3.413 -0.6380  1.9171 -0.4747
   67MOL    H4327895   6.480   6.412   3.281  2.8637  0.2200 -0.1543
   67MOL    C4427896   6.470   6.713   3.170 -0.6683 -0.1017 -0.5786
   67MOL    C4527897   6.467   6.717   3.012 -0.3207 -0.1134 -0.2179
   67MOL    C4627898   6.533   6.589   2.950 -0.2826 -0.4966 -0.0315
   67MOL    C4727899   6.488   6.532   2.807 -0.9512  0.4604 -0.9705
   67MOL    C4827900   6.524   6.616   2.683 -0.3463 -0.0708  0.1665
   67MOL    C4927901   6.336   6.483   2.811 -0.7241 -0.4241  0.3288
   67MOL    C5027902   6.567   6.403   2.789  0.0147  0.3485 -0.1012
   67MOL    H5127903   6.488   6.812   3.210 -1.2641  0.4590 -1.6664
   67MOL    H5227904   6.554   6.653   3.205  0.8580  2.1949 -0.2516
   67MOL    H5327905   6.363   6.705   2.982 -0.1204  0.5029 -1.1799
   67MOL    H5427906   6.521   6.506   3.020  2.6473  0.0146  1.1450
   67MOL    H5527907   6.641   6.608   2.949 -0.2182 -0.8792 -0.5808
   67MOL    H5627908   6.515   6.550   2.597 -1.1424  1.0323 -0.6095
   67MOL    H5727909   6.625   6.655   2.688 -0.7215  1.2854 -2.1154
   67MOL    H5827910   6.462   6.705   2.671  0.4865  0.4663 -0.1103
   67MOL    H5927911   6.329   6.405   2.735 -0.0132  1.0258 -1.2785
   67MOL    H6027912   6.313   6.426   2.900  0.0380 -0.8469  0.2599
   67MOL    H6127913   6.252   6.553   2.804 -0.0977  0.0107 -4.1087
   67MOL    H6227914   6.562   6.358   2.690  1.2891 -1.7045  0.7303
   67MOL    H6327915   6.673   6.402   2.815 -0.2620  1.0033  1.1021
   67MOL    H6427916   6.511   6.339   2.857 -1.1306  0.2307 -1.1326
   67MOL    C6527917   6.531   6.852   2.963  0.0962  0.0776 -0.0552
   67MOL    C6627918   6.428   6.965   2.958 -1.0392 -0.4964 -0.1340
   67MOL    C6727919   6.346   6.939   2.830  0.6822  0.7409 -0.0116
   67MOL    C6827920   6.203   7.004   2.814 -0.1799  0.5526  0.1400
   67MOL    C6927921   6.142   6.960   2.681 -0.4231 -0.4213  0.6134
   67MOL    C7027922   6.114   6.948   2.926 -0.6525 -0.0712 -0.0264
   67MOL    C7127923   6.204   7.152   2.810 -0.8071  0.5868 -0.1942
   67MOL    H7227924   6.615   6.872   3.031 -1.9030  1.7212  2.0078
   67MOL    H7327925   6.583   6.849   2.867  1.0040  1.9899  0.3687
   67MOL    H7427926   6.369   6.945   3.048  0.8865 -0.7924  1.0825
   67MOL    H7527927   6.349   6.833   2.808  0.7867  0.5772  0.7880
   67MOL    H7627928   6.411   6.974   2.749 -1.9837  0.3489 -2.3981
   67MOL    H7727929   6.041   6.996   2.664  0.5413  1.7770 -0.6808
   67MOL    H7827930   6.203   7.001   2.601 -1.4504  1.1238  0.6062
   67MOL    H7927931   6.137   6.853   2.663 -0.4161 -0.0051 -2.1090
   67MOL    H8027932   6.125   6.983   3.028 -0.1293  1.9934 -0.7592
   67MOL    H8127933   6.115   6.839   2.928 -0.1272 -0.1093 -1.2911
   67MOL    H8227934   6.012   6.978   2.902 -0.0037 -0.2788 -3.3950
   67MOL    H8327935   6.249   7.188   2.902 -1.4271 -1.1803  0.8172
   67MOL    H8427936   6.115   7.208   2.781 -1.3897 -0.8055 -1.1487
   67MOL    H8527937   6.279   7.188   2.739 -1.1456  1.7858  0.0330
   67MOL    C8627938   6.512   7.097   2.957  0.6064  0.4751  0.6122
   67MOL    C8727939   6.554   7.148   3.092 -0.0762  0.2189 -0.2433
   67MOL    C8827940   6.429   7.204   3.162 -0.5943 -1.3145  0.1196
   67MOL    C8927941   6.413   7.199   3.318 -0.3928  0.1642 -0.3810
   67MOL    C9027942   6.414   7.051   3.370 -0.0399 -0.6759  0.4315
   67MOL    C9127943   6.286   7.273   3.373 -0.5759  0.0167  0.1766
   67MOL    C9227944   6.534   7.270   3.385  1.5633 -0.3150  0.3405
   67MOL    H9327945   6.453   7.174   2.907 -2.1806 -1.9691 -0.0840
   67MOL    H9427946   6.604   7.078   2.901 -0.7212 -1.7617 -0.9207
   67MOL    H9527947   6.581   7.070   3.164 -1.7463 -0.7355 -0.6016
   67MOL    H9627948   6.348   7.144   3.120 -1.0019  0.5884 -1.9425
   67MOL    H9727949   6.421   7.309   3.133  2.8936 -0.8966  0.5131
   67MOL    H9827950   6.431   7.065   3.477  1.2577  1.8935 -0.0681
   67MOL    H9927951   6.499   6.997   3.329 -0.1294  0.2209 -0.9550
   67MOL   H10027952   6.321   6.999   3.347 -1.8337  2.6104 -0.1906
   67MOL   H10127953   6.296   7.268   3.481 -0.5689  1.0902  0.2371
   67MOL   H10227954   6.273   7.378   3.343  3.0736 -0.2317 -2.7936
   67MOL   H10327955   6.192   7.227   3.343  0.2157 -1.0699 -0.6598
   67MOL   H10427956   6.621   7.211   3.356  1.1389  0.0413 -1.7274
   67MOL   H10527957   6.526   7.374   3.354  0.4799 -0.6165 -0.4065
   67MOL   H10627958   6.522   7.262   3.493 -1.3314 -0.9610  0.0105
   67MOL   C10727959   6.654   7.261   3.083 -0.2611 -0.5424  0.4333
   67MOL   C10827960   6.793   7.238   3.027 -0.1034 -0.0736  0.1257
   67MOL   C10927961   6.868   7.373   2.997  0.2563  0.0037  0.1961
   67MOL   C11027962   6.873   7.432   2.857  0.3222 -1.3601  0.0964
   67MOL   C11127963   6.727   7.457   2.802 -0.7176 -0.0563  0.0238
   67MOL   C11227964   6.945   7.348   2.744 -0.4592  0.0787  0.4591
   67MOL   C11327965   6.947   7.569   2.860 -0.2701 -0.2227  0.2922
   67MOL   H11427966   6.677   7.316   3.174  2.7899  1.5531 -1.5119
   67MOL   H11527967   6.619   7.336   3.013 -1.9346  0.2010  2.0276
   67MOL   H11627968   6.773   7.185   2.933  0.5613  0.0284 -0.0790
   67MOL   H11727969   6.839   7.452   3.065  1.3987  0.3946  0.2256
   67MOL   H11827970   6.974   7.357   3.017  0.1833  1.5572  1.9165
   67MOL   H11927971   6.681   7.523   2.875  0.7532  2.8611 -1.6291
   67MOL   H12027972   6.728   7.504   2.704  0.4962  2.2205  1.1165
   67MOL   H12127973   6.672   7.362   2.798  0.1672 -0.6670  1.9578
   67MOL   H12227974   7.051   7.330   2.757 -0.7355 -0.8532  1.5722
   67MOL   H12327975   6.951   7.399   2.648  0.7178 -0.5590  0.1906
   67MOL   H12427976   6.902   7.255   2.706  0.4988  0.8330 -2.6237
   67MOL   H12527977   7.050   7.554   2.893  0.0838  1.2632 -0.1012
   67MOL   H12627978   6.886   7.635   2.921 -1.0416 -0.2967 -0.4127
   67MOL   H12727979   6.948   7.600   2.756  0.1304 -0.2141  0.2975
   67MOL   C12827980   6.879   7.156   3.125  0.2160 -0.4707 -0.1872
   67MOL   C12927981   7.005   7.088   3.061 -0.5715  0.3141  0.6493
   67MOL   C13027982   7.129   7.054   3.151  0.3234 -0.1756 -0.0919
   67MOL   C13127983   7.235   7.170   3.185  0.3248  0.2791 -0.2953
   67MOL   C13227984   7.298   7.219   3.054  0.0648  0.2860 -0.3905
   67MOL   C13327985   7.356   7.109   3.272  0.5378  0.2327 -0.1630
   67MOL   C13427986   7.168   7.281   3.257  0.2944  0.4507  0.1944
   67MOL   H13527987   6.815   7.076   3.163 -1.8165  0.9614 -0.5286
   67MOL   H13627988   6.898   7.204   3.221  0.4774 -3.9408  1.5717
   67MOL   H13727989   7.052   7.148   2.983 -1.9517  0.3552 -0.1678
   67MOL   H13827990   7.075   7.008   3.234 -2.9338 -0.0833 -2.0718
   67MOL   H13927991   7.176   6.970   3.099  1.0461  0.7753 -0.9978
   67MOL   H14027992   7.219   7.264   2.995 -0.3719 -0.8072 -0.6398
   67MOL   H14127993   7.354   7.138   3.007  1.8197  0.5156  1.2162
   67MOL   H14227994   7.378   7.290   3.074  3.4339 -2.5405 -3.1033
   67MOL   H14327995   7.311   7.073   3.365 -0.5976 -0.6068 -1.0145
   67MOL   H14427996   7.426   7.189   3.293  1.8352 -1.0563  0.4958
   67MOL   H14527997   7.399   7.028   3.214 -0.0707  0.6091 -1.1478
   67MOL   H14627998   7.113   7.349   3.192  2.0754  0.2811 -1.5185
   67MOL   H14727999   7.094   7.236   3.324 -0.4280  0.6655 -0.4572
   67MOL   H14828000   7.239   7.345   3.309  1.1148  0.3571 -0.8043
   67MOL   C14928001   6.961   6.950   2.972  0.3516 -0.0332  0.1767
   67MOL   C15028002   7.049   6.903   2.859 -0.0599 -0.0840  0.7938
   67MOL   C15128003   7.012   6.758   2.817 -0.3479 -0.0500 -0.0561
   67MOL   C15228004   7.101   6.636   2.865  0.0787 -0.2398  0.6171
   67MOL   C15328005   7.099   6.617   3.016  0.7847 -0.4302 -0.4258
   67MOL   C15428006   7.244   6.637   2.813  0.1584  0.5680  0.3515
   67MOL   C15528007   7.037   6.513   2.800  0.2919  0.0204 -0.7014
   67MOL   H15628008   6.864   6.970   2.927  1.6274  3.2787 -1.2396
   67MOL   H15728009   6.961   6.860   3.034  1.7457  0.8451  1.5051
   67MOL   H15828010   7.149   6.907   2.903  0.5167  2.3907 -0.6292
   67MOL   H15928011   7.021   6.757   2.708  1.3992 -0.1559  0.0719
   67MOL   H16028012   6.908   6.734   2.836  0.0882 -0.4592  1.9588
   67MOL   H16128013   7.109   6.707   3.076 -1.7891 -0.6446  0.3891
   67MOL   H16228014   7.004   6.582   3.058  1.3769 -2.0645 -0.4343
   67MOL   H16328015   7.162   6.533   3.043  2.1206  0.1505 -1.6500
   67MOL   H16428016   7.303   6.707   2.872  1.4193  1.0819 -1.4653
   67MOL   H16528017   7.254   6.669   2.710 -0.4794 -0.5269 -0.0624
   67MOL   H16628018   7.285   6.536   2.806  0.0551  0.5405  0.1500
   67MOL   H16728019   7.049   6.522   2.692 -3.0315  3.8822 -0.8498
   67MOL   H16828020   7.092   6.425   2.835 -0.1767  0.3207  0.8594
   67MOL   H16928021   6.933   6.488   2.820  0.3290 -0.7637 -1.4727
   67MOL   C17028022   7.043   6.999   2.732 -0.0780  0.7722  0.2480
   67MOL   C17128023   7.163   7.010   2.631  0.5919  0.4629  0.2915
   67MOL   C17228024   7.297   7.064   2.689  0.3454 -0.4041  0.0793
   67MOL   C17328025   7.435   7.026   2.627  0.4562  0.9953  0.4306
   67MOL   C17428026   7.455   6.877   2.618  0.6772 -0.2146 -0.2194
   67MOL   C17528027   7.544   7.071   2.722 -0.0950 -0.3182 -0.3641
   67MOL   C17628028   7.463   7.085   2.489  0.7740 -0.1878 -0.3576
   67MOL   H17728029   7.018   7.097   2.772  0.2281  0.6458  0.7507
   67MOL   H17828030   6.950   6.967   2.686  0.4792 -0.1213 -0.2938
   67MOL   H17928031   7.174   6.906   2.599 -0.5301  0.9891 -1.8958
   67MOL   H18028032   7.292   7.172   2.702 -0.9700 -0.2337 -1.6025
   67MOL   H18128033   7.302   7.032   2.792  0.2175 -0.5594  0.0378
   67MOL   H18228034   7.377   6.836   2.554  0.0423 -0.0540  0.4405
   67MOL   H18328035   7.545   6.850   2.563 -0.7840 -2.6068 -1.5200
   67MOL   H18428036   7.464   6.823   2.713  1.7569 -1.0077 -0.7557
   67MOL   H18528037   7.552   7.180   2.719  2.2241 -0.4035  1.1165
   67MOL   H18628038   7.522   7.039   2.824  2.3756 -2.1091 -0.3523
   67MOL   H18728039   7.640   7.028   2.694  0.2626 -0.5733  1.1832
   67MOL   H18828040   7.399   7.036   2.416  1.1373  0.5029 -1.1545
   67MOL   H18928041   7.424   7.187   2.488  0.3742 -0.3440 -0.6909
   67MOL   H19028042   7.568   7.078   2.461  0.7247 -1.2576 -0.2677
   67MOL   C19128043   7.122   7.086   2.497 -0.9099 -0.9089 -0.1320
   67MOL   C19228044   7.028   6.999   2.401 -1.0640 -0.5121 -0.4099
   67MOL   C19328045   7.116   6.891   2.326  0.1320  0.3976  0.3941
   67MOL   C19428046   7.056   6.750   2.309  0.1598  0.1457  0.4837
   67MOL   C19528047   7.158   6.655   2.242 -0.0978  0.1610  0.0915
   67MOL   C19628048   6.940   6.770   2.207 -0.0098  0.0097  0.0285
   67MOL   C19728049   6.999   6.684   2.435  0.3512  0.0216 -0.3059
   67MOL   H19828050   7.071   7.178   2.525  0.5166 -0.4949  1.1000
   67MOL   H19928051   7.201   7.118   2.429  0.2318 -1.2841  1.0217
   67MOL   H20028052   6.944   6.948   2.449 -0.2947 -0.3655  1.1146
   67MOL   H20128053   7.210   6.889   2.380 -1.8211  0.9019  3.9505
   67MOL   H20228054   7.142   6.922   2.225 -3.1936 -2.0572 -1.3400
   67MOL   H20328055   7.103   6.566   2.214 -0.1965  0.5785 -1.0592
   67MOL   H20428056   7.216   6.701   2.162 -1.0360 -0.1267 -0.7529
   67MOL   H20528057   7.231   6.626   2.318 -0.4460  0.1666  0.4328
   67MOL   H20628058   6.978   6.814   2.115  0.7539  0.7111  0.6650
   67MOL   H20728059   6.897   6.673   2.182  2.6688 -1.5376  1.1889
   67MOL   H20828060   6.859   6.833   2.246  0.7785  0.2680  1.2837
   67MOL   H20928061   6.934   6.745   2.498 -0.8130  0.9136 -2.3268
   67MOL   H21028062   6.948   6.589   2.422  0.6383 -0.7130  3.3808
   67MOL   H21128063   7.083   6.657   2.499 -0.1237 -1.2331 -0.1936
   67MOL   C21228064   6.952   7.095   2.304  0.1695  0.9472  0.1661
   67MOL   C21328065   6.831   7.173   2.355 -0.0191  0.2389 -0.6476
   67MOL   C21428066   6.707   7.077   2.374 -0.2164  0.1913 -0.0325
   67MOL   C21528067   6.608   7.113   2.485  0.0536  0.6738  0.0780
   67MOL   C21628068   6.586   7.262   2.494 -0.1991  0.5404 -0.6951
   67MOL   C21728069   6.479   7.050   2.445 -0.2848  0.1203 -0.4278
   67MOL   C21828070   6.659   7.066   2.622 -0.3246  0.0259 -0.7956
   67MOL   H21928071   7.023   7.170   2.269  1.0115 -0.9505 -2.2684
   67MOL   H22028072   6.922   7.054   2.208 -2.0280  1.6760  0.5095
   67MOL   H22128073   6.861   7.225   2.445 -0.0311 -0.7842 -0.0392
   67MOL   H22228074   6.748   6.976   2.384  0.3996  0.7411  3.7297
   67MOL   H22328075   6.656   7.071   2.278 -0.6160 -2.6603  0.3057
   67MOL   H22428076   6.557   7.311   2.402 -0.7127  1.6454  0.0503
   67MOL   H22528077   6.679   7.301   2.537  1.3499  0.2142 -3.6197
   67MOL   H22628078   6.508   7.283   2.567 -2.2711 -1.5119 -2.2269
   67MOL   H22728079   6.413   7.060   2.531 -1.5038 -0.4839 -1.2717
   67MOL   H22828080   6.438   7.092   2.353  1.4363 -0.3875 -1.4498
   67MOL   H22928081   6.495   6.943   2.434  2.0244  0.4560 -0.4707
   67MOL   H23028082   6.588   7.093   2.701  1.2088  2.1042 -0.0772
   67MOL   H23128083   6.749   7.120   2.649 -0.5281 -0.4642  0.9214
   67MOL   H23228084   6.664   6.959   2.640  1.2457  0.3908  1.0738
   67MOL   C23328085   6.789   7.280   2.242  1.1132 -0.7350  0.1918
   67MOL   C23428086   6.881   7.406   2.219  0.1709 -0.1766  0.1255
   67MOL   C23528087   6.845   7.478   2.076  0.3553 -0.4295 -0.2466
   67MOL   C23628088   6.911   7.431   1.941 -0.3521 -0.3298  0.0533
   67MOL   C23728089   6.858   7.289   1.904 -0.2212 -0.2271 -0.4645
   67MOL   C23828090   6.871   7.522   1.826  0.4862  0.0816 -0.2221
   67MOL   C23928091   7.064   7.427   1.958 -0.5086  0.8059  0.3152
   67MOL   H24028092   6.691   7.327   2.247  0.9717 -0.9704 -0.4298
   67MOL   H24128093   6.774   7.222   2.152 -0.6358 -0.2204  0.1465
   67MOL   H24228094   6.981   7.361   2.214  1.2776  2.3295 -1.5119
   67MOL   H24328095   6.739   7.484   2.050  0.2029  2.1210  0.8405
   67MOL   H24428096   6.871   7.582   2.093  1.0199 -0.3831 -1.4580
   67MOL   H24528097   6.894   7.213   1.973  0.8151  1.1715  0.5770
   67MOL   H24628098   6.888   7.260   1.803  2.3155  1.7575 -0.3229
   67MOL   H24728099   6.750   7.288   1.915 -0.4736  2.9028 -2.0235
   67MOL   H24828100   6.762   7.523   1.824  0.4776  0.4772  0.4308
   67MOL   H24928101   6.894   7.628   1.840 -2.4722  0.7757 -0.2976
   67MOL   H25028102   6.920   7.484   1.737 -1.9322 -0.8372 -1.2023
   67MOL   H25128103   7.090   7.329   1.997 -3.5598 -0.2499 -0.1715
   67MOL   H25228104   7.121   7.445   1.866 -0.6507  1.2325  0.3104
   67MOL   H25328105   7.096   7.496   2.036  0.3477  0.7489  0.0214
   67MOL   C25428106   6.869   7.509   2.343  0.3504  0.7971 -0.4890
   67MOL   C25528107   6.998   7.594   2.363  0.5983  0.5164 -0.3427
   67MOL   C25628108   7.112   7.523   2.441  0.4387 -0.4732 -0.5435
   67MOL   C25728109   7.263   7.549   2.405 -0.3960 -0.2053  0.4348
   67MOL   C25828110   7.340   7.480   2.518 -0.3164  0.5521 -0.2179
   67MOL   C25928111   7.302   7.696   2.405 -0.0992  0.3675 -0.3739
   67MOL   C26028112   7.300   7.493   2.268 -0.3084  0.3417  0.7325
   67MOL   H26128113   6.863   7.461   2.441  0.4338 -0.2050 -0.9609
   67MOL   H26228114   6.782   7.571   2.323 -0.5844  0.1024  1.3192
   67MOL   H26328115   7.035   7.624   2.265 -0.0642  2.5670  0.0004
   67MOL   H26428116   7.085   7.528   2.546  2.3293  1.6702 -0.1171
   67MOL   H26528117   7.097   7.416   2.424  1.7404 -0.7694  0.0681
   67MOL   H26628118   7.320   7.376   2.542  1.0924  0.2609 -0.2546
   67MOL   H26728119   7.317   7.540   2.607 -1.7943 -0.2060 -0.0693
   67MOL   H26828120   7.448   7.479   2.507 -0.3961  2.9820 -1.6542
   67MOL   H26928121   7.268   7.749   2.494 -1.5511  1.9353 -1.8153
   67MOL   H27028122   7.270   7.759   2.321 -1.1729  0.0251 -0.2244
   67MOL   H27128123   7.410   7.702   2.423 -0.0541 -0.7708 -0.2520
   67MOL   H27228124   7.296   7.565   2.187 -0.1357  0.2568  0.6494
   67MOL   H27328125   7.403   7.458   2.270 -0.7839 -1.1107  0.0711
   67MOL   H27428126   7.246   7.405   2.234 -0.1551  0.8485 -0.8605
   67MOL   C27528127   6.956   7.720   2.442  0.1559  0.2373 -0.5581
   67MOL   C27628128   6.886   0.070   2.364 -0.1556  0.5482  0.1734
   67MOL   C27728129   6.839   0.171   2.474  0.1487 -0.6426 -0.3126
   67MOL   C27828130   6.697   0.153   2.541 -0.8684  0.1036 -0.3037
   67MOL   C27928131   6.693   0.031   2.633 -0.7048 -0.5888  0.7286
   67MOL   C28028132   6.672   0.276   2.628  0.2232 -0.6528  0.0608
   67MOL   C28128133   6.585   0.143   2.434  0.1957 -0.2953 -0.2157
   67MOL   H28228134   6.904   7.682   2.530  2.1873 -0.6431  0.2817
   67MOL   H28328135   7.052   7.758   2.476 -0.1378 -0.1381  0.7339
   67MOL   H28428136   6.803   0.029   2.308  0.2325 -2.3405  1.6249
   67MOL   H28528137   6.840   0.265   2.418  1.5357 -0.5972 -0.2278
   67MOL   H28628138   6.923   0.183   2.542 -0.9837  1.8744  0.7026
   67MOL   H28728139   6.615   0.039   2.710 -0.4630 -1.0124  1.0197
   67MOL   H28828140   6.687   7.705   2.575  2.6630 -0.9001  0.8165
   67MOL   H28928141   6.784   0.030   2.693  1.2267 -0.7632 -2.1414
   67MOL   H29028142   6.580   0.267   2.686  1.2775  1.8370  2.2377
   67MOL   H29128143   6.653   0.369   2.574 -1.3140 -2.5975 -2.8805
   67MOL   H29228144   6.742   0.277   2.711  1.8856 -2.5196 -1.2779
   67MOL   H29328145   6.483   0.148   2.472 -0.1842 -0.2194 -1.2186
   67MOL   H29428146   6.601   0.058   2.368 -0.0219 -0.1175 -0.4987
   67MOL   H29528147   6.585   0.235   2.375  2.0856  0.8252  1.4662
   67MOL   C29628148   6.980   0.143   2.272  0.7189  0.2523  0.4347
   67MOL   C29728149   6.928   0.231   2.158 -0.4523  0.7050 -0.0836
   67MOL   C29828150   6.884   0.134   2.051 -0.5966 -0.2883  0.2912
   67MOL   C29928151   6.786   0.192   1.945  0.8275  0.0078  0.0741
   67MOL   C30028152   6.691   0.080   1.907 -0.4628  0.3317 -0.0768
   67MOL   C30128153   6.699   0.310   1.994  0.1628  0.5556  0.4452
   67MOL   C30228154   6.848   0.237   1.816  0.1024  0.4527 -0.4569
   67MOL   H30328155   7.041   0.062   2.232  2.4829  1.8427 -0.1716
   67MOL   H30428156   7.056   0.200   2.326  0.1216  1.2203  0.2520
   67MOL   H30528157   6.838   0.278   2.199 -1.2284 -0.0512 -0.8841
   67MOL   H30628158   6.823   0.059   2.102  1.4352 -2.1358  0.0624
   67MOL   H30728159   6.959   0.074   2.000 -0.5611  0.4558 -0.5534
   67MOL   H30828160   6.637   0.030   1.987 -0.3926  0.9289  0.3481
   67MOL   H30928161   6.612   0.109   1.838 -2.1261 -1.8936  0.8598
   67MOL   H31028162   6.746   7.766   1.857  1.4547  0.8480  1.1485
   67MOL   H31128163   6.630   0.344   1.917  0.7359  2.0204  0.5713
   67MOL   H31228164   6.638   0.286   2.081  0.8143 -1.4463  0.3963
   67MOL   H31328165   6.757   0.402   2.004  0.9982  0.0533  0.2868
   67MOL   H31428166   6.913   0.324   1.827  0.4040  0.0953  0.6526
   67MOL   H31528167   6.902   0.154   1.772  0.9962  0.6230  0.3177
   67MOL   H31628168   6.772   0.267   1.743 -0.1997 -0.8998 -0.7149
   67MOL   C31728169   7.031   0.341   2.113  0.0893 -0.0317 -0.1797
   67MOL   C31828170   7.171   0.293   2.072 -0.1800  1.1953  0.3311
   67MOL   C31928171   7.193   0.235   1.927 -0.1388  0.4224 -0.1642
   67MOL   C32028172   7.293   0.114   1.907  0.1904 -0.0572 -0.4357
   67MOL   C32128173   7.299   0.085   1.753 -0.0892 -0.0020 -0.2029
   67MOL   C32228174   7.244   7.754   1.981  0.5090  0.5621  0.3367
   67MOL   C32328175   7.432   0.146   1.965  0.0745  0.4233  0.4398
   67MOL   H32428176   6.976   0.402   2.041 -0.1856  2.3420  1.9686
   67MOL   H32528177   7.024   0.400   2.204  0.2528  1.5448 -1.1644
   67MOL   H32628178   7.182   0.209   2.141  1.5278  1.2963  0.2137
   67MOL   H32728179   7.220   0.311   1.854  1.1191 -0.0771 -0.2225
   67MOL   H32828180   7.100   0.192   1.889  0.5252  1.7024 -3.3698
   67MOL   H32928181   7.371   0.004   1.739  0.8447  0.0758  3.5721
   67MOL   H33028182   7.326   0.169   1.689  2.4909 -0.2545  0.4813
   67MOL   H33128183   7.205   0.048   1.712  1.6564 -1.7713 -2.8035
   67MOL   H33228184   7.153   7.717   1.933  0.5055 -0.0854  0.8438
   67MOL   H33328185   7.319   7.675   1.984  2.3446  2.2587  0.1155
   67MOL   H33428186   7.223   0.005   2.086  1.1154  0.2265  0.5157
   67MOL   H33528187   7.494   0.058   1.947 -2.9047 -1.4133 -1.4468
   67MOL   H33628188   7.425   0.171   2.071 -2.3636 -0.0611  0.4235
   67MOL   H33728189   7.476   0.224   1.904 -2.0421  0.4049 -1.1996
   67MOL   C33828190   7.267   0.408   2.100 -0.1344  0.8719 -0.0847
   67MOL   C33928191   7.289   0.452   2.246  0.4060 -0.5627 -0.2810
   67MOL   C34028192   7.334   0.607   2.235 -0.6742  0.1253 -0.3028
   67MOL   C34128193   7.231   0.725   2.232 -0.6489 -0.3543  0.2415
   67MOL   C34228194   7.175   0.759   2.374 -0.5780  0.0335 -0.5111
   67MOL   C34328195   7.326   0.846   2.191  0.2142  0.0933  0.7330
   67MOL   C34428196   7.111   0.709   2.138 -0.0364  0.2553 -0.4248
   67MOL   H34528197   7.231   0.490   2.037  0.9489  1.1628 -0.3292
   67MOL   H34628198   7.365   0.390   2.057  0.2098 -0.8805  1.4130
   67MOL   H34728199   7.201   0.441   2.308  0.5796  2.7914  0.6572
   67MOL   H34828200   7.405   0.626   2.155  1.2832 -0.4617  1.2270
   67MOL   H34928201   7.396   0.632   2.322 -0.4753 -4.5843  1.0368
   67MOL   H35028202   7.255   0.777   2.445 -2.0487  3.5403  0.3474
   67MOL   H35128203   7.112   0.848   2.378 -0.6806 -0.0750  0.4663
   67MOL   H35228204   7.118   0.674   2.414 -1.0768 -0.2733 -1.8435
   67MOL   H35328205   7.286   0.948   2.197 -0.1870  0.1502 -2.1899
   67MOL   H35428206   7.421   0.844   2.246  0.7616 -1.4287 -0.2645
   67MOL   H35528207   7.349   0.825   2.087 -0.9872 -0.0520  0.4913
   67MOL   H35628208   7.044   0.794   2.148  2.0196  2.1366 -2.1263
   67MOL   H35728209   7.147   0.693   2.036  1.0143 -3.2345  0.4415
   67MOL   H35828210   7.046   0.624   2.155  0.3267  0.1745  0.5431
   67MOL   C35928211   7.408   0.373   2.305  0.7113 -0.8428  0.4888
   67MOL   C36028212   7.422   0.389   2.461  0.2249 -0.3655  0.4241
   67MOL   C36128213   7.567   0.366   2.510  0.0891  0.0594  0.5998
   67MOL   C36228214   7.670   0.485   2.518 -0.1936  0.9002 -0.5292
   67MOL   C36328215   7.699   0.557   2.380  0.5528  0.2559 -0.2347
   67MOL   C36428216   0.032   0.420   2.567 -0.8518 -1.2474 -0.3221
   67MOL   C36528217   7.625   0.587   2.620 -0.3395 -0.3853 -0.3952
   67MOL   H36628218   7.491   0.413   2.247 -0.5309  0.7516 -0.2360
   67MOL   H36728219   7.413   0.269   2.271  0.5920 -0.9104  0.6765
   67MOL   H36828220   7.409   0.491   2.494  1.5574  0.0142 -0.1916
   67MOL   H36928221   7.565   0.327   2.612  0.7150 -0.9396  0.2369
   67MOL   H37028222   7.614   0.291   2.447  0.6840  0.3316  0.7112
   67MOL   H37128223   7.727   0.493   2.297  1.2286 -0.4543  0.5308
   67MOL   H37228224   7.613   0.617   2.350  1.5590  0.6129 -2.4647
   67MOL   H37328225   0.018   0.623   2.398 -1.0461  2.1384  0.7225
   67MOL   H37428226   0.053   0.327   2.514 -1.4090 -1.6607  0.1774
   67MOL   H37528227   0.035   0.395   2.673 -0.4006 -1.1516 -0.3125
   67MOL   H37628228   0.127   0.474   2.571 -1.1584 -0.7220 -0.1818
   67MOL   H37728229   7.569   0.559   2.709  0.6819 -1.5216 -0.0942
   67MOL   H37828230   7.554   0.649   2.567  0.6108  0.0872 -1.1272
   67MOL   H37928231   7.698   0.662   2.651 -3.4678  2.0474  1.4264
   67MOL   C38028232   7.320   0.294   2.533 -0.2869 -0.0527  0.7105
   67MOL   C38128233   7.264   0.341   2.672 -0.1864 -0.4055 -0.0460
   67MOL   C38228234   7.214   0.214   2.755  0.1099 -0.0101  0.0343
   67MOL   C38328235   7.307   0.124   2.839 -0.2803  0.1771  0.6294
   67MOL   C38428236   7.346   0.193   2.968 -0.2094  0.6869  0.1305
   67MOL   C38528237   7.433   0.073   2.764  0.1964 -0.5155 -0.4091
   67MOL   C38628238   7.225   7.761   2.872 -0.5952 -0.4414 -0.4749
   67MOL   H38728239   7.365   0.195   2.536 -0.0126  0.0122 -0.6024
   67MOL   H38828240   7.238   0.267   2.467 -2.4292  2.6988  2.1571
   67MOL   H38928241   7.340   0.396   2.727  0.5872  0.7179 -2.1664
   67MOL   H39028242   7.139   0.251   2.825 -0.3320  0.1487 -0.5213
   67MOL   H39128243   7.166   0.151   2.679  0.2307 -0.0308 -0.0247
   67MOL   H39228244   7.253   0.202   3.024  0.3842 -1.8490  1.6230
   67MOL   H39328245   7.394   0.110   3.021 -1.1670 -0.3941 -0.6888
   67MOL   H39428246   7.396   0.290   2.966  0.1297  0.6045  2.7048
   67MOL   H39528247   7.494   0.008   2.827 -1.0499 -1.6659 -0.3548
   67MOL   H39628248   7.496   0.155   2.731 -0.1010 -0.3387 -0.5335
   67MOL   H39728249   7.419   0.029   2.665  4.9442 -0.5948 -1.1435
   67MOL   H39828250   7.196   7.707   2.782 -0.9668 -0.0020 -0.6195
   67MOL   H39928251   7.135   0.004   2.933 -0.0932  0.9680  0.0737
   67MOL   H40028252   7.287   7.692   2.930  0.6914  2.9757  2.3841
   67MOL   C40128253   7.152   0.438   2.658 -1.1192  0.1768  0.4953
   67MOL   C40228254   7.096   0.513   2.779  0.5963 -0.0260 -0.7402
   67MOL   C40328255   7.198   0.586   2.867  0.3969 -0.2286 -0.5301
   67MOL   C40428256   7.145   0.736   2.898  0.3630 -0.6383  0.2836
   67MOL   C40528257   7.154   0.816   2.766 -0.1095 -0.3003 -0.1771
   67MOL   C40628258   7.247   0.799   2.997 -0.1938 -0.4258 -0.4231
   67MOL   C40728259   7.011   0.752   2.976  0.5548 -0.1532  0.3472
   67MOL   H40828260   7.174   0.519   2.589  1.2283 -0.6803  0.1955
   67MOL   H40928261   7.061   0.395   2.616 -0.5380 -0.1304 -0.4341
   67MOL   H41028262   7.022   0.580   2.736  2.2764  1.9584 -0.6233
   67MOL   H41128263   7.289   0.589   2.807  0.2235  0.0505 -0.7777
   67MOL   H41228264   7.225   0.530   2.957 -0.1235  3.6156  2.1352
   67MOL   H41328265   7.133   0.922   2.782  0.0642  0.2835 -3.4976
   67MOL   H41428266   7.084   0.780   2.691 -0.6897 -0.9513  0.6731
   67MOL   H41528267   7.252   0.802   2.721 -0.5248  0.0942 -1.2155
   67MOL   H41628268   7.233   0.753   3.095 -0.8759  1.5612  0.4406
   67MOL   H41728269   7.209   0.900   3.008 -1.3122 -0.7675 -1.0973
   67MOL   H41828270   7.354   0.806   2.975 -0.5127  0.2942 -1.7833
   67MOL   H41928271   6.993   0.857   2.997 -0.6354 -0.5213  1.2416
   67MOL   H42028272   6.922   0.711   2.928  0.6798 -1.0699  0.9024
   67MOL   H42128273   7.004   0.715   3.078  1.0286  1.1352  0.8602
   67MOL   H42228274   7.028   0.452   2.839 -0.5616  0.5985 -1.4104
   68MOL     C128275   0.904   5.911   4.891 -0.3378  0.8239 -0.2765
   68MOL     C228276   0.997   5.913   4.768 -0.1191 -0.4411 -0.7517
   68MOL     C328277   1.078   6.052   4.766 -0.0467 -0.5116  0.2640
   68MOL     C428278   1.226   6.035   4.802 -0.3014  0.2592  0.8707
   68MOL     C528279   1.290   6.175   4.801 -0.7153  0.0520  0.0035
   68MOL     C628280   1.253   5.978   4.949 -0.0145 -0.0973  0.2854
   68MOL     C728281   1.299   5.951   4.691 -0.3988 -1.1288  0.2035
   68MOL     H828282   0.859   5.812   4.906 -0.4465  1.1338  1.5797
   68MOL     H928283   0.947   5.943   4.986 -0.7783 -1.0622  0.6052
   68MOL    H1028284   1.068   5.832   4.783 -0.1352 -0.2213  0.5889
   68MOL    H1128285   1.035   6.135   4.823  1.6310  2.5080 -2.6878
   68MOL    H1228286   1.076   6.095   4.666 -4.0390  0.3184  0.5942
   68MOL    H1328287   1.271   6.215   4.701 -1.3569  1.1838  0.5829
   68MOL    H1428288   1.395   6.178   4.830 -1.0396  2.0641  1.0243
   68MOL    H1528289   1.245   6.245   4.871  1.7354  0.6943  0.9806
   68MOL    H1628290   1.358   5.954   4.968 -0.1120 -1.6636 -1.0342
   68MOL    H1728291   1.205   6.043   5.021  2.4901  1.4624  0.6258
   68MOL    H1828292   1.206   5.881   4.959  0.8806 -0.6027 -0.2666
   68MOL    H1928293   1.407   5.953   4.702 -0.3750  0.8447 -0.2995
   68MOL    H2028294   1.282   5.985   4.589  0.5413  1.2255  0.8152
   68MOL    H2128295   1.271   5.845   4.691  0.6051 -1.4332 -2.5862
   68MOL    H2228296   0.823   5.980   4.868 -1.4617 -0.1950  0.4796
   68MOL    C2328297   0.917   5.912   4.634  1.0661  0.3133  0.7623
   68MOL    C2428298   0.983   5.844   4.516  0.5154 -0.2437  0.1985
   68MOL    C2528299   0.920   5.882   4.378  0.1659 -0.5048  0.2353
   68MOL    C2628300   0.976   6.006   4.295  0.6637 -0.0275  0.2950
   68MOL    C2728301   1.108   5.955   4.222 -0.3868  0.1592  0.7033
   68MOL    C2828302   0.884   6.047   4.179 -0.5126 -0.0393  0.8694
   68MOL    C2928303   1.015   6.120   4.388 -0.0015  0.0188  0.4321
   68MOL    H3028304   0.832   5.848   4.656  0.5515 -0.0618 -2.0862
   68MOL    H3128305   0.874   6.009   4.609 -0.2143 -0.5103 -0.3452
   68MOL    H3228306   1.090   5.865   4.516  0.5806 -0.4859  1.9641
   68MOL    H3328307   0.815   5.897   4.403  0.3779  2.2102 -0.2767
   68MOL    H3428308   0.896   5.800   4.312 -3.9314 -0.2656  1.2465
   68MOL    H3528309   1.163   6.041   4.184 -1.2630 -1.1374 -3.7474
   68MOL    H3628310   1.164   5.912   4.305  0.2133  0.0959  0.2667
   68MOL    H3728311   1.101   5.879   4.144  1.8025 -1.8068  2.3592
   68MOL    H3828312   0.943   6.074   4.091 -1.4079 -0.1980  0.2148
   68MOL    H3928313   0.806   5.975   4.154 -2.5244  2.2685  0.2522
   68MOL    H4028314   0.819   6.131   4.204 -2.4109 -1.3671  0.5680
   68MOL    H4128315   0.928   6.147   4.448  0.1928  0.4444  0.5220
   68MOL    H4228316   1.062   6.205   4.339 -1.9205 -0.5178 -2.4878
   68MOL    H4328317   1.093   6.077   4.450  1.9382 -2.0412 -3.2704
   68MOL    C4428318   0.978   5.691   4.540 -0.2174 -0.2479 -0.3804
   68MOL    C4528319   1.043   5.596   4.431 -0.4006 -0.1546 -0.6617
   68MOL    C4628320   0.980   5.460   4.433  0.7484  0.5055 -0.3052
   68MOL    C4728321   0.859   5.429   4.340 -0.5537  0.1112  0.0191
   68MOL    C4828322   0.739   5.527   4.361  0.1046  0.3587  0.1632
   68MOL    C4928323   0.812   5.289   4.383 -0.0069 -0.2883  0.9280
   68MOL    C5028324   0.912   5.422   4.192  0.1596 -0.5984  0.3153
   68MOL    H5128325   1.023   5.662   4.635 -0.0885 -1.6793 -0.8789
   68MOL    H5228326   0.873   5.664   4.548 -0.7419  1.7608 -0.0954
   68MOL    H5328327   1.027   5.647   4.336 -0.2828  0.3942 -0.3903
   68MOL    H5428328   0.945   5.433   4.533 -2.2815 -0.3402 -1.5593
   68MOL    H5528329   1.056   5.386   4.405  0.5571 -0.5853  1.9024
   68MOL    H5628330   0.701   5.532   4.464  2.3639  0.6504  0.9953
   68MOL    H5728331   0.655   5.494   4.300 -0.4834  0.7610  0.7486
   68MOL    H5828332   0.745   5.631   4.330  0.1956 -0.2279 -1.8204
   68MOL    H5928333   0.755   5.273   4.475 -2.9079 -0.3332 -0.8194
   68MOL    H6028334   0.760   5.240   4.300 -2.2221  1.4881  1.2352
   68MOL    H6128335   0.900   5.230   4.410  2.6037  2.8248 -0.4164
   68MOL    H6228336   0.827   5.405   4.126  0.7972  0.5654 -0.8361
   68MOL    H6328337   0.971   5.506   4.156  2.5306 -0.6357  3.8940
   68MOL    H6428338   0.978   5.335   4.189  0.8374 -0.1046  0.8892
   68MOL    C6528339   1.189   5.590   4.467 -0.8379 -0.4905  0.3002
   68MOL    C6628340   1.288   5.539   4.355  0.4257 -0.0190 -0.5726
   68MOL    C6728341   1.432   5.503   4.405  0.0811  0.3905 -0.3145
   68MOL    C6828342   1.472   5.366   4.470 -0.1956  0.2689 -0.1878
   68MOL    C6928343   1.623   5.364   4.474  0.2689 -0.1985  0.5162
   68MOL    C7028344   1.415   5.339   4.613 -0.4594  0.2506 -0.1761
   68MOL    C7128345   1.428   5.244   4.377  0.6099 -0.5502 -0.4967
   68MOL    H7228346   1.219   5.693   4.488 -3.1484  0.2927 -0.1377
   68MOL    H7328347   1.189   5.532   4.559 -1.5206  1.7810  1.7736
   68MOL    H7428348   1.237   5.447   4.325 -0.7174  0.3362  0.2302
   68MOL    H7528349   1.473   5.588   4.461 -1.6912  2.9106 -2.7156
   68MOL    H7628350   1.486   5.503   4.310 -2.1557  0.8313 -1.6286
   68MOL    H7728351   1.656   5.271   4.521  1.0371 -0.0824  0.2177
   68MOL    H7828352   1.671   5.379   4.377 -2.2486  1.3055 -0.5594
   68MOL    H7928353   1.667   5.438   4.541  0.1968  1.5236 -1.3018
   68MOL    H8028354   1.446   5.418   4.682  1.3044 -1.0118  0.5318
   68MOL    H8128355   1.452   5.251   4.664  0.1595  0.3744 -0.4032
   68MOL    H8228356   1.307   5.329   4.622 -0.4838  0.8313  0.2051
   68MOL    H8328357   1.482   5.243   4.282 -2.7367  0.1487 -2.4694
   68MOL    H8428358   1.330   5.266   4.335  0.0563 -1.4118  0.3247
   68MOL    H8528359   1.434   5.147   4.426  0.9034 -0.0227  0.5378
   68MOL    C8628360   1.295   5.642   4.241 -0.4063 -0.3477 -0.7139
   68MOL    C8728361   1.348   5.602   4.103  0.5180 -0.0306 -0.8375
   68MOL    C8828362   1.372   5.720   4.010  0.2425 -0.1438 -0.9174
   68MOL    C8928363   1.516   5.779   3.995 -0.0200 -0.1638  0.0519
   68MOL    C9028364   1.570   5.836   4.127 -0.2487  0.3454  0.9450
   68MOL    C9128365   1.520   5.903   3.902 -0.0128  0.5145  0.6174
   68MOL    C9228366   1.614   5.673   3.949  0.0129 -0.1019  0.3035
   68MOL    H9328367   1.354   5.724   4.283 -0.4531 -0.5117 -0.3257
   68MOL    H9428368   1.194   5.681   4.225 -0.7613 -0.1631  1.7228
   68MOL    H9528369   1.438   5.541   4.111 -0.2368 -0.9329  1.1092
   68MOL    H9628370   1.299   5.798   4.034  2.0685  1.3140  0.0783
   68MOL    H9728371   1.338   5.695   3.910 -0.8124 -1.1651 -0.3282
   68MOL    H9828372   1.492   5.890   4.180 -1.8215 -0.1321 -0.8114
   68MOL    H9928373   1.647   5.910   4.110  1.6826 -2.4584 -3.3523
   68MOL   H10028374   1.614   5.759   4.191 -0.9187 -0.2814  0.6699
   68MOL   H10128375   1.623   5.913   3.867  0.3732 -3.3802  0.4984
   68MOL   H10228376   1.461   5.892   3.811  2.2974 -1.4813 -0.6937
   68MOL   H10328377   1.475   5.986   3.956 -0.8952 -0.0758  0.7908
   68MOL   H10428378   1.649   5.613   4.033  1.5966 -0.9982 -0.9733
   68MOL   H10528379   1.559   5.613   3.876  1.5903  1.2192 -2.0486
   68MOL   H10628380   1.705   5.707   3.898  0.4476 -0.5946  0.7519
   68MOL   C10728381   1.239   5.513   4.038  0.4378 -0.1740  0.1117
   68MOL   C10828382   1.292   5.424   3.926 -0.4912  0.0891 -1.1180
   68MOL   C10928383   1.356   5.298   3.994  0.1343  0.1583  0.0394
   68MOL   C11028384   1.479   5.238   3.926 -0.8144 -0.1164 -0.5929
   68MOL   C11128385   1.444   5.204   3.776  0.5078  0.9159 -0.2196
   68MOL   C11228386   1.509   5.105   3.987 -0.2695 -0.0013  0.1125
   68MOL   C11328387   1.602   5.328   3.936 -0.0761 -0.3159 -0.8998
   68MOL   H11428388   1.159   5.579   4.002  0.1622 -0.8335 -0.4936
   68MOL   H11528389   1.206   5.444   4.116  2.0099 -1.6288 -0.4905
   68MOL   H11628390   1.372   5.481   3.878  0.5845  0.9136  1.5391
   68MOL   H11728391   1.380   5.334   4.095 -0.1687  1.5854 -0.3834
   68MOL   H11828392   1.278   5.222   3.995 -0.8566  1.1630 -0.6930
   68MOL   H11928393   1.426   5.295   3.720 -1.9758 -0.5112 -1.8151
   68MOL   H12028394   1.538   5.163   3.737 -0.7317 -2.1344 -0.1271
   68MOL   H12128395   1.359   5.136   3.778  0.9015  0.4378  0.6801
   68MOL   H12228396   1.587   5.050   3.934 -0.7331  0.8565 -1.4749
   68MOL   H12328397   1.417   5.048   3.998 -0.2251 -0.0892  0.0292
   68MOL   H12428398   1.543   5.125   4.089 -2.1310 -0.6507  0.8781
   68MOL   H12528399   1.639   5.331   4.039 -0.4731  0.8662 -0.7772
   68MOL   H12628400   1.588   5.426   3.891 -3.0605 -1.5442 -2.8548
   68MOL   H12728401   1.682   5.282   3.879 -0.3414  0.5290 -1.9656
   68MOL   C12828402   1.183   5.388   3.821 -0.2663  0.5848 -0.1865
   68MOL   C12928403   1.152   5.487   3.710 -0.0783 -0.4685 -0.0039
   68MOL   C13028404   1.265   5.498   3.603 -0.1484 -0.1110 -0.0497
   68MOL   C13128405   1.263   5.615   3.501  0.3244 -0.7180 -0.1770
   68MOL   C13228406   1.406   5.632   3.454  0.0776  0.0001 -0.6940
   68MOL   C13328407   1.227   5.744   3.565 -0.8588 -0.1345  0.3976
   68MOL   C13428408   1.181   5.584   3.368  0.3464 -0.0212 -0.0175
   68MOL   H13528409   1.099   5.348   3.878 -0.9154  0.5864 -1.1372
   68MOL   H13628410   1.204   5.297   3.765 -0.5079  1.8754 -2.4160
   68MOL   H13728411   1.137   5.579   3.767  1.6423  0.1771 -0.5506
   68MOL   H13828412   1.359   5.514   3.656 -0.0881  0.6483 -0.3874
   68MOL   H13928413   1.272   5.408   3.542  2.2967 -1.2255  1.7673
   68MOL   H14028414   1.446   5.534   3.429 -1.4087 -0.5113 -1.0881
   68MOL   H14128415   1.475   5.670   3.529 -0.1124  2.7322 -1.8207
   68MOL   H14228416   1.410   5.689   3.360  0.7810  1.4540  0.1991
   68MOL   H14328417   1.292   5.761   3.651 -0.4997 -0.0655  0.1164
   68MOL   H14428418   1.121   5.747   3.589 -1.4219  0.0488 -1.9574
   68MOL   H14528419   1.231   5.829   3.497 -0.8881 -0.9156 -0.5904
   68MOL   H14628420   1.199   5.642   3.277 -1.7519 -0.8841 -1.0226
   68MOL   H14728421   1.187   5.480   3.335 -0.7602 -0.5313  1.3515
   68MOL   H14828422   1.076   5.600   3.394  0.8224  0.9092  1.3624
   68MOL   C14928423   1.009   5.458   3.651 -0.0614  0.4157  0.3190
   68MOL   C15028424   0.897   5.508   3.736 -0.1648 -0.6365 -0.5937
   68MOL   C15128425   0.879   5.665   3.724 -0.7325  0.7505 -0.7034
   68MOL   C15228426   0.779   5.733   3.822  0.0520  0.5192 -0.2252
   68MOL   C15328427   0.802   5.881   3.822  0.3291  0.1619  0.4504
   68MOL   C15428428   0.803   5.697   3.960 -0.4534 -0.9394 -0.2836
   68MOL   C15528429   0.628   5.713   3.787 -0.7264  0.0280 -0.1200
   68MOL   H15628430   1.006   5.352   3.626 -0.8325  0.4931  0.0932
   68MOL   H15728431   0.991   5.510   3.557 -1.5418 -1.5652 -0.5109
   68MOL   H15828432   0.905   5.490   3.843 -1.5578  0.5479 -0.2631
   68MOL   H15928433   0.860   5.698   3.621 -0.7933  0.6133 -0.7363
   68MOL   H16028434   0.979   5.705   3.739 -1.2855  1.7970  0.3310
   68MOL   H16128435   0.905   5.906   3.848  0.1387  1.1055  0.3197
   68MOL   H16228436   0.791   5.929   3.725  2.5078 -0.4247 -0.0971
   68MOL   H16328437   0.738   5.932   3.894 -0.5060 -0.2506  0.0062
   68MOL   H16428438   0.906   5.708   3.995 -1.0341  0.6484  0.9895
   68MOL   H16528439   0.767   5.594   3.971  2.5054 -2.1082 -1.1070
   68MOL   H16628440   0.737   5.758   4.021 -0.9221 -0.7360 -0.9960
   68MOL   H16728441   0.569   5.798   3.821 -0.4568 -0.0671  0.6072
   68MOL   H16828442   0.617   5.725   3.679 -2.7981 -1.7120 -0.1430
   68MOL   H16928443   0.576   5.624   3.823 -0.4776  0.6078  1.7399
   68MOL   C17028444   0.764   5.443   3.695 -0.0276  0.4405 -0.3259
   68MOL   C17128445   0.756   5.287   3.691 -0.0167  0.2141  0.6545
   68MOL   C17228446   0.656   5.242   3.583 -0.5152 -0.2544  0.3172
   68MOL   C17328447   0.693   5.233   3.430 -0.2942  0.6326 -0.0287
   68MOL   C17428448   0.781   5.347   3.368  0.7598  0.1187 -0.5076
   68MOL   C17528449   0.557   5.222   3.354 -0.5286 -0.9860  0.1193
   68MOL   C17628450   0.780   5.111   3.403 -0.1871  0.3483 -0.3952
   68MOL   H17728451   0.731   5.485   3.600 -1.2910  1.2100  0.4493
   68MOL   H17828452   0.679   5.466   3.759  1.1899  2.0793  0.7473
   68MOL   H17928453   0.844   5.244   3.644  0.1032  0.4224  0.6865
   68MOL   H18028454   0.616   5.143   3.605 -0.6053 -0.2744  0.0724
   68MOL   H18128455   0.568   5.307   3.577  1.3431  2.4927  1.9199
   68MOL   H18228456   0.810   5.325   3.265  1.2745 -0.1340 -0.3062
   68MOL   H18328457   0.734   5.445   3.355  0.8066  0.0735 -1.0388
   68MOL   H18428458   0.876   5.372   3.415  0.4346 -0.6994  0.5976
   68MOL   H18528459   0.487   5.164   3.413 -1.4448  0.2389  0.2612
   68MOL   H18628460   0.517   5.321   3.331  0.6684 -0.7018 -0.7834
   68MOL   H18728461   0.569   5.169   3.260 -0.8015 -1.6394  0.4535
   68MOL   H18828462   0.805   5.109   3.297 -0.4920  1.7565 -0.4993
   68MOL   H18928463   0.871   5.112   3.462 -0.0839  1.4297 -0.5668
   68MOL   H19028464   0.738   5.014   3.430 -0.8194  0.0600 -2.3689
   68MOL   C19128465   0.749   5.232   3.837 -0.2964 -0.8153 -0.1007
   68MOL   C19228466   0.764   5.080   3.860  0.0579 -0.0326 -0.0970
   68MOL   C19328467   0.710   5.044   4.001 -0.6817  0.1310 -0.5242
   68MOL   C19428468   0.566   5.000   4.012  0.9894  0.4831 -0.3041
   68MOL   C19528469   0.535   4.950   4.153 -0.0275 -0.2278 -0.3729
   68MOL   C19628470   0.529   4.885   3.912 -0.1863 -0.0215  0.0031
   68MOL   C19728471   0.461   5.108   3.984 -0.1411  0.3768  0.0322
   68MOL   H19828472   0.820   5.283   3.903  0.2913 -1.2658 -0.3888
   68MOL   H19928473   0.656   5.268   3.881  0.9488 -1.1943  2.9663
   68MOL   H20028474   0.695   5.036   3.788 -1.6805 -1.3302  2.3283
   68MOL   H20128475   0.734   5.132   4.060 -0.5258  0.9236 -1.7307
   68MOL   H20228476   0.762   4.959   4.046 -1.0934  0.9712  1.5890
   68MOL   H20328477   0.593   4.863   4.187 -0.5371 -0.9333 -1.2787
   68MOL   H20428478   0.552   5.029   4.226  0.1497  1.2079 -1.9639
   68MOL   H20528479   0.429   4.924   4.158  0.5252 -2.4597  0.8092
   68MOL   H20628480   0.622   4.832   3.889 -0.4346  0.3016 -1.7983
   68MOL   H20728481   0.458   4.810   3.947 -0.2711  1.5248  3.3959
   68MOL   H20828482   0.503   4.918   3.812 -1.5818 -0.8978  0.0562
   68MOL   H20928483   0.465   5.129   3.877 -0.4545  1.0991  0.1617
   68MOL   H21028484   0.357   5.079   4.002  0.1971  0.4448  2.2169
   68MOL   H21128485   0.479   5.196   4.045  2.3077 -0.7040  0.9431
   68MOL   C21228486   0.914   5.045   3.841 -0.1030  0.0600  0.6798
   68MOL   C21328487   0.943   4.895   3.805 -0.4867  0.0434 -0.2269
   68MOL   C21428488   1.094   4.854   3.832  0.2773  0.2803  0.2373
   68MOL   C21528489   1.147   4.809   3.974 -0.5599 -0.4149 -0.5321
   68MOL   C21628490   1.144   4.924   4.081 -0.0397  0.0700  0.3541
   68MOL   C21728491   1.067   4.687   4.020  0.1358 -0.2483  0.4091
   68MOL   C21828492   1.295   4.765   3.959 -0.1174 -0.4092  0.1394
   68MOL   H21928493   0.953   5.104   3.758 -0.5586  0.6768  0.9080
   68MOL   H22028494   0.972   5.074   3.928  0.7549 -1.8302  0.7792
   68MOL   H22128495   0.875   4.835   3.864 -0.3874  0.3990  0.2500
   68MOL   H22228496   1.159   4.936   3.802  0.1469 -0.0092 -0.8736
   68MOL   H22328497   1.129   4.781   3.759  2.0212 -0.6854  2.0023
   68MOL   H22428498   1.200   5.014   4.058  1.2548 -0.9298 -0.5078
   68MOL   H22528499   1.179   4.893   4.180 -0.1424  1.1095  0.7215
   68MOL   H22628500   1.045   4.967   4.099 -0.2478 -0.9036  1.6273
   68MOL   H22728501   1.089   4.672   4.126  1.7278 -1.2206 -0.0352
   68MOL   H22828502   0.960   4.707   4.027  0.6564  2.3835  1.5756
   68MOL   H22928503   1.095   4.590   3.978 -1.1930 -0.4252 -0.0737
   68MOL   H23028504   1.314   4.679   3.895  1.1492  1.0750 -1.5341
   68MOL   H23128505   1.348   4.739   4.050  0.9746  0.7641 -0.1387
   68MOL   H23228506   1.357   4.849   3.927 -1.2338 -0.1858 -1.5493
   68MOL   C23328507   0.906   4.880   3.651  0.8826 -0.0201 -0.2005
   68MOL   C23428508   0.896   4.734   3.596 -0.2529  0.1628 -0.0730
   68MOL   C23528509   0.756   4.683   3.646  0.1758  0.2453 -0.1172
   68MOL   C23628510   0.728   4.529   3.683 -0.4279 -0.2706  0.2069
   68MOL   C23728511   0.801   4.502   3.817  0.3961  0.2582  0.5645
   68MOL   C23828512   0.569   4.516   3.701  0.6637 -0.1595  0.4648
   68MOL   C23928513   0.779   4.441   3.560 -0.6131  0.1104 -0.4211
   68MOL   H24028514   0.976   4.944   3.599  1.9064  0.1075  1.3116
   68MOL   H24128515   0.810   4.926   3.628 -0.9416 -2.3908  2.1823
   68MOL   H24228516   0.970   4.671   3.644  0.3709  1.2505  0.3979
   68MOL   H24328517   0.726   4.739   3.734 -1.1102  2.1504 -1.7076
   68MOL   H24428518   0.671   4.699   3.579  1.3083  0.3486 -1.5728
   68MOL   H24528519   0.787   4.400   3.853  0.3770 -0.5046 -1.5310
   68MOL   H24628520   0.786   4.579   3.892  0.3986  0.6757  0.1442
   68MOL   H24728521   0.907   4.485   3.801  0.0641 -1.5126  0.1742
   68MOL   H24828522   0.511   4.546   3.614  1.4374 -1.6319 -0.5702
   68MOL   H24928523   0.552   4.408   3.705  1.2335 -0.3172 -1.1585
   68MOL   H25028524   0.520   4.571   3.782 -1.7933 -0.1416 -0.9708
   68MOL   H25128525   0.728   4.472   3.469  0.1691  0.5265 -0.7206
   68MOL   H25228526   0.887   4.443   3.546 -0.6965  0.5213 -1.0210
   68MOL   H25328527   0.747   4.337   3.571 -0.6752  0.2137  0.4541
   68MOL   C25428528   0.921   4.724   3.444  0.4878 -0.1101 -0.5867
   68MOL   C25528529   1.065   4.747   3.403 -0.8851 -0.1992  0.2521
   68MOL   C25628530   1.079   4.889   3.329  0.6812  0.2817  0.2104
   68MOL   C25728531   1.207   4.979   3.359  0.1158 -0.1276 -0.9961
   68MOL   C25828532   1.340   4.912   3.332  0.4753 -0.3891  0.8743
   68MOL   C25928533   1.211   5.026   3.512 -0.3058 -0.1970  0.4818
   68MOL   C26028534   1.192   5.099   3.263 -0.4109  1.0774  0.2068
   68MOL   H26128535   0.844   4.789   3.401  0.9419  1.3314  0.7279
   68MOL   H26228536   0.890   4.628   3.405 -0.0080 -0.5838  0.9380
   68MOL   H26328537   1.115   4.755   3.500 -1.2597 -1.9351  0.6075
   68MOL   H26428538   1.064   4.874   3.222  0.3164  1.2233  0.1253
   68MOL   H26528539   0.993   4.947   3.362  1.4334  1.5862 -0.0935
   68MOL   H26628540   1.345   4.855   3.240  0.3219  0.6802  0.1889
   68MOL   H26728541   1.352   4.835   3.408  1.2004 -1.7399 -0.5945
   68MOL   H26828542   1.419   4.988   3.331  0.7574 -0.6857  0.6281
   68MOL   H26928543   1.213   4.937   3.576 -0.6554  0.9603  2.1194
   68MOL   H27028544   1.127   5.091   3.536  0.1700 -1.4057  6.1672
   68MOL   H27128545   1.304   5.075   3.538 -1.2590  2.2914 -0.6796
   68MOL   H27228546   1.109   5.163   3.292 -1.3445 -1.0943  2.5048
   68MOL   H27328547   1.288   5.151   3.255  1.1705 -2.0052 -2.1771
   68MOL   H27428548   1.168   5.074   3.160 -3.7002  0.6022  1.0621
   68MOL   C27528549   1.137   4.635   3.321 -0.4067  0.2365 -0.8590
   68MOL   C27628550   1.172   4.505   3.396  0.0760  0.6626 -0.2550
   68MOL   C27728551   1.210   4.393   3.292 -0.5430 -0.4326  0.8415
   68MOL   C27828552   1.105   4.283   3.264 -0.0737 -0.4944 -0.3064
   68MOL   C27928553   1.080   4.215   3.405  0.2674 -0.0526  0.1330
   68MOL   C28028554   0.971   4.341   3.223  0.0736 -0.5203 -0.5470
   68MOL   C28128555   1.165   4.185   3.161  0.9315  0.7149  0.4440
   68MOL   H28228556   1.071   4.606   3.240  0.5604 -1.7927 -0.9646
   68MOL   H28328557   1.229   4.667   3.271  1.1974 -3.5266 -0.4708
   68MOL   H28428558   1.077   4.468   3.436  0.9693  0.3442  1.6400
   68MOL   H28528559   1.306   4.348   3.320 -0.6914  0.2940  2.5714
   68MOL   H28628560   1.246   4.433   3.197  0.9343  1.0413  1.9891
   68MOL   H28728561   1.019   4.268   3.477  1.5018 -0.4469  1.5058
   68MOL   H28828562   1.040   4.113   3.401  3.3934 -1.3922  1.1512
   68MOL   H28928563   1.173   4.185   3.454 -0.1987 -0.4627  0.7764
   68MOL   H29028564   0.915   4.398   3.296  0.8757  1.6069 -1.5636
   68MOL   H29128565   0.900   4.261   3.200 -1.0007 -0.2638  1.6694
   68MOL   H29228566   0.989   4.405   3.138  0.2274 -0.0869 -0.1865
   68MOL   H29328567   1.119   4.086   3.157 -1.8340  1.7493  3.7724
   68MOL   H29428568   1.271   4.170   3.178  0.7958 -0.7971  0.0411
   68MOL   H29528569   1.141   4.229   3.064  0.2876 -3.9899 -1.6742
   68MOL   C29628570   1.290   4.534   3.499  0.4179 -0.0910  0.9172
   68MOL   C29728571   1.339   4.421   3.598 -0.0185  0.7959 -0.8118
   68MOL   C29828572   1.226   4.408   3.707  0.2443  0.4619 -0.3358
   68MOL   C29928573   1.221   4.283   3.799 -0.5489  0.0501 -0.2777
   68MOL   C30028574   1.313   4.293   3.930 -0.1622  0.4192  0.0314
   68MOL   C30128575   1.078   4.268   3.848 -0.5549 -0.4669 -0.1614
   68MOL   C30228576   1.253   4.154   3.721 -0.4896 -0.2355 -0.0699
   68MOL   H30328577   1.254   4.617   3.559  0.0084 -1.8770  3.1999
   68MOL   H30428578   1.373   4.577   3.442  0.2326  1.1590  1.5753
   68MOL   H30528579   1.344   4.328   3.540  0.3729  0.3764 -0.1129
   68MOL   H30628580   1.133   4.428   3.654  1.3437 -0.5498 -2.7201
   68MOL   H30728581   1.238   4.490   3.777 -1.9529  1.5846 -1.2354
   68MOL   H30828582   1.417   4.277   3.901 -0.5586 -1.7779 -0.2902
   68MOL   H30928583   1.296   4.389   3.979  0.0633  0.5134 -0.0759
   68MOL   H31028584   1.297   4.211   4.001  0.1168 -1.1620 -1.6861
   68MOL   H31128585   1.072   4.176   3.905 -1.7476 -0.8251 -0.8337
   68MOL   H31228586   1.043   4.352   3.909 -3.1370 -1.2767 -0.4521
   68MOL   H31328587   1.009   4.248   3.765  0.5856 -0.5755 -1.0947
   68MOL   H31428588   1.352   4.162   3.675 -0.1826 -0.6409  0.5104
   68MOL   H31528589   1.267   4.070   3.789  1.9544  0.9094  0.9210
   68MOL   H31628590   1.171   4.126   3.655  0.4519 -1.7537 -0.6133
   68MOL   C31728591   1.483   4.444   3.656 -0.2995 -0.3661  0.6346
   68MOL   C31828592   1.599   4.458   3.553 -0.0017 -0.7247  0.4196
   68MOL   C31928593   1.715   4.546   3.613 -0.0138 -0.0574  0.0103
   68MOL   C32028594   1.718   4.702   3.607  0.3233  0.1167 -0.4753
   68MOL   C32128595   1.592   4.759   3.673  0.7818 -0.2938 -0.1999
   68MOL   C32228596   1.725   4.756   3.462  0.0101  0.4321 -0.0778
   68MOL   C32328597   1.839   4.751   3.686  0.1194 -0.7288 -0.0645
   68MOL   H32428598   1.471   4.533   3.718  0.8027  0.5681 -0.4619
   68MOL   H32528599   1.501   4.365   3.730 -1.0177  0.2197  1.4442
   68MOL   H32628600   1.561   4.498   3.459  1.7371  0.5443  0.2255
   68MOL   H32728601   1.811   4.524   3.566  0.0910  1.3186 -0.4395
   68MOL   H32828602   1.730   4.511   3.715  1.0549  1.4164  0.3587
   68MOL   H32928603   1.591   4.708   3.770  1.0329  0.9491  0.4651
   68MOL   H33028604   1.499   4.754   3.615  1.0353  2.2210 -0.8506
   68MOL   H33128605   1.602   4.866   3.685 -1.7309  0.0962 -1.1759
   68MOL   H33228606   1.635   4.734   3.404  0.2380 -1.8333  0.3825
   68MOL   H33328607   1.750   4.861   3.453  0.7110  0.4889  2.2012
   68MOL   H33428608   1.812   4.714   3.412 -2.1720 -3.3957 -0.8616
   68MOL   H33528609   1.929   4.698   3.656 -0.3180 -2.1767  1.1938
   68MOL   H33628610   1.818   4.726   3.789  0.7149  1.7836  0.7039
   68MOL   H33728611   1.862   4.858   3.680 -0.9396 -0.4437  0.9096
   68MOL   C33828612   1.649   4.310   3.521 -0.3867  0.2503 -0.2102
   68MOL   C33928613   1.728   4.290   3.388  0.1390 -0.0731  0.4892
   68MOL   C34028614   1.639   4.327   3.262 -0.6148 -0.6035 -0.3776
   68MOL   C34128615   1.701   4.386   3.129 -0.3892 -0.2836  0.4384
   68MOL   C34228616   1.584   4.383   3.030  0.2521  0.0305 -0.2226
   68MOL   C34328617   1.756   4.532   3.138  0.4722 -0.7075 -0.4392
   68MOL   C34428618   1.825   4.300   3.090 -0.9637 -0.1242 -0.2116
   68MOL   H34528619   1.565   4.241   3.519 -1.0965  1.0122  1.8201
   68MOL   H34628620   1.705   4.276   3.608 -0.8659 -1.1807 -0.4627
   68MOL   H34728621   1.811   4.360   3.383 -0.8171  1.0162 -0.8576
   68MOL   H34828622   1.548   4.377   3.293 -0.0625  0.0948  0.1353
   68MOL   H34928623   1.606   4.237   3.211  0.5700 -0.5723 -1.2274
   68MOL   H35028624   1.600   4.403   2.924  0.2094  0.5938 -0.1226
   68MOL   H35128625   1.547   4.282   3.015  0.1848 -0.0581  0.5261
   68MOL   H35228626   1.507   4.452   3.064 -0.7209 -1.6031  0.9848
   68MOL   H35328627   1.847   4.542   3.197  0.0869 -0.2694  0.0849
   68MOL   H35428628   1.793   4.562   3.040  2.4089  2.0547  1.0692
   68MOL   H35528629   1.680   4.600   3.177  0.2448 -1.8241  1.1284
   68MOL   H35628630   1.798   4.195   3.093  0.4271 -0.4635  0.5382
   68MOL   H35728631   1.866   4.333   2.995 -1.4303 -0.7925 -0.6408
   68MOL   H35828632   1.904   4.317   3.163 -1.2192  1.4606 -0.2797
   68MOL   C35928633   1.787   4.146   3.383 -0.2224 -0.6187  0.6396
   68MOL   C36028634   1.895   4.115   3.488 -0.3151 -0.1756  0.3091
   68MOL   C36128635   2.033   4.174   3.435 -0.3203  0.8061 -0.4751
   68MOL   C36228636   2.133   4.238   3.538  0.1389  0.7755 -0.0395
   68MOL   C36328637   2.091   4.375   3.588  0.3366 -0.1384 -0.6337
   68MOL   C36428638   2.272   4.254   3.464 -0.0484 -0.2849 -0.0149
   68MOL   C36528639   2.155   4.149   3.663  0.4452  0.5278 -0.5595
   68MOL   H36628640   1.823   4.120   3.284 -0.5341  1.7610 -0.1362
   68MOL   H36728641   1.702   4.080   3.398  1.2270 -2.5671  0.3889
   68MOL   H36828642   1.877   4.168   3.581 -0.7383  0.8147 -0.3283
   68MOL   H36928643   2.087   4.090   3.391  0.1785  0.7150  0.3112
   68MOL   H37028644   2.013   4.249   3.357  0.0031  0.9974 -0.3721
   68MOL   H37128645   2.001   4.371   3.649  0.1203  1.7449 -0.8022
   68MOL   H37228646   2.172   4.412   3.652 -0.1499 -0.0941 -0.0393
   68MOL   H37328647   2.076   4.458   3.519 -0.1407  0.1652 -0.1707
   68MOL   H37428648   2.345   4.313   3.518 -0.5080 -0.3872  0.7283
   68MOL   H37528649   2.255   4.312   3.374  1.3700 -0.0635 -0.1543
   68MOL   H37628650   2.312   4.162   3.423 -0.8674 -0.5363 -0.2591
   68MOL   H37728651   2.249   4.178   3.709 -0.3584  0.9198  0.8486
   68MOL   H37828652   2.179   4.052   3.619  0.0709  1.5276 -3.0385
   68MOL   H37928653   2.072   4.132   3.732  1.7610 -0.0016  0.9212
   68MOL   C38028654   1.893   3.966   3.530 -0.5595  0.1097 -0.3206
   68MOL   C38128655   1.763   3.905   3.600  0.1529 -0.3189 -1.0463
   68MOL   C38228656   1.790   3.896   3.756 -0.3243  0.2346 -0.5352
   68MOL   C38328657   1.667   3.902   3.851  0.3606 -0.0656  0.4581
   68MOL   C38428658   1.577   3.778   3.837  0.2670  0.2269 -0.1114
   68MOL   C38528659   1.585   4.024   3.824  0.0362 -0.5375 -0.7694
   68MOL   C38628660   1.725   3.921   3.991 -0.5888  0.5089  0.0546
   68MOL   H38728661   1.979   3.955   3.597 -1.1370 -1.6887  0.1510
   68MOL   H38828662   1.926   3.909   3.443  0.5790 -1.3579  1.0551
   68MOL   H38928663   1.685   3.981   3.596 -0.5152 -1.0253 -1.6936
   68MOL   H39028664   1.845   3.806   3.785 -0.7745 -0.7448 -2.5802
   68MOL   H39128665   1.870   3.967   3.776  0.6411 -0.5145 -1.6200
   68MOL   H39228666   1.526   3.779   3.741 -6.1111 -0.3690  3.0253
   68MOL   H39328667   1.627   3.684   3.859  0.4984  1.1226  3.6847
   68MOL   H39428668   1.497   3.794   3.910 -0.3466  0.2128 -0.7725
   68MOL   H39528669   1.529   4.027   3.730  0.2562  1.9317 -0.8603
   68MOL   H39628670   1.649   4.113   3.820 -1.8347  0.9073  0.5395
   68MOL   H39728671   1.512   4.036   3.903  0.6282 -2.3947  0.0848
   68MOL   H39828672   1.644   3.939   4.061  2.0533  2.4304  2.7440
   68MOL   H39928673   1.802   3.998   3.983  0.4408 -0.5764 -0.7723
   68MOL   H40028674   1.780   3.834   4.030 -1.5779 -0.0678  0.1777
   68MOL   C40128675   1.719   3.771   3.535 -0.3756  0.5663 -0.2432
   68MOL   C40228676   1.609   3.788   3.432 -0.0187 -0.7646  0.6210
   68MOL   C40328677   1.671   3.804   3.295 -0.6370  0.1585  0.5115
   68MOL   C40428678   1.585   3.823   3.170 -0.2937 -0.4888  0.7472
   68MOL   C40528679   1.672   3.825   3.043  0.1446 -0.1286 -0.0943
   68MOL   C40628680   1.514   3.961   3.176 -0.3075  0.6556 -0.1864
   68MOL   C40728681   1.489   3.710   3.154 -0.1445 -0.2555 -0.2434
   68MOL   H40828682   1.795   3.708   3.489  0.6421  0.7164  1.2158
   68MOL   H40928683   1.671   3.705   3.607 -1.0899  0.6028 -0.6751
   68MOL   H41028684   1.547   3.698   3.433 -0.8206 -0.2268  0.4107
   68MOL   H41128685   1.735   3.719   3.274 -1.3906 -0.2636 -0.1033
   68MOL   H41228686   1.739   3.889   3.300 -0.7030  0.2925 -0.7027
   68MOL   H41328687   1.730   3.733   3.034 -3.0401 -2.1666 -0.7519
   68MOL   H41428688   1.739   3.910   3.033 -0.2269  0.1280 -0.4450
   68MOL   H41528689   1.605   3.828   2.956  0.9334  1.9378 -0.6632
   68MOL   H41628690   1.452   3.984   3.089 -0.1305 -1.5860 -0.9421
   68MOL   H41728691   1.587   4.040   3.160 -1.2029  1.2984 -1.2255
   68MOL   H41828692   1.443   3.981   3.256 -1.1505 -0.9149 -0.5228
   68MOL   H41928693   1.419   3.726   3.072  0.7275  0.4407 -0.8754
   68MOL   H42028694   1.540   3.617   3.130  0.0626  0.4363 -2.6649
   68MOL   H42128695   1.425   3.704   3.241 -1.9230  1.9233 -1.3262
   68MOL   H42228696   1.546   3.875   3.452 -2.4594 -2.3871  0.2570
   69MOL     C128697   0.240   4.273   1.419  0.3794  0.0494 -0.3127
   69MOL     C228698   0.362   4.326   1.328  0.6247  0.2898  0.0705
   69MOL     C328699   0.492   4.359   1.404  0.6697 -0.2467 -0.1392
   69MOL     C428700   0.604   4.261   1.427  0.3817 -0.3620  0.2239
   69MOL     C528701   0.556   4.140   1.506 -0.1336 -0.2040  0.7582
   69MOL     C628702   0.661   4.207   1.296  0.1957 -0.2145 -0.3606
   69MOL     C728703   0.718   4.335   1.505  0.1076  0.5512  0.1162
   69MOL     H828704   0.235   4.315   1.519  0.1660 -1.5540  0.3643
   69MOL     H928705   0.144   4.270   1.367 -0.3660  0.9948  0.9929
   69MOL    H1028706   0.382   4.240   1.265  0.9777 -0.9820  1.8638
   69MOL    H1128707   0.460   4.417   1.490  0.4808 -0.6119  0.0420
   69MOL    H1228708   0.543   4.437   1.348 -0.4892  0.0207 -0.8388
   69MOL    H1328709   0.460   4.097   1.477 -0.0938 -0.6442  1.2711
   69MOL    H1428710   0.545   4.181   1.606 -3.3476  0.1686  0.3196
   69MOL    H1528711   0.619   4.050   1.504 -0.9795 -0.8697 -4.6792
   69MOL    H1628712   0.697   4.290   1.235 -0.1391  0.3124  0.1519
   69MOL    H1728713   0.742   4.135   1.309 -0.7533 -1.5519 -1.7219
   69MOL    H1828714   0.583   4.146   1.250  0.2985 -0.6875  0.0755
   69MOL    H1928715   0.785   4.268   1.558  0.8715  1.1740 -0.0524
   69MOL    H2028716   0.677   4.394   1.587  0.9680  0.2140  0.7984
   69MOL    H2128717   0.786   4.397   1.448  2.6839 -1.1540  1.2269
   69MOL    H2228718   0.261   4.167   1.435  0.0387  0.0543  0.1714
   69MOL    C2328719   0.307   4.456   1.256  0.0407 -0.5141  0.0463
   69MOL    C2428720   0.200   4.436   1.143  0.2387  0.3917  0.3461
   69MOL    C2528721   0.267   4.353   1.029  0.3872 -0.1898  0.0269
   69MOL    C2628722   0.181   4.230   0.976  0.2379  0.0353 -0.0684
   69MOL    C2728723   0.239   4.183   0.843 -0.1887 -0.6210 -0.8252
   69MOL    C2828724   0.183   4.114   1.071  0.0847 -0.1363  0.3310
   69MOL    C2928725   0.034   4.264   0.950 -0.4266 -0.9343  0.0856
   69MOL    H3028726   0.251   4.524   1.320 -1.4722 -1.1854 -0.5388
   69MOL    H3128727   0.388   4.512   1.211  0.5843 -0.8371  0.6190
   69MOL    H3228728   0.122   4.375   1.190  0.5958 -0.2063  0.1635
   69MOL    H3328729   0.367   4.325   1.059  0.4009 -0.0673  0.0965
   69MOL    H3428730   0.283   4.420   0.944 -0.7235  2.4572  1.8235
   69MOL    H3528731   0.188   4.239   0.765 -0.3801 -0.1723 -0.3757
   69MOL    H3628732   0.348   4.181   0.837  0.0167  1.0767  1.5527
   69MOL    H3728733   0.213   4.077   0.836  1.9278 -1.3310  1.3121
   69MOL    H3828734   0.149   4.138   1.172  2.7869  1.0104  1.0090
   69MOL    H3928735   0.107   4.043   1.038  0.6998 -0.3948 -0.5355
   69MOL    H4028736   0.280   4.066   1.082  1.2790  1.8276 -1.2559
   69MOL    H4128737   0.029   4.370   0.927  0.6160 -0.6149  1.2956
   69MOL    H4228738   7.749   4.268   1.047  1.8208 -1.7740  1.3289
   69MOL    H4328739   7.753   4.200   0.876 -1.0002 -1.8535  1.2173
   69MOL    C4428740   0.147   4.575   1.099  0.1918 -0.5625  0.1725
   69MOL    C4528741   0.044   4.649   1.196  0.5435  0.1087 -0.4952
   69MOL    C4628742   7.662   4.589   1.192 -0.3316 -0.3727  0.3720
   69MOL    C4728743   7.586   4.549   1.327  0.4719 -0.3685  0.0547
   69MOL    C4828744   7.564   4.670   1.429  0.3528  0.4475 -0.2675
   69MOL    C4928745   7.655   4.442   1.416 -0.8846 -0.0699  0.3919
   69MOL    C5028746   7.447   4.498   1.279  0.4429  0.5365  0.0731
   69MOL    H5128747   0.235   4.636   1.078 -0.5297  0.5548  0.3567
   69MOL    H5228748   0.094   4.550   1.006 -0.5782  0.8385  0.2156
   69MOL    H5328749   0.072   4.637   1.301  0.9911  1.2271 -0.4855
   69MOL    H5428750   7.672   4.503   1.126 -0.3204 -0.6566  0.7385
   69MOL    H5528751   7.593   4.660   1.147  1.9650  0.8148 -1.3591
   69MOL    H5628752   7.492   4.639   1.505  0.8444  0.3425  0.1539
   69MOL    H5728753   7.531   4.756   1.371  1.1469  1.1769  0.3536
   69MOL    H5828754   7.652   4.695   1.488 -0.4382  0.0927  1.0968
   69MOL    H5928755   7.596   4.418   1.504  0.2373 -0.8936  0.9223
   69MOL    H6028756   7.662   4.351   1.355  2.7487  0.0032  0.5716
   69MOL    H6128757   7.754   4.471   1.451 -1.0806  0.7750  0.2608
   69MOL    H6228758   7.388   4.460   1.362 -0.6873 -0.1659 -1.0440
   69MOL    H6328759   7.388   4.583   1.244  0.6136 -0.2246 -2.1328
   69MOL    H6428760   7.444   4.421   1.202 -1.7633 -1.0510  1.6797
   69MOL    C6528761   0.043   4.804   1.177  0.8811  0.6129 -0.4582
   69MOL    C6628762   0.152   4.885   1.234 -0.1789 -0.6324 -0.2251
   69MOL    C6728763   0.118   4.925   1.393 -0.1962 -0.9078 -0.1149
   69MOL    C6828764   0.225   4.900   1.503 -0.0316  0.5550 -0.1873
   69MOL    C6928765   0.344   4.991   1.475  0.1262 -1.1361 -1.1111
   69MOL    C7028766   0.152   4.932   1.635  0.3752  0.4128  0.1522
   69MOL    C7128767   0.283   4.756   1.511  0.2095  0.4001  0.3678
   69MOL    H7228768   0.051   4.817   1.069 -0.2986  0.8830 -0.5158
   69MOL    H7328769   7.710   4.846   1.192  1.0938  1.6095 -1.8090
   69MOL    H7428770   0.245   4.828   1.234 -0.9155 -1.8607 -0.6829
   69MOL    H7528771   0.028   4.875   1.429 -1.0783 -0.8300 -2.1595
   69MOL    H7628772   0.091   5.031   1.390 -0.4615 -1.0057 -3.5226
   69MOL    H7728773   0.373   4.976   1.372 -3.1065  0.7270 -2.3675
   69MOL    H7828774   0.324   5.095   1.499  1.3168 -1.2145  0.3213
   69MOL    H7928775   0.432   4.973   1.537 -0.8603  1.8423  1.2701
   69MOL    H8028776   0.223   4.921   1.717 -1.1221 -1.6919  1.2203
   69MOL    H8128777   0.079   4.855   1.661  1.1197 -0.5677 -0.6533
   69MOL    H8228778   0.104   5.030   1.641 -2.0444 -0.6544 -1.1804
   69MOL    H8328779   0.208   4.677   1.516  1.0062 -0.3446  0.6023
   69MOL    H8428780   0.341   4.728   1.598  1.0451  0.1173 -0.2739
   69MOL    H8528781   0.355   4.737   1.431  0.1990  0.7796  0.2706
   69MOL    C8628782   0.194   5.014   1.150 -0.6892  0.6539  0.5141
   69MOL    C8728783   0.290   4.990   1.031 -1.2362  0.5249  0.2141
   69MOL    C8828784   0.431   4.942   1.069 -0.4554  0.6837 -0.5581
   69MOL    C8928785   0.542   4.905   0.965 -0.6887  0.0237  0.4947
   69MOL    C9028786   0.632   4.784   1.003 -0.4219  0.8100  0.1149
   69MOL    C9128787   0.635   5.025   0.954  0.0052 -0.4649  0.2351
   69MOL    C9228788   0.483   4.871   0.824 -0.6869 -0.3926  0.0402
   69MOL    H9328789   0.248   5.078   1.220  0.6707 -0.8092  0.8479
   69MOL    H9428790   0.108   5.075   1.125 -1.1867 -0.2123  0.0547
   69MOL    H9528791   0.241   4.919   0.964 -0.1417  1.3902 -1.5299
   69MOL    H9628792   0.408   4.852   1.127 -1.4177  1.4725  0.3086
   69MOL    H9728793   0.479   5.012   1.137  0.8423 -1.0732  0.3822
   69MOL    H9828794   0.722   4.783   0.941 -0.4196 -0.0745  0.1291
   69MOL    H9928795   0.597   4.682   0.988  3.6685 -0.3848 -2.2185
   69MOL   H10028796   0.653   4.786   1.110 -2.8309 -0.2899  0.6414
   69MOL   H10128797   0.657   5.070   1.051  1.7424  0.1762 -0.4409
   69MOL   H10228798   0.727   4.994   0.903  0.3650  1.1196 -0.1039
   69MOL   H10328799   0.600   5.109   0.895  1.2817  0.1021  0.2683
   69MOL   H10428800   0.556   4.814   0.765 -1.3426 -0.3500 -0.8196
   69MOL   H10528801   0.394   4.808   0.824 -1.2372  0.3024 -3.1548
   69MOL   H10628802   0.450   4.953   0.761  3.6645  1.6015  0.1382
   69MOL   C10728803   0.303   5.116   0.943  0.5399  0.0483  0.4441
   69MOL   C10828804   0.175   5.174   0.871  0.2655  0.2154 -0.5706
   69MOL   C10928805   0.189   5.315   0.806  0.7468  0.2763 -0.7374
   69MOL   C11028806   0.146   5.440   0.888  0.3048 -0.2882 -0.1016
   69MOL   C11128807   0.208   5.561   0.819  0.2444 -0.2308 -0.1177
   69MOL   C11228808   0.202   5.432   1.034 -0.0848 -0.0981  0.2649
   69MOL   C11328809   7.757   5.448   0.889 -0.0810  0.1195 -0.1010
   69MOL   H11428810   0.381   5.107   0.867 -0.8870 -0.7612 -0.9372
   69MOL   H11528811   0.341   5.195   1.009  0.5258 -0.4458  1.0497
   69MOL   H11628812   0.106   5.205   0.949 -0.2357 -0.0909 -0.8847
   69MOL   H11728813   0.291   5.328   0.769  1.1989  0.2542  0.4686
   69MOL   H11828814   0.131   5.313   0.714  1.1979  2.8079 -1.0990
   69MOL   H11928815   0.174   5.651   0.868 -0.9282  0.4435 -2.1323
   69MOL   H12028816   0.316   5.565   0.836  0.4978  1.4903 -1.9941
   69MOL   H12128817   0.191   5.570   0.711  1.5125  0.5138 -0.2674
   69MOL   H12228818   0.142   5.355   1.082 -1.9964 -0.9404 -3.2956
   69MOL   H12328819   0.207   5.533   1.075  0.2885 -1.0353  2.6285
   69MOL   H12428820   0.301   5.385   1.035  0.7993  1.7099  0.3481
   69MOL   H12528821   7.714   5.533   0.943  2.2786  0.3494  1.4827
   69MOL   H12628822   7.722   5.354   0.931  2.3367 -0.4349  0.7525
   69MOL   H12728823   7.712   5.442   0.790 -0.8891  1.8739  0.1271
   69MOL   C12828824   0.107   5.076   0.765 -0.5277  0.0929 -1.0069
   69MOL   C12928825   7.717   5.078   0.756  0.4882  0.0052  0.1054
   69MOL   C13028826   7.676   5.010   0.625  0.4300 -0.2150 -0.1987
   69MOL   C13128827   7.671   5.088   0.492 -0.3216  0.4063  0.3000
   69MOL   C13228828   7.602   5.226   0.519 -0.2517 -0.1974  0.2961
   69MOL   C13328829   7.590   5.007   0.393  0.6756  0.3690  0.0437
   69MOL   C13428830   0.044   5.121   0.438 -0.4178 -0.2067 -0.1444
   69MOL   H13528831   0.132   4.974   0.794 -0.2010  0.4425 -0.0134
   69MOL   H13628832   0.153   5.098   0.669  3.1427 -0.2959  0.5785
   69MOL   H13728833   7.680   5.180   0.764  0.7176  0.3237 -2.5985
   69MOL   H13828834   7.732   4.916   0.624  0.7203 -0.0378 -0.6313
   69MOL   H13928835   7.571   4.980   0.635 -0.2232  2.1625  0.2780
   69MOL   H14028836   7.672   5.286   0.577  2.4684 -3.7445  0.8961
   69MOL   H14128837   7.509   5.211   0.574 -0.3928 -1.4148 -0.2510
   69MOL   H14228838   7.585   5.280   0.426 -1.1330  0.5835  0.9073
   69MOL   H14328839   7.612   5.044   0.292  1.0958  0.2106  0.0754
   69MOL   H14428840   7.485   5.028   0.409  0.2588 -0.7051 -1.2119
   69MOL   H14528841   7.600   4.899   0.401  1.7208  0.4771  0.3623
   69MOL   H14628842   0.034   5.170   0.341  1.1961 -0.6668 -0.5608
   69MOL   H14728843   0.108   5.193   0.490  0.6800 -0.6302 -0.8822
   69MOL   H14828844   0.110   5.034   0.428 -1.3409 -1.1530  1.6817
   69MOL   C14928845   7.668   4.986   0.877  0.7417  0.1344 -0.4983
   69MOL   C15028846   7.511   4.992   0.906  0.3102  0.0492  0.2096
   69MOL   C15128847   7.449   4.864   0.960 -0.1557  0.1145 -0.3364
   69MOL   C15228848   7.396   4.764   0.851  0.5307 -0.3000 -0.0155
   69MOL   C15328849   7.289   4.833   0.760 -0.3298 -0.2655 -0.3979
   69MOL   C15428850   7.330   4.644   0.917  1.0237  0.1371 -0.6048
   69MOL   C15528851   7.511   4.701   0.770  0.1069 -0.2430 -0.4975
   69MOL   H15628852   7.707   5.026   0.970  2.0536  0.7235 -1.2940
   69MOL   H15728853   7.705   4.884   0.865  0.8841 -0.0512  1.4496
   69MOL   H15828854   7.461   5.005   0.810 -0.0910  0.8928  0.5293
   69MOL   H15928855   7.378   4.879   1.041 -2.2050 -0.3523 -1.9862
   69MOL   H16028856   7.528   4.814   1.016 -1.4372 -0.7459  0.7459
   69MOL   H16128857   7.327   4.896   0.679 -1.7020  0.7593 -0.2462
   69MOL   H16228858   7.219   4.761   0.718 -1.0892 -0.3144  0.9359
   69MOL   H16328859   7.235   4.899   0.827  1.8494  0.2650  0.9074
   69MOL   H16428860   7.402   4.602   0.987  3.8040  1.3382 -2.6568
   69MOL   H16528861   7.286   4.575   0.845 -0.4904  0.1290  0.3193
   69MOL   H16628862   7.244   4.685   0.969 -1.3531 -3.3397 -1.6292
   69MOL   H16728863   7.581   4.776   0.732  0.9246 -0.8817 -0.2534
   69MOL   H16828864   7.577   4.639   0.830  0.7562  1.0637  0.1649
   69MOL   H16928865   7.478   4.641   0.685  1.0747 -3.1727  1.1133
   69MOL   C17028866   7.472   5.121   0.988 -0.7201 -0.4583  0.3347
   69MOL   C17128867   7.330   5.186   0.956 -0.4245  0.8145  0.0133
   69MOL   C17228868   7.326   5.267   0.819  0.4065 -0.2354  0.7431
   69MOL   C17328869   7.190   5.303   0.745 -0.8030 -0.1457 -0.3857
   69MOL   C17428870   7.095   5.410   0.815 -0.1253 -0.5325 -0.2162
   69MOL   C17528871   7.124   5.163   0.715  0.4853 -0.8834 -1.3123
   69MOL   C17628872   7.221   5.348   0.597  0.2374 -0.8369 -0.1534
   69MOL   H17728873   7.547   5.197   0.968 -2.6197  1.2860 -0.2599
   69MOL   H17828874   7.485   5.092   1.093 -0.6292  1.7127  0.9456
   69MOL   H17928875   7.267   5.097   0.955  0.7398 -0.0187 -0.1248
   69MOL   H18028876   7.382   5.361   0.826  1.8677 -0.7766 -3.0029
   69MOL   H18128877   7.388   5.212   0.749 -0.5378  0.8449 -0.9813
   69MOL   H18228878   7.049   5.362   0.901 -0.8785 -0.4000 -0.5329
   69MOL   H18328879   7.154   5.494   0.850  2.5182 -1.6036 -1.8804
   69MOL   H18428880   7.014   5.454   0.756  1.0718  0.4051 -1.1840
   69MOL   H18528881   7.191   5.105   0.651 -0.5946 -0.7338 -2.6043
   69MOL   H18628882   7.093   5.099   0.796  0.0718 -0.7192 -1.3423
   69MOL   H18728883   7.030   5.165   0.660  0.2403  1.1502 -0.8502
   69MOL   H18828884   7.272   5.272   0.538  1.0588  2.1357 -3.4154
   69MOL   H18928885   7.124   5.368   0.551  1.4160 -0.3345 -2.4994
   69MOL   H19028886   7.263   5.449   0.587  1.3938 -1.2423  0.4648
   69MOL   C19128887   7.290   5.280   1.077  0.2054 -0.2072  0.3509
   69MOL   C19228888   7.185   5.226   1.182 -0.4853  0.6689 -0.1012
   69MOL   C19328889   7.062   5.178   1.116  0.0481  0.1276  0.7405
   69MOL   C19428890   6.996   5.049   1.159  0.1605 -0.8278 -0.1124
   69MOL   C19528891   6.924   5.065   1.295 -0.4426 -0.3396  0.6167
   69MOL   C19628892   7.096   4.934   1.171  0.4819  0.8707  0.2210
   69MOL   C19728893   6.888   5.013   1.058 -0.4027  0.7090  0.1487
   69MOL   H19828894   7.380   5.317   1.126 -0.0450 -0.6490  1.1511
   69MOL   H19928895   7.236   5.363   1.031  0.3956  0.1118  0.7064
   69MOL   H20028896   7.245   5.146   1.226  0.9182  0.2627 -2.7003
   69MOL   H20128897   7.076   5.174   1.008 -0.9993  1.4065  0.5465
   69MOL   H20228898   6.993   5.259   1.139  0.9890  1.1592 -0.0522
   69MOL   H20328899   6.979   5.072   1.388  0.4672 -0.4286  0.0903
   69MOL   H20428900   6.840   5.135   1.293 -1.6002 -1.6983  1.0089
   69MOL   H20528901   6.861   4.976   1.305 -1.4716 -0.0307 -2.4159
   69MOL   H20628902   7.173   4.949   1.246  1.6749  1.0280 -1.0171
   69MOL   H20728903   7.050   4.839   1.198 -0.1999  0.7705 -1.2248
   69MOL   H20828904   7.152   4.927   1.078  0.1722  0.3976  0.0676
   69MOL   H20928905   6.808   5.087   1.046  0.6589  1.7276 -0.6961
   69MOL   H21028906   6.937   5.010   0.961 -0.6849 -0.9720  0.0478
   69MOL   H21128907   6.845   4.916   1.083  0.3674  0.3083 -0.0725
   69MOL   C21228908   7.146   5.323   1.300  0.0450 -0.4633 -0.0199
   69MOL   C21328909   7.251   5.358   1.414 -0.2639 -0.3174 -0.3902
   69MOL   C21428910   7.258   5.242   1.523 -0.7339 -0.4781  0.2016
   69MOL   C21528911   7.399   5.208   1.574  0.5066  0.0920  0.8823
   69MOL   C21628912   7.467   5.317   1.653  0.5640 -0.0975 -0.5770
   69MOL   C21728913   7.391   5.084   1.664  0.1900  1.0347  0.2599
   69MOL   C21828914   7.489   5.154   1.464 -0.4812  0.0092 -0.3972
   69MOL   H21928915   7.126   5.417   1.249 -0.4093  0.6479  2.1458
   69MOL   H22028916   7.048   5.297   1.341 -0.1383  2.6334  1.6650
   69MOL   H22128917   7.345   5.368   1.360  0.2215  0.9934  0.6688
   69MOL   H22228918   7.220   5.154   1.472 -1.2210  0.3035 -0.7935
   69MOL   H22328919   7.192   5.264   1.607 -1.1858 -0.6851 -0.0981
   69MOL   H22428920   7.482   5.412   1.602 -0.1879  0.0019 -0.6186
   69MOL   H22528921   7.561   5.280   1.694 -0.9656 -2.5757  0.7986
   69MOL   H22628922   7.401   5.336   1.737  0.2840 -1.8071 -0.4024
   69MOL   H22728923   7.344   5.002   1.611  1.9219 -0.5669  1.0987
   69MOL   H22828924   7.488   5.051   1.702 -0.3627 -1.4167 -0.4319
   69MOL   H22928925   7.324   5.095   1.749 -1.5725 -2.7189 -0.5897
   69MOL   H23028926   7.433   5.084   1.403 -0.8065  0.0089 -0.1001
   69MOL   H23128927   7.579   5.114   1.511 -2.4122 -1.4220  2.1933
   69MOL   H23228928   7.519   5.227   1.388 -0.6544  0.1835 -0.2996
   69MOL   C23328929   7.210   5.484   1.486  0.6178 -0.5793 -0.2368
   69MOL   C23428930   7.224   5.623   1.423  0.3523  0.7910  0.8796
   69MOL   C23528931   7.343   5.641   1.327  0.1868  0.7599 -0.0699
   69MOL   C23628932   7.385   5.776   1.264  0.4349  0.3325  0.2295
   69MOL   C23728933   7.321   5.785   1.125  0.4025 -0.1171  0.0292
   69MOL   C23828934   7.338   5.904   1.335 -0.3004  0.0622  0.1270
   69MOL   C23928935   7.537   5.783   1.249  0.2056 -0.0759  0.1114
   69MOL   H24028936   7.263   5.492   1.581 -1.8143 -0.4316  1.1564
   69MOL   H24128937   7.107   5.464   1.517 -0.2544  2.7368 -0.7353
   69MOL   H24228938   7.251   5.686   1.507  1.8199  0.9073  0.3465
   69MOL   H24328939   7.432   5.592   1.366 -1.1269  1.1068  3.5834
   69MOL   H24428940   7.320   5.566   1.251 -1.7712  0.1581  1.0572
   69MOL   H24528941   7.348   5.710   1.050  0.0701  0.3049 -0.5101
   69MOL   H24628942   7.358   5.871   1.069 -0.6677  0.7383  0.6357
   69MOL   H24728943   7.213   5.793   1.131  0.3965  0.0043 -0.2424
   69MOL   H24828944   7.235   5.929   1.309 -0.3558 -3.1301 -3.0481
   69MOL   H24928945   7.345   5.909   1.443 -0.4577 -1.0713  0.1945
   69MOL   H25028946   7.397   5.991   1.306 -1.9097  1.3382  0.6244
   69MOL   H25128947   7.571   5.877   1.205  2.2546 -0.1621  1.4429
   69MOL   H25228948   7.580   5.775   1.349  1.3331 -0.5930 -0.4038
   69MOL   H25328949   7.580   5.700   1.193 -0.8412 -2.2061  2.3730
   69MOL   C25428950   7.083   5.670   1.373 -0.0386 -0.2013 -0.4977
   69MOL   C25528951   6.974   5.695   1.477  0.0415  0.2708 -0.6397
   69MOL   C25628952   6.842   5.714   1.403  1.1907  0.4163  0.4701
   69MOL   C25728953   6.774   5.590   1.333 -0.2941 -0.5212  0.0484
   69MOL   C25828954   6.827   5.547   1.190 -0.1231 -1.0546 -0.4150
   69MOL   C25928955   6.625   5.643   1.314  0.2603  0.1891 -0.5490
   69MOL   C26028956   6.771   5.474   1.430  0.4320  0.0832  0.2462
   69MOL   H26128957   7.056   5.611   1.286 -2.0981 -1.6123  1.0525
   69MOL   H26228958   7.094   5.769   1.328 -0.5921 -0.2464 -0.7289
   69MOL   H26328959   6.970   5.611   1.546  0.6542 -0.4176 -1.4416
   69MOL   H26428960   6.764   5.736   1.476  0.6023  0.4655 -0.1683
   69MOL   H26528961   6.854   5.806   1.347 -0.3141  1.8729  2.4914
   69MOL   H26628962   6.751   5.498   1.131  0.3117 -1.7435 -0.4057
   69MOL   H26728963   6.909   5.477   1.203 -0.9393 -1.7213  1.2720
   69MOL   H26828964   6.852   5.638   1.135 -0.9566 -0.2597  0.5034
   69MOL   H26928965   6.617   5.711   1.229  0.0603  1.4967  0.4933
   69MOL   H27028966   6.580   5.684   1.405  1.1217 -1.7277  0.7929
   69MOL   H27128967   6.561   5.558   1.293 -1.3494  0.2656  3.4899
   69MOL   H27228968   6.709   5.497   1.517 -0.0039  2.1427 -0.5663
   69MOL   H27328969   6.727   5.386   1.382  0.8021  0.2749 -0.4474
   69MOL   H27428970   6.867   5.441   1.467 -0.3588 -0.9397  1.4287
   69MOL   C27528971   7.009   5.830   1.562  0.7857  0.2733 -0.4665
   69MOL   C27628972   6.918   5.870   1.683  0.3071  0.8387  0.2553
   69MOL   C27728973   6.909   5.762   1.804  0.0201 -0.1139 -1.1330
   69MOL   C27828974   6.774   5.725   1.864  0.9226 -0.3167 -0.0548
   69MOL   C27928975   6.698   5.648   1.757 -0.4636 -0.1088  0.2232
   69MOL   C28028976   6.791   5.650   2.000  0.2946  0.4576 -0.2423
   69MOL   C28128977   6.691   5.851   1.901 -0.3172 -0.2225  0.4666
   69MOL   H28228978   7.113   5.820   1.592  0.6132 -0.5751 -0.1320
   69MOL   H28328979   7.002   5.915   1.494 -0.6607  1.4395  1.0928
   69MOL   H28428980   6.817   5.868   1.642 -0.0234 -1.5262  1.0710
   69MOL   H28528981   6.972   5.790   1.888 -2.2535  1.3940  0.1022
   69MOL   H28628982   6.956   5.666   1.779 -1.2831 -1.0487 -0.0110
   69MOL   H28728983   6.664   5.721   1.683 -0.4044  0.0057  0.3075
   69MOL   H28828984   6.771   5.579   1.715 -0.2717 -0.8637  1.7466
   69MOL   H28928985   6.611   5.595   1.796  0.8017 -0.8749  2.1116
   69MOL   H29028986   6.850   5.561   1.981  2.0239  1.2414  1.2719
   69MOL   H29128987   6.699   5.624   2.052  0.4715 -2.2316 -1.2308
   69MOL   H29228988   6.845   5.711   2.074 -1.4732 -0.4917  1.8872
   69MOL   H29328989   6.751   5.918   1.962 -0.6430  1.6688 -1.2592
   69MOL   H29428990   6.601   5.826   1.956 -0.3214 -0.8007  0.2046
   69MOL   H29528991   6.652   5.899   1.811  0.3836  0.2394  0.3990
   69MOL   C29628992   6.943   6.013   1.738 -0.1262  1.2183 -0.8280
   69MOL   C29728993   6.896   6.135   1.650 -0.4288  0.1035 -0.3565
   69MOL   C29828994   6.958   6.266   1.698 -0.4064  0.0611 -0.8762
   69MOL   C29928995   7.108   6.301   1.673  1.0033  0.2621 -0.4030
   69MOL   C30028996   7.126   6.457   1.673 -0.5148  0.2084 -0.1078
   69MOL   C30128997   7.199   6.240   1.781  0.3798  0.0043  0.0035
   69MOL   C30228998   7.152   6.253   1.539  0.1119 -0.2727  0.1073
   69MOL   H30328999   7.047   6.011   1.770  0.8129 -0.7339 -3.8354
   69MOL   H30429000   6.899   6.030   1.836  0.3151  0.6480 -0.5289
   69MOL   H30529001   6.939   6.120   1.551  0.1166 -2.1272  0.1799
   69MOL   H30629002   6.933   6.269   1.804 -3.4826 -1.6710 -1.4850
   69MOL   H30729003   6.903   6.350   1.656  0.0103  1.1403  0.7262
   69MOL   H30829004   7.063   6.498   1.595  0.6894  0.3305 -1.0387
   69MOL   H30929005   7.093   6.496   1.770 -1.5061  0.4474 -0.5452
   69MOL   H31029006   7.226   6.497   1.655 -0.2686 -0.2841  0.1640
   69MOL   H31129007   7.192   6.131   1.779 -1.0436  0.0794  0.5028
   69MOL   H31229008   7.306   6.253   1.765  0.0891 -0.3046 -2.3119
   69MOL   H31329009   7.173   6.277   1.881 -1.5343 -1.0577 -0.0902
   69MOL   H31429010   7.170   6.145   1.534  0.3517 -0.2229 -0.0967
   69MOL   H31529011   7.087   6.287   1.459 -0.0147  2.4627  1.3370
   69MOL   H31629012   7.253   6.286   1.514  0.4252 -1.0115  0.3600
   69MOL   C31729013   6.743   6.158   1.650 -0.5153  0.2052  0.0373
   69MOL   C31829014   6.677   6.197   1.509 -0.0188 -0.8214  0.1900
   69MOL   C31929015   6.706   6.094   1.397  0.3409  0.2929 -0.6021
   69MOL   C32029016   6.727   6.154   1.256  0.1845  0.6300 -0.4731
   69MOL   C32129017   6.749   6.026   1.170 -0.9772  0.2247  0.4460
   69MOL   C32229018   6.854   6.244   1.246  0.0244 -0.2537  0.2196
   69MOL   C32329019   6.601   6.211   1.197  0.5238 -0.5326 -0.1147
   69MOL   H32429020   6.686   6.076   1.693  1.6697 -1.1302  0.4763
   69MOL   H32529021   6.721   6.244   1.713  2.6267  1.0739  0.0269
   69MOL   H32629022   6.713   6.295   1.480  0.6068 -1.0402  0.2283
   69MOL   H32729023   6.627   6.019   1.405  1.4731 -0.7761  0.6809
   69MOL   H32829024   6.792   6.038   1.433 -0.3986  1.4500  3.2470
   69MOL   H32929025   6.662   5.960   1.176 -0.7699 -0.3592 -2.5359
   69MOL   H33029026   6.833   5.962   1.194 -0.8395  1.0273  2.1969
   69MOL   H33129027   6.758   6.052   1.065 -0.0699 -1.0917  0.1812
   69MOL   H33229028   6.869   6.267   1.140  0.2780 -1.2942  0.0243
   69MOL   H33329029   6.835   6.333   1.307  3.7307  0.7541  0.0244
   69MOL   H33429030   6.941   6.196   1.292 -0.0566 -0.0960  0.5394
   69MOL   H33529031   6.610   6.242   1.093  3.0161  1.8922  0.7521
   69MOL   H33629032   6.567   6.299   1.253  2.1496 -0.6661  1.1129
   69MOL   H33729033   6.513   6.147   1.202 -0.0245  0.2521  0.5541
   69MOL   C33829034   6.520   6.213   1.536 -0.5802  0.1324  0.9785
   69MOL   C33929035   6.477   6.347   1.617 -0.1870 -0.0234  0.5351
   69MOL   C34029036   6.333   6.344   1.677 -0.7550 -0.4665  0.6227
   69MOL   C34129037   6.304   6.280   1.820 -0.1352  0.0287 -0.5841
   69MOL   C34229038   6.350   6.379   1.931  0.0080  0.5258  0.1698
   69MOL   C34329039   6.156   6.253   1.833  0.3890 -0.0334  0.2041
   69MOL   C34429040   6.388   6.159   1.842  0.5223 -0.2148  0.2389
   69MOL   H34529041   6.485   6.119   1.579 -0.5400 -0.3003  0.0903
   69MOL   H34629042   6.466   6.225   1.442  0.4268 -1.7906  0.1430
   69MOL   H34729043   6.547   6.349   1.701 -0.9310  0.6708  1.1379
   69MOL   H34829044   6.265   6.307   1.601 -1.0657 -1.5677  1.4197
   69MOL   H34929045   6.300   6.447   1.686  0.9244  0.0778  0.8736
   69MOL   H35029046   6.329   6.337   2.030 -1.1780 -1.7873 -1.0228
   69MOL   H35129047   6.455   6.407   1.925 -0.0114  0.6063  0.2114
   69MOL   H35229048   6.298   6.475   1.934  0.0644  0.5714 -0.3453
   69MOL   H35329049   6.125   6.191   1.750  1.9337  0.6678 -0.9221
   69MOL   H35429050   6.123   6.197   1.920  1.7587  2.3706  2.3913
   69MOL   H35529051   6.100   6.347   1.828  0.2880 -0.1840 -1.5100
   69MOL   H35629052   6.390   6.123   1.944  1.5173  0.5521  0.4957
   69MOL   H35729053   6.353   6.075   1.781  0.1479 -0.1120  0.3112
   69MOL   H35829054   6.496   6.168   1.829  0.7418  1.2473  2.8115
   69MOL   C35929055   6.502   6.477   1.539  0.1341 -0.0375 -0.1861
   69MOL   C36029056   6.531   6.602   1.627  0.0919  0.0828  0.4992
   69MOL   C36129057   6.474   6.733   1.561  0.7481 -0.7539  0.4490
   69MOL   C36229058   6.331   6.782   1.585 -0.3690  0.2013 -0.2447
   69MOL   C36329059   6.232   6.717   1.487 -0.5276 -0.5036  0.3743
   69MOL   C36429060   6.333   6.929   1.559  0.3711 -0.0805 -0.1176
   69MOL   C36529061   6.272   6.753   1.724 -0.9057  0.2683  0.5459
   69MOL   H36629062   6.411   6.495   1.482  0.5689 -1.0891 -1.2555
   69MOL   H36729063   6.582   6.472   1.465 -0.7231  2.1877 -1.3085
   69MOL   H36829064   6.474   6.590   1.719 -0.9690 -3.3828 -0.5367
   69MOL   H36929065   6.539   6.810   1.603  2.4533 -1.4516 -0.8616
   69MOL   H37029066   6.502   6.737   1.456 -1.2016  1.9881 -0.0177
   69MOL   H37129067   6.233   6.608   1.490  0.6976 -0.4822  1.0173
   69MOL   H37229068   6.131   6.742   1.519  0.5802  0.8735  2.9479
   69MOL   H37329069   6.243   6.733   1.380  2.6336 -2.2460  0.3791
   69MOL   H37429070   6.358   6.954   1.456  1.0334 -1.2375 -0.2538
   69MOL   H37529071   6.399   6.970   1.636 -2.2397  1.2192  1.5030
   69MOL   H37629072   6.234   6.971   1.574 -0.3163 -2.3444  2.0982
   69MOL   H37729073   6.188   6.821   1.741 -0.2670  1.4517 -0.8770
   69MOL   H37829074   6.336   6.776   1.809  0.8494 -0.4368 -0.5772
   69MOL   H37929075   6.234   6.651   1.730  1.0730 -0.4225  1.6281
   69MOL   C38029076   6.678   6.608   1.652 -0.2368  0.0749 -0.3682
   69MOL   C38129077   6.716   6.683   1.782 -0.2820 -0.5152 -0.4243
   69MOL   C38229078   6.873   6.704   1.785  0.1316 -0.3039 -0.1469
   69MOL   C38329079   6.935   6.840   1.740 -0.5199  0.7170 -0.3912
   69MOL   C38429080   6.930   6.853   1.588  0.0193  0.2585 -0.6623
   69MOL   C38529081   7.085   6.843   1.782  0.5294 -0.2794  1.0277
   69MOL   C38629082   6.865   6.958   1.796  0.8083 -0.3951  0.0700
   69MOL   H38729083   6.730   6.658   1.570  2.3086 -2.7366 -0.5343
   69MOL   H38829084   6.727   6.511   1.651 -0.2477  0.0698 -2.2317
   69MOL   H38929085   6.661   6.777   1.777 -1.5863 -1.2611 -0.5692
   69MOL   H39029086   6.902   6.705   1.890 -1.0838  2.7131  0.1947
   69MOL   H39129087   6.936   6.634   1.729 -1.1434 -0.7637 -1.0280
   69MOL   H39229088   7.012   6.911   1.546  1.2179 -0.0740  1.1716
   69MOL   H39329089   6.938   6.755   1.540 -1.9808  0.0960 -0.7030
   69MOL   H39429090   6.843   6.906   1.549 -2.3582 -2.1834  1.1361
   69MOL   H39529091   7.125   6.944   1.776 -2.5460  0.8896 -1.0734
   69MOL   H39629092   7.140   6.773   1.719  1.8933  0.6639  1.1650
   69MOL   H39729093   7.100   6.802   1.882 -0.7167 -1.1903  0.8559
   69MOL   H39829094   6.909   7.052   1.763  0.5596 -0.4391 -0.3946
   69MOL   H39929095   6.855   6.960   1.905 -0.7109  4.0104 -0.0362
   69MOL   H40029096   6.762   6.972   1.762  0.8639  0.7555  0.3340
   69MOL   C40129097   6.671   6.613   1.917 -0.0097  0.1972  0.0475
   69MOL   C40229098   6.738   6.477   1.945  0.2455  0.6656 -0.4411
   69MOL   C40329099   6.703   6.437   2.093  0.5226 -0.5046 -0.3295
   69MOL   C40429100   6.763   6.308   2.150  0.6232  0.6397  0.1877
   69MOL   C40529101   6.917   6.302   2.128 -0.6222  0.3543  0.5151
   69MOL   C40629102   6.716   6.179   2.086  0.5202  0.1411  0.4999
   69MOL   C40729103   6.733   6.297   2.299 -0.4369 -0.2912  0.3378
   69MOL   H40829104   6.701   6.680   1.997  3.6364 -1.9281  0.5931
   69MOL   H40929105   6.564   6.596   1.931  0.0927  0.0463  0.6820
   69MOL   H41029106   6.688   6.416   1.870  0.2766 -0.4370  0.4116
   69MOL   H41129107   6.596   6.442   2.112  0.3904 -2.4956 -0.4778
   69MOL   H41229108   6.729   6.526   2.151 -1.0650 -1.7016  2.2969
   69MOL   H41329109   6.982   6.383   2.162  1.8178 -1.5353  0.5354
   69MOL   H41429110   6.935   6.301   2.021  0.3007  0.0166  0.6660
   69MOL   H41529111   6.956   6.213   2.176  1.3529 -0.3092 -2.2175
   69MOL   H41629112   6.613   6.163   2.116  0.4472 -0.8100 -0.2393
   69MOL   H41729113   6.777   6.091   2.110  1.3034  0.1537 -1.3833
   69MOL   H41829114   6.723   6.180   1.978 -0.8588  0.8861  0.4120
   69MOL   H41929115   6.759   6.199   2.340  2.6261 -0.5775 -2.1066
   69MOL   H42029116   6.787   6.374   2.355  1.0293 -1.2247  0.2093
   69MOL   H42129117   6.627   6.310   2.321 -0.2973 -0.9409  1.4408
   69MOL   H42229118   6.846   6.482   1.931 -0.0410  0.9517 -2.6866
   70MOL     C129119   6.162   0.827   5.752 -0.9053  0.1685  0.2247
   70MOL     C229120   6.239   0.933   5.827 -0.7692 -0.0490 -0.3811
   70MOL     C329121   6.389   0.907   5.822  0.6431  0.4501  0.4573
   70MOL     C429122   6.467   0.981   5.713 -0.1149  0.1645  0.3926
   70MOL     C529123   6.610   0.913   5.698 -0.0999 -0.0404 -0.5138
   70MOL     C629124   6.397   0.978   5.578  0.0641 -0.3699 -0.2627
   70MOL     C729125   6.490   1.124   5.754  0.6769 -0.1809  0.4633
   70MOL     H829126   6.167   0.862   5.649  0.2075 -0.0682  0.1826
   70MOL     H929127   6.196   0.723   5.755 -1.4166 -0.0061 -0.0378
   70MOL    H1029128   6.215   1.030   5.783 -1.5468  0.5375  1.2781
   70MOL    H1129129   6.397   0.799   5.810 -0.0996  0.4404 -0.0173
   70MOL    H1229130   6.440   0.934   5.914 -0.1805  1.8829  0.5042
   70MOL    H1329131   6.586   0.810   5.668 -0.6437  0.0167 -0.2850
   70MOL    H1429132   6.673   0.904   5.786 -0.2372 -0.0514 -0.4164
   70MOL    H1529133   6.669   0.963   5.621 -1.4658 -0.5243 -1.9155
   70MOL    H1629134   6.467   1.012   5.501  1.2902 -0.8993  0.5981
   70MOL    H1729135   6.361   0.879   5.549  0.1369 -0.3080 -0.5685
   70MOL    H1829136   6.315   1.049   5.585  0.2727 -0.3544  2.6681
   70MOL    H1929137   6.397   1.181   5.765  0.2839 -0.6452 -0.4733
   70MOL    H2029138   6.538   1.191   5.683 -1.3787  1.5021  0.5964
   70MOL    H2129139   6.541   1.123   5.851  0.0658  1.6743  0.8435
   70MOL    H2229140   6.056   0.826   5.775 -1.2967 -0.4101 -1.4893
   70MOL    C2329141   6.181   0.938   5.974 -0.0451  0.6628  0.6776
   70MOL    C2429142   6.243   1.049   6.069 -0.4520  0.7467 -0.0364
   70MOL    C2529143   6.213   1.019   6.222  0.7270  0.3023  0.0016
   70MOL    C2629144   6.303   0.913   6.295  0.5789 -0.0001 -0.2536
   70MOL    C2729145   6.441   0.970   6.302  0.5812  0.5965  0.7509
   70MOL    C2829146   6.240   0.897   6.436 -0.1326 -0.1054  0.2943
   70MOL    C2929147   6.312   0.775   6.232 -0.0937 -0.1188 -0.5270
   70MOL    H3029148   6.075   0.962   5.966  0.4926  2.1688 -2.7467
   70MOL    H3129149   6.194   0.834   6.006 -0.1118 -0.7402 -3.5200
   70MOL    H3229150   6.351   1.043   6.055 -0.5336  2.2154 -1.4484
   70MOL    H3329151   6.109   0.985   6.223  0.9303 -0.3280  1.6358
   70MOL    H3429152   6.215   1.108   6.285 -1.4332 -0.1887  0.8159
   70MOL    H3529153   6.501   0.902   6.362 -0.9968 -1.7060 -0.2094
   70MOL    H3629154   6.496   0.964   6.207 -2.7540  0.3254 -1.2321
   70MOL    H3729155   6.447   1.071   6.343  0.9954  0.4680  1.0123
   70MOL    H3829156   6.284   0.972   6.501  2.4202 -0.9685 -0.3536
   70MOL    H3929157   6.132   0.906   6.432  0.0067  1.1568 -0.7922
   70MOL    H4029158   6.253   0.800   6.485 -2.1965 -0.4747  0.1491
   70MOL    H4129159   6.362   0.700   6.294 -0.6933 -0.8111 -0.8734
   70MOL    H4229160   6.367   0.771   6.138 -1.1080  0.1905 -1.1386
   70MOL    H4329161   6.216   0.733   6.203 -0.1731  0.0577 -0.5180
   70MOL    C4429162   6.207   1.192   6.026  0.2314 -0.4423 -0.2123
   70MOL    C4529163   6.284   1.307   6.089  0.0601 -0.1791  0.2119
   70MOL    C4629164   6.227   1.441   6.037 -0.2040 -0.3027  0.6233
   70MOL    C4729165   6.113   1.506   6.127 -0.1903 -0.1487  0.0574
   70MOL    C4829166   5.990   1.417   6.143 -0.0407  0.4562 -0.5314
   70MOL    C4929167   6.069   1.625   6.046  0.3276 -0.2285 -0.2371
   70MOL    C5029168   6.156   1.552   6.265 -0.2459 -0.1987 -0.0444
   70MOL    H5129169   6.212   1.198   5.917 -2.0629  0.2920 -0.3072
   70MOL    H5229170   6.100   1.209   6.042 -0.1947 -3.2781  0.3066
   70MOL    H5329171   6.277   1.317   6.197  0.7240  2.1620  0.0613
   70MOL    H5429172   6.186   1.424   5.937 -1.6882 -2.6823  1.5845
   70MOL    H5529173   6.306   1.513   6.016 -0.6859 -0.3898 -1.6933
   70MOL    H5629174   5.904   1.472   6.183  0.2186  0.5754 -0.1312
   70MOL    H5729175   6.003   1.334   6.212 -0.5384  0.2520 -0.6817
   70MOL    H5829176   5.956   1.371   6.051  0.4479 -0.2851 -0.3418
   70MOL    H5929177   6.010   1.697   6.103  1.4369 -0.0317  0.6742
   70MOL    H6029178   6.157   1.674   6.004 -0.6687  0.7882 -1.1764
   70MOL    H6129179   6.007   1.626   5.956 -0.5690  1.9796  0.3840
   70MOL    H6229180   6.070   1.585   6.324  0.9597 -0.9314  2.2172
   70MOL    H6329181   6.214   1.480   6.323 -1.2380  0.1424  1.4292
   70MOL    H6429182   6.220   1.640   6.255 -0.6313 -0.1582 -2.3787
   70MOL    C6529183   6.437   1.300   6.056  0.6441  0.6408  0.0637
   70MOL    C6629184   6.527   1.411   6.118  0.1626  0.0300  1.0945
   70MOL    C6729185   6.657   1.436   6.022  0.3041 -0.2058 -0.2040
   70MOL    C6829186   6.655   1.581   5.948 -0.8924  0.4224  0.1492
   70MOL    C6929187   6.779   1.569   5.861 -0.2585 -0.1166  0.3121
   70MOL    C7029188   6.525   1.606   5.871 -0.0516  0.0681  0.1639
   70MOL    C7129189   6.684   1.690   6.051 -0.4375  0.1752  0.1143
   70MOL    H7229190   6.475   1.199   6.068 -1.1575 -0.1586 -0.8256
   70MOL    H7329191   6.444   1.314   5.948 -2.1126  0.4663 -0.1827
   70MOL    H7429192   6.486   1.511   6.130  2.2918  1.1388 -0.3897
   70MOL    H7529193   6.657   1.356   5.948  1.2296 -0.8167  0.4569
   70MOL    H7629194   6.745   1.418   6.082  1.0955 -0.8128 -1.5253
   70MOL    H7729195   6.783   1.486   5.790 -0.6033  0.9677 -0.9894
   70MOL    H7829196   6.792   1.655   5.796 -0.3803  0.3396  0.8841
   70MOL    H7929197   6.861   1.564   5.933  1.2020  0.1429 -1.2937
   70MOL    H8029198   6.546   1.648   5.773  1.8466  0.9545  0.9064
   70MOL    H8129199   6.473   1.687   5.924  2.4526  1.3976  0.7155
   70MOL    H8229200   6.458   1.521   5.862  1.1126 -0.8587  0.1111
   70MOL    H8329201   6.771   1.653   6.105 -0.3819  1.4064  0.8802
   70MOL    H8429202   6.618   1.742   6.120 -0.3372 -0.2462  0.5343
   70MOL    H8529203   6.732   1.767   5.991  0.8473 -0.4370  0.3359
   70MOL    C8629204   6.572   1.356   6.258 -0.7067 -0.5484  0.5492
   70MOL    C8729205   6.635   1.462   6.362 -0.1355 -0.1504 -0.0254
   70MOL    C8829206   6.737   1.403   6.453  0.1888  0.1752  0.4918
   70MOL    C8929207   6.880   1.462   6.468  0.2541  0.2070  0.1522
   70MOL    C9029208   6.953   1.372   6.570  0.2896  0.5335  0.0767
   70MOL    C9129209   6.872   1.602   6.522  0.1321 -0.5230 -0.4220
   70MOL    C9229210   6.956   1.473   6.336  0.3254 -0.3389 -0.1075
   70MOL    H9329211   6.650   1.283   6.236 -2.1103 -2.0654  0.4736
   70MOL    H9429212   6.492   1.301   6.308  1.1208 -0.2621  3.9905
   70MOL    H9529213   6.691   1.525   6.293 -0.9652 -0.7256 -1.2265
   70MOL    H9629214   6.753   1.299   6.427 -0.5626  0.2775 -0.3699
   70MOL    H9729215   6.693   1.388   6.551  0.2452  1.6151  0.7566
   70MOL    H9829216   6.896   1.386   6.661 -1.3905  0.6860 -0.9728
   70MOL    H9929217   7.048   1.425   6.584 -0.8016  2.4858  0.3279
   70MOL   H10029218   6.962   1.265   6.553 -1.5504  0.4402 -0.3902
   70MOL   H10129219   6.804   1.652   6.453 -1.7933 -0.7527  1.2417
   70MOL   H10229220   6.840   1.619   6.625  1.2248  1.0423 -0.3166
   70MOL   H10329221   6.969   1.651   6.514 -1.7415  3.7365  1.1597
   70MOL   H10429222   6.982   1.373   6.301  1.3290 -0.6757  1.5467
   70MOL   H10529223   6.897   1.531   6.265  0.3024 -1.4293 -1.0034
   70MOL   H10629224   7.053   1.522   6.333  0.0147  0.1858 -2.0966
   70MOL   C10729225   6.529   1.550   6.429 -0.0753 -0.5893  0.2045
   70MOL   C10829226   6.472   1.513   6.568 -0.3578 -0.4407 -0.9775
   70MOL   C10929227   6.362   1.609   6.625  0.1360 -0.6247  0.0734
   70MOL   C11029228   6.388   1.738   6.719 -0.6016 -0.0276 -0.3813
   70MOL   C11129229   6.403   1.688   6.856 -0.7232  0.4668  0.1591
   70MOL   C11229230   6.260   1.822   6.721 -0.1425 -0.3256  0.0272
   70MOL   C11329231   6.509   1.820   6.679 -0.2687 -0.0680 -0.8387
   70MOL   H11429232   6.448   1.576   6.360 -0.7300  0.7660  1.4496
   70MOL   H11529233   6.580   1.646   6.443 -1.2788 -0.0521  1.0312
   70MOL   H11629234   6.562   1.514   6.629 -0.3499  0.3680 -0.9865
   70MOL   H11729235   6.298   1.642   6.544  1.6629 -0.6090 -1.1409
   70MOL   H11829236   6.295   1.551   6.690 -0.0975  0.5962  0.9358
   70MOL   H11929237   6.400   1.770   6.929  1.1418  0.3680  0.3681
   70MOL   H12029238   6.325   1.619   6.888  0.7610 -0.6696  1.4602
   70MOL   H12129239   6.498   1.635   6.864 -1.7125 -1.3649 -0.0118
   70MOL   H12229240   6.258   1.887   6.809  0.2220 -0.4281  0.1127
   70MOL   H12329241   6.172   1.757   6.723 -0.0088 -0.6079 -2.3065
   70MOL   H12429242   6.243   1.893   6.640 -1.5564  2.1082  2.3637
   70MOL   H12529243   6.606   1.796   6.722 -0.6191  1.1926  0.7041
   70MOL   H12629244   6.488   1.925   6.700  1.3853 -0.2441  1.9241
   70MOL   H12729245   6.512   1.817   6.570 -2.2771 -1.9748 -0.8974
   70MOL   C12829246   6.415   1.372   6.562 -0.3067 -0.7089 -0.1236
   70MOL   C12929247   6.385   1.307   6.695  0.7847  0.1708 -0.6548
   70MOL   C13029248   6.261   1.209   6.681 -0.1314  0.4503 -0.4978
   70MOL   C13129249   6.114   1.265   6.710 -0.3587 -0.6533  0.2015
   70MOL   C13229250   6.026   1.141   6.718  0.0727 -0.2518 -0.2197
   70MOL   C13329251   6.062   1.349   6.588  0.8338  0.5974  0.0285
   70MOL   C13429252   6.114   1.339   6.843 -0.8533 -0.4533 -0.0037
   70MOL   H13529253   6.476   1.300   6.507 -1.7706  0.2262 -3.1034
   70MOL   H13629254   6.323   1.388   6.507 -0.7397  0.1479  0.8278
   70MOL   H13729255   6.354   1.383   6.767 -1.3599  2.3671 -3.7806
   70MOL   H13829256   6.279   1.169   6.582  1.1474 -0.1419 -0.0447
   70MOL   H13929257   6.277   1.127   6.752 -0.9641 -0.0124 -0.8448
   70MOL   H14029258   6.043   1.091   6.623  1.3573  2.6982 -1.6068
   70MOL   H14129259   5.919   1.159   6.723 -0.2971 -2.0999 -0.9836
   70MOL   H14229260   6.056   1.069   6.794  0.2604  0.1183  0.0596
   70MOL   H14329261   5.956   1.376   6.592  0.8225  0.5737 -0.0924
   70MOL   H14429262   6.070   1.292   6.495 -2.6333  0.7840 -0.4751
   70MOL   H14529263   6.115   1.444   6.575  0.1676  0.8195 -1.2167
   70MOL   H14629264   6.164   1.266   6.907 -2.2323  0.2175  1.8474
   70MOL   H14729265   6.159   1.438   6.836  1.4087 -1.4521 -0.1032
   70MOL   H14829266   6.014   1.358   6.881 -0.5563  0.0043  0.5479
   70MOL   C14929267   6.512   1.232   6.749 -0.6968 -0.9342 -0.0221
   70MOL   C15029268   6.514   1.216   6.900 -0.0329 -0.1632 -0.4685
   70MOL   C15129269   6.605   1.096   6.930  0.0357  0.0166 -0.1776
   70MOL   C15229270   6.545   0.967   6.970 -0.5552 -0.2143  0.0463
   70MOL   C15329271   6.468   0.898   6.858 -0.9287  0.5500 -0.3970
   70MOL   C15429272   6.461   0.977   7.090  0.2733 -0.4006  0.7157
   70MOL   C15529273   6.663   0.874   7.008 -0.1807  0.2773 -0.5091
   70MOL   H15629274   6.612   1.263   6.720 -0.6534 -1.3033 -0.2626
   70MOL   H15729275   6.515   1.132   6.708 -2.1242 -0.4833 -1.2509
   70MOL   H15829276   6.415   1.211   6.945  1.6049  0.5655  3.3395
   70MOL   H15929277   6.671   1.127   7.011  0.5239  1.2079 -1.0085
   70MOL   H16029278   6.676   1.089   6.847 -0.0043 -0.6862 -0.1512
   70MOL   H16129279   6.525   0.904   6.765  1.8927  1.9108  1.3321
   70MOL   H16229280   6.437   0.795   6.873  1.0260  0.1435  0.9910
   70MOL   H16329281   6.374   0.951   6.845 -0.5777  1.4245  0.5828
   70MOL   H16429282   6.500   1.034   7.174  0.9460 -0.4775  0.4597
   70MOL   H16529283   6.442   0.876   7.127 -0.6471 -0.5538 -0.1530
   70MOL   H16629284   6.371   1.035   7.068 -1.3465 -3.2508 -0.5634
   70MOL   H16729285   6.718   0.914   7.093  0.8976  0.3661 -1.2475
   70MOL   H16829286   6.627   0.775   7.038  0.6040  0.3774  0.7918
   70MOL   H16929287   6.732   0.862   6.925  1.0956 -0.1139  0.5967
   70MOL   C17029288   6.576   1.348   6.956 -0.0578 -0.3571  0.2901
   70MOL   C17129289   6.572   1.371   7.110  0.7672  0.6618 -0.1443
   70MOL   C17229290   6.435   1.426   7.146  0.9282 -0.4369  0.3474
   70MOL   C17329291   6.372   1.426   7.292  0.4748  0.4669  0.7640
   70MOL   C17429292   6.422   1.551   7.375 -0.7825  0.1134  0.3284
   70MOL   C17529293   6.424   1.293   7.361 -0.2819 -0.6048  0.1000
   70MOL   C17629294   6.215   1.422   7.293  0.0642  0.1885  0.3768
   70MOL   H17729295   6.531   1.430   6.900  2.3078 -1.3495 -3.2644
   70MOL   H17829296   6.679   1.341   6.921  0.0870  2.0219  0.1781
   70MOL   H17929297   6.594   1.276   7.159 -1.4015  0.3584  0.3068
   70MOL   H18029298   6.432   1.529   7.109 -2.2833  0.0920  1.8854
   70MOL   H18129299   6.365   1.378   7.078 -2.2039  0.3447  2.8931
   70MOL   H18229300   6.460   1.631   7.313  0.8374 -0.8773  0.0066
   70MOL   H18329301   6.361   1.588   7.457 -1.3192 -0.2141  0.0756
   70MOL   H18429302   6.517   1.526   7.424 -0.1026  2.1819  0.1107
   70MOL   H18529303   6.380   1.288   7.461  0.5060 -0.9378  0.4415
   70MOL   H18629304   6.382   1.204   7.314  1.2346 -0.8542 -0.8175
   70MOL   H18729305   6.532   1.280   7.372 -0.2103 -0.7118 -0.6771
   70MOL   H18829306   6.176   1.507   7.237  0.3225 -1.1849 -1.9591
   70MOL   H18929307   6.171   1.342   7.234  1.5410  0.5975 -1.3054
   70MOL   H19029308   6.183   1.418   7.397  0.8656 -1.0498  0.5817
   70MOL   C19129309   6.680   1.464   7.169 -0.3181  0.2705  0.6958
   70MOL   C19229310   6.833   1.419   7.164 -0.9882  0.6384 -0.7040
   70MOL   C19329311   6.854   1.314   7.274 -0.0706  0.4010  0.0655
   70MOL   C19429312   6.963   1.206   7.250  0.2955 -0.3194 -0.1931
   70MOL   C19529313   6.948   1.124   7.122 -0.5778 -0.6975 -0.0048
   70MOL   C19629314   6.944   1.112   7.371  0.6688  0.2647  0.0311
   70MOL   C19729315   7.112   1.255   7.245  0.3459 -0.2061  0.0912
   70MOL   H19829316   6.664   1.555   7.113 -2.6770  1.0039  2.4587
   70MOL   H19929317   6.663   1.484   7.275  3.0775 -1.9892  1.7847
   70MOL   H20029318   6.851   1.355   7.078  1.4841 -1.7576  1.5277
   70MOL   H20129319   6.763   1.256   7.285  1.0431 -1.6818 -1.3583
   70MOL   H20229320   6.857   1.375   7.364  0.7662  1.7187 -0.8371
   70MOL   H20329321   6.975   1.181   7.034 -0.4782  0.3194  0.6745
   70MOL   H20429322   7.007   1.032   7.119 -0.7981 -0.9120  1.4370
   70MOL   H20529323   6.844   1.091   7.116 -0.7663  0.0898 -0.9490
   70MOL   H20629324   6.950   1.161   7.467  0.2967 -1.2341  0.8317
   70MOL   H20729325   6.859   1.044   7.364  1.5347 -0.6573 -2.2848
   70MOL   H20829326   7.034   1.050   7.369 -0.4660 -1.4632  0.8774
   70MOL   H20929327   7.130   1.314   7.334 -1.6201 -0.6713  0.8265
   70MOL   H21029328   7.179   1.169   7.248 -1.2326 -1.4433  0.4275
   70MOL   H21129329   7.135   1.306   7.151  1.6011 -0.4750  0.2485
   70MOL   C21229330   6.929   1.538   7.170 -0.0627  0.3783 -0.1844
   70MOL   C21329331   6.959   1.621   7.043 -0.0314 -0.4384  0.3035
   70MOL   C21429332   7.096   1.691   7.047 -0.0124 -0.0143 -0.2223
   70MOL   C21529333   7.190   1.623   6.952  0.1636 -0.5433 -0.2038
   70MOL   C21629334   7.229   1.482   6.987  0.1513 -0.2429 -0.2228
   70MOL   C21729335   7.151   1.641   6.807  0.2513  0.8580  0.3118
   70MOL   C21829336   7.315   1.704   6.965  0.2123  0.3702  0.4268
   70MOL   H21929337   6.917   1.601   7.258  0.7083  0.7374 -0.3334
   70MOL   H22029338   7.028   1.501   7.197  0.1960  1.1557 -0.0676
   70MOL   H22129339   6.963   1.545   6.966  1.6060 -0.4391  0.3832
   70MOL   H22229340   7.130   1.688   7.151 -0.2331  0.6917 -0.1292
   70MOL   H22329341   7.085   1.797   7.029 -0.6099 -0.0715 -0.2022
   70MOL   H22429342   7.138   1.423   6.991 -0.3685  0.3458 -2.5144
   70MOL   H22529343   7.290   1.479   7.077  0.7571  1.6032 -0.5391
   70MOL   H22629344   7.299   1.438   6.916  0.2924  0.0200 -0.2505
   70MOL   H22729345   7.053   1.597   6.791  0.3981  1.3296 -2.0135
   70MOL   H22829346   7.135   1.746   6.784 -0.2295  0.7893  0.3271
   70MOL   H22929347   7.229   1.599   6.743  1.2357  0.0602  1.9921
   70MOL   H23029348   7.355   1.702   7.066  4.5765 -2.5891 -1.2518
   70MOL   H23129349   7.308   1.812   6.952  1.5492  0.4887  0.5798
   70MOL   H23229350   7.391   1.679   6.891  0.5958  0.3078  0.8412
   70MOL   C23329351   6.844   1.714   6.985 -0.1857  0.4009 -0.6521
   70MOL   C23429352   6.816   1.848   7.061  0.1644 -0.3645 -0.0725
   70MOL   C23529353   6.794   1.973   6.964  0.2704 -0.2608  0.1860
   70MOL   C23629354   6.912   2.085   6.946  0.1319  0.2715 -0.5768
   70MOL   C23729355   7.031   2.030   6.865  0.0352 -0.7444  0.1633
   70MOL   C23829356   6.845   2.205   6.879 -0.6552  0.3675  0.8369
   70MOL   C23929357   6.972   2.142   7.078 -0.3320 -0.5705 -0.6041
   70MOL   H24029358   6.755   1.659   6.957  1.0479 -2.5779  1.0568
   70MOL   H24129359   6.888   1.755   6.894  2.4904 -1.3243 -0.1805
   70MOL   H24229360   6.902   1.873   7.123  1.0062 -0.2304 -1.2782
   70MOL   H24329361   6.762   1.942   6.864  0.4523  0.6789 -0.1633
   70MOL   H24429362   6.712   2.032   7.003 -0.8827 -2.0243  0.4835
   70MOL   H24529363   7.085   2.118   6.831  0.6460 -0.8067  0.9502
   70MOL   H24629364   7.010   1.973   6.774  0.6479 -1.3407  0.3925
   70MOL   H24729365   7.114   1.974   6.907  2.4945  2.7244  0.1286
   70MOL   H24829366   6.916   2.287   6.873  1.5299 -1.6272 -2.8115
   70MOL   H24929367   6.810   2.186   6.777  1.3208 -0.7196  0.3385
   70MOL   H25029368   6.759   2.249   6.929 -0.8731 -0.7161  1.4518
   70MOL   H25129369   7.032   2.233   7.084  1.6881 -1.8099 -1.5606
   70MOL   H25229370   6.896   2.173   7.149  0.2493  2.1795 -1.1468
   70MOL   H25329371   7.039   2.072   7.128  0.8510 -0.2850 -1.7600
   70MOL   C25429372   6.715   1.826   7.174 -1.2260 -0.5591 -0.2346
   70MOL   C25529373   6.669   1.950   7.263 -0.3515  0.1051 -0.3918
   70MOL   C25629374   6.666   1.910   7.417  0.0669 -0.4695 -0.6058
   70MOL   C25729375   6.794   1.949   7.498  0.0125  0.3904 -0.0144
   70MOL   C25829376   6.784   1.909   7.646  0.7394 -0.7034  0.7702
   70MOL   C25929377   6.825   2.098   7.497  0.2192  0.2425  0.2564
   70MOL   C26029378   6.928   1.886   7.439 -1.0653 -0.1594  0.1934
   70MOL   H26129379   6.739   1.747   7.244  2.3240  0.9510  0.3722
   70MOL   H26229380   6.630   1.778   7.125 -0.3355 -1.3875 -0.9821
   70MOL   H26329381   6.742   2.029   7.244 -0.1180  0.0212  0.1515
   70MOL   H26429382   6.573   1.957   7.449  0.1530 -0.2987 -0.6046
   70MOL   H26529383   6.642   1.804   7.427 -2.5931  0.1953  0.2390
   70MOL   H26629384   6.752   1.806   7.659  2.3661 -1.2762  0.3909
   70MOL   H26729385   6.713   1.966   7.706 -3.0434  0.5182 -4.4729
   70MOL   H26829386   6.879   1.923   7.698 -0.4493  2.9889  2.1135
   70MOL   H26929387   6.732   2.155   7.502 -0.5180 -1.0105  1.1019
   70MOL   H27029388   6.899   2.128   7.423  1.9788 -2.4550  0.8494
   70MOL   H27129389   6.881   2.126   7.587  1.1786 -0.9664  0.0442
   70MOL   H27229390   7.020   1.923   7.483  0.3693 -3.0646 -0.2180
   70MOL   H27329391   6.915   1.779   7.424 -2.7440 -0.3288  2.6366
   70MOL   H27429392   6.941   1.915   7.335  2.7242 -2.1694  0.0161
   70MOL   C27529393   6.530   1.997   7.219  0.1698  0.2144 -0.5595
   70MOL   C27629394   6.498   2.144   7.245  0.2709 -0.5031  0.4138
   70MOL   C27729395   6.574   2.243   7.162 -0.0594 -1.3313 -0.7880
   70MOL   C27829396   6.605   2.384   7.221  0.3917 -0.6192 -0.1028
   70MOL   C27929397   6.705   2.379   7.338 -0.1986 -0.5105 -0.8210
   70MOL   C28029398   6.664   2.474   7.108 -0.1351 -0.4699 -0.6691
   70MOL   C28129399   6.487   2.461   7.267  0.4074 -0.5416  0.2678
   70MOL   H28229400   6.504   1.974   7.116 -3.0381 -0.3419  0.3245
   70MOL   H28329401   6.464   1.929   7.272 -0.0466  0.8237 -0.0523
   70MOL   H28429402   6.527   2.162   7.349  1.3936  2.7633 -0.3890
   70MOL   H28529403   6.520   2.259   7.069 -0.0547 -1.6060 -0.8400
   70MOL   H28629404   6.675   2.215   7.132  0.7832  0.3406  0.4376
   70MOL   H28729405   6.784   2.308   7.315 -0.3760 -0.6817 -0.9042
   70MOL   H28829406   6.746   2.478   7.358 -2.0586  0.2613 -0.7325
   70MOL   H28929407   6.659   2.344   7.430 -0.2297  0.8829 -0.2885
   70MOL   H29029408   6.704   2.569   7.142  0.0733 -0.3369 -1.2771
   70MOL   H29129409   6.603   2.498   7.020 -0.0989 -0.6927 -0.7565
   70MOL   H29229410   6.750   2.429   7.058  0.2824  0.7729 -1.0739
   70MOL   H29329411   6.420   2.486   7.184 -1.5526 -1.8935  1.3882
   70MOL   H29429412   6.525   2.538   7.333 -1.2077 -1.3517  2.2060
   70MOL   H29529413   6.426   2.410   7.341 -0.2504  1.7311  1.3421
   70MOL   C29629414   6.345   2.172   7.224  1.1965 -0.5515 -0.6536
   70MOL   C29729415   6.258   2.102   7.335 -0.5139 -0.2360  0.2024
   70MOL   C29829416   6.118   2.092   7.282  0.1731  0.3253 -0.0172
   70MOL   C29929417   6.071   1.952   7.233  0.9140 -0.4590 -0.6670
   70MOL   C30029418   5.925   1.966   7.167  0.3335 -1.2626  0.4912
   70MOL   C30129419   6.158   1.901   7.112  0.5603  0.7849  0.1242
   70MOL   C30229420   6.052   1.853   7.349 -0.2637  0.0614  0.0846
   70MOL   H30329421   6.317   2.134   7.126  1.8861 -1.8500 -0.3454
   70MOL   H30429422   6.323   2.279   7.226 -3.8158 -1.4538  1.8588
   70MOL   H30529423   6.282   1.997   7.348  1.8254  0.0423 -1.6447
   70MOL   H30629424   6.103   2.172   7.209  1.6842 -1.5710 -2.4812
   70MOL   H30729425   6.042   2.122   7.354 -0.5214 -0.6268 -0.3439
   70MOL   H30829426   5.925   2.017   7.071  2.4646 -0.8532  0.6861
   70MOL   H30929427   5.878   1.871   7.142 -1.1499 -0.2989 -0.5057
   70MOL   H31029428   5.846   2.000   7.234 -1.2780  0.7338 -2.2951
   70MOL   H31129429   6.155   1.964   7.023  0.1470 -2.0211 -1.9100
   70MOL   H31229430   6.261   1.893   7.145  0.0725  1.3123  1.8409
   70MOL   H31329431   6.120   1.811   7.064 -0.8125  1.4426 -0.0543
   70MOL   H31429432   5.988   1.895   7.427  3.3784  0.2299  3.1814
   70MOL   H31529433   6.013   1.764   7.300  0.9476  0.1989 -1.1498
   70MOL   H31629434   6.149   1.823   7.390  0.8180  0.2019 -2.3094
   70MOL   C31729435   6.267   2.183   7.467 -0.1767 -0.7249  1.0199
   70MOL   C31829436   6.257   2.116   7.610  0.6426  0.2974 -0.3875
   70MOL   C31929437   6.354   1.998   7.632 -0.0201 -0.2829  0.6930
   70MOL   C32029438   6.319   1.877   7.728 -0.2801  0.3084  0.2623
   70MOL   C32129439   6.292   1.926   0.106  0.2821  0.1460 -0.0599
   70MOL   C32229440   6.434   1.776   7.729  0.5235  0.3100 -0.4805
   70MOL   C32329441   6.203   1.794   7.681 -0.3536 -0.3091  0.0505
   70MOL   H32429442   6.369   2.219   7.474  0.5513 -2.6070  0.4754
   70MOL   H32529443   6.203   2.270   7.453 -1.7013 -2.0217 -0.2527
   70MOL   H32629444   6.158   2.069   7.604  0.4932  0.4497  0.6736
   70MOL   H32729445   6.442   2.043   7.678  0.2063 -0.6476  0.6190
   70MOL   H32829446   6.387   1.941   7.545 -2.1372 -1.0572  0.3735
   70MOL   H32929447   6.375   1.994   0.126 -1.3310  2.0381  0.3292
   70MOL   H33029448   6.281   1.846   0.179  1.2023  1.0591  1.0930
   70MOL   H33129449   6.196   1.977   0.110 -1.6095 -3.3384  1.4443
   70MOL   H33229450   6.436   1.716   7.638  1.0580 -0.8280  0.2851
   70MOL   H33329451   6.526   1.834   7.725  0.7471  0.2191  2.4400
   70MOL   H33429452   6.428   1.700   0.040 -1.1446 -0.0811 -0.9743
   70MOL   H33529453   6.110   1.849   7.663 -0.3967 -0.2208  0.5527
   70MOL   H33629454   6.179   1.709   7.745 -1.9375  2.7459  3.6874
   70MOL   H33729455   6.223   1.736   7.591  2.5287  0.7560 -0.0406
   70MOL   C33829456   6.267   2.212   7.729  0.0301  0.0107  0.5832
   70MOL   C33929457   6.217   2.358   7.709  0.0688  0.4183  0.3168
   70MOL   C34029458   6.278   2.453   0.049  0.1813 -0.1043  0.3146
   70MOL   C34129459   6.402   2.524   7.766 -0.3892 -0.5256 -0.2947
   70MOL   C34229460   6.374   2.625   7.657 -0.5217 -0.6301  1.0252
   70MOL   C34329461   6.468   2.590   0.127 -0.1067  0.2067  0.7868
   70MOL   C34429462   6.503   2.424   7.719  0.2803  0.5820 -0.5625
   70MOL   H34529463   6.372   2.212   7.760  0.5128 -2.8247 -0.8113
   70MOL   H34629464   6.205   2.181   0.047 -0.7354  1.2261  0.4702
   70MOL   H34729465   6.245   2.400   7.612 -0.9233 -0.1798 -0.2469
   70MOL   H34829466   6.313   2.401   0.138  0.8120 -2.9934 -1.5517
   70MOL   H34929467   6.204   2.519   0.094 -0.1486  0.2408 -0.7190
   70MOL   H35029468   6.380   2.575   7.561 -3.0791 -1.1200  1.0997
   70MOL   H35129469   6.274   2.666   7.673 -0.5885 -0.6181  0.5894
   70MOL   H35229470   6.451   2.703   7.654 -0.2933 -0.9159 -1.3732
   70MOL   H35329471   6.555   2.654   0.111 -0.3125  0.1756 -0.5248
   70MOL   H35429472   6.400   2.652   0.185 -1.2692 -0.1067 -0.2218
   70MOL   H35529473   6.505   2.504   0.182 -1.9571 -1.5123 -0.5778
   70MOL   H35629474   6.532   2.358   0.034  0.3858  1.1480 -0.1385
   70MOL   H35729475   6.468   2.360   7.637 -0.7433  0.2043  0.1561
   70MOL   H35829476   6.582   2.482   7.671 -0.3709  3.5183  1.7464
   70MOL   C35929477   6.064   2.346   7.711 -0.4899  0.0017 -0.4406
   70MOL   C36029478   5.982   2.472   7.667 -0.1837 -0.4659 -0.5568
   70MOL   C36129479   5.832   2.474   7.737 -0.5870 -0.3615 -0.2399
   70MOL   C36229480   5.785   2.569   0.088 -0.1018  0.1240  0.1193
   70MOL   C36329481   5.837   2.712   0.069 -0.5995  0.0001 -0.5796
   70MOL   C36429482   5.848   2.519   0.217 -0.1063  0.4613 -0.9022
   70MOL   C36529483   5.631   2.569   0.098 -0.4738 -0.7094 -0.1743
   70MOL   H36629484   6.044   2.311   0.047 -0.1493  0.4294 -0.2279
   70MOL   H36729485   6.031   2.265   7.646 -0.2381 -0.4283 -0.0394
   70MOL   H36829486   6.033   2.566   7.687 -1.1017 -0.3450  1.3686
   70MOL   H36929487   5.763   2.503   7.659  1.4413  2.0503 -1.2075
   70MOL   H37029488   5.804   2.369   7.751  1.9883 -1.2394 -1.1810
   70MOL   H37129489   5.797   2.763   0.157  1.8715 -0.3081  0.7638
   70MOL   H37229490   5.945   2.723   0.070 -0.5161 -0.7972 -0.2502
   70MOL   H37329491   5.797   2.761   7.746 -1.8653  1.0826  0.5530
   70MOL   H37429492   5.824   2.589   0.297 -2.5187 -1.3564  0.0531
   70MOL   H37529493   5.956   2.509   0.203 -0.4956 -1.9865 -2.4440
   70MOL   H37629494   5.813   2.419   0.244 -0.8298  1.3098  1.4971
   70MOL   H37729495   5.603   2.465   0.116 -0.4258 -0.5081  1.0731
   70MOL   H37829496   5.595   2.610   0.003  1.1803  0.9720 -0.1052
   70MOL   H37929497   5.605   2.643   0.174  2.3576  1.2539 -1.0178
   70MOL   C38029498   5.956   2.460   7.517 -0.0022  0.0490  0.4427
   70MOL   C38129499   5.888   2.585   7.455 -0.0386 -0.1946  0.4671
   70MOL   C38229500   5.833   2.538   7.314  0.4593 -0.3769  0.1880
   70MOL   C38329501   5.689   2.480   7.297  0.5431  0.0248 -0.8530
   70MOL   C38429502   5.661   2.463   7.146  0.5303  0.7861 -0.4169
   70MOL   C38529503   5.589   2.582   7.357 -0.5591 -0.3112  0.0640
   70MOL   C38629504   5.671   2.346   7.364 -0.4446  0.3013 -1.0523
   70MOL   H38729505   5.893   2.372   7.500  0.8738 -0.7096  1.0369
   70MOL   H38829506   6.053   2.444   7.469  0.6505  1.7963  1.1621
   70MOL   H38929507   5.796   2.624   7.498 -0.9080 -1.0544 -0.5686
   70MOL   H39029508   5.833   2.625   7.249  0.6023 -0.9945 -0.6588
   70MOL   H39129509   5.894   2.465   7.261  1.6330  1.1872 -0.6483
   70MOL   H39229510   5.750   2.445   7.088  0.7631 -2.4274  0.8673
   70MOL   H39329511   5.577   2.399   7.118 -0.2384  0.7872  1.7176
   70MOL   H39429512   5.638   2.561   7.103  0.8420  0.3224 -1.6291
   70MOL   H39529513   5.602   2.679   7.310  2.4434 -1.3357 -1.3255
   70MOL   H39629514   5.598   2.598   7.465 -3.6183 -2.3044  0.6879
   70MOL   H39729515   5.486   2.554   7.335 -1.2809  1.6521  0.7800
   70MOL   H39829516   5.714   2.259   7.315 -0.0393 -0.4499  0.6291
   70MOL   H39929517   5.565   2.319   7.363 -0.2704 -0.9096  3.4865
   70MOL   H40029518   5.693   2.330   7.469 -1.3940 -0.7784 -1.0027
   70MOL   C40129519   5.988   2.700   7.425  0.3617 -0.2033  0.7360
   70MOL   C40229520   6.025   2.818   7.526 -0.6213  0.0783 -0.5431
   70MOL   C40329521   6.156   2.901   7.483  0.8783 -0.9729  0.0206
   70MOL   C40429522   6.196   3.024   7.565 -0.0257  0.3468  0.1065
   70MOL   C40529523   6.194   2.988   7.721 -0.2852 -0.1981  0.8243
   70MOL   C40629524   6.102   3.133   7.535  0.1584 -0.0754  0.1569
   70MOL   C40729525   6.339   3.067   7.525  0.2754 -0.3113  0.2955
   70MOL   H40829526   6.084   2.669   7.383  0.0798  0.2944 -0.3121
   70MOL   H40929527   5.945   2.763   7.347  1.1329  0.1151  0.5673
   70MOL   H41029528   5.937   2.880   7.541 -2.5800 -2.8612  0.5336
   70MOL   H41129529   6.140   2.920   7.377  3.9893 -1.9836 -0.6663
   70MOL   H41229530   6.239   2.833   7.496  0.7632 -0.7154  2.5087
   70MOL   H41329531   6.249   3.061   0.015  2.8066 -0.6558 -1.3276
   70MOL   H41429532   6.231   2.888   7.743  1.6425  0.4217  0.5159
   70MOL   H41529533   6.090   2.980   7.754  0.4399 -0.8406  3.0424
   70MOL   H41629534   6.101   3.137   7.426  0.2896 -2.6334  0.0297
   70MOL   H41729535   6.130   3.233   7.566  0.4310  0.4760 -1.7827
   70MOL   H41829536   6.004   3.118   7.581 -0.3147  2.6444  0.1265
   70MOL   H41929537   6.408   2.982   7.527 -0.0617 -0.5725  1.1973
   70MOL   H42029538   6.339   3.105   7.423 -0.0764 -2.0933 -0.3983
   70MOL   H42129539   6.385   3.142   7.589  0.6159  1.6712 -2.1905
   70MOL   H42229540   6.046   2.768   7.620 -1.3276  2.3931  0.8822
   71MOL     C129541   7.145   5.625   6.885 -0.0518  0.0172 -0.1049
   71MOL     C229542   7.231   5.498   6.880  0.8881  0.3180 -0.4491
   71MOL     C329543   7.228   5.448   7.030 -0.0077 -0.5646 -0.2937
   71MOL     C429544   7.203   5.298   7.053 -0.0066  0.2577  0.6972
   71MOL     C529545   7.209   5.250   7.198  0.0295 -0.1403  0.6019
   71MOL     C629546   7.061   5.251   7.000  0.1203 -1.0506  0.0383
   71MOL     C729547   7.318   5.220   6.984  0.3458 -0.5442  0.1830
   71MOL     H829548   7.047   5.584   6.912 -0.6989  1.5258 -0.1162
   71MOL     H929549   7.181   5.705   6.950  0.3432 -1.1058  1.0898
   71MOL    H1029550   7.184   5.422   6.817  0.0185  0.6478 -0.1948
   71MOL    H1129551   7.151   5.496   7.090 -0.1999 -0.5660 -0.5404
   71MOL    H1229552   7.325   5.479   7.070 -0.1619  2.0668 -1.8477
   71MOL    H1329553   7.117   5.281   7.246 -0.0345  2.8887 -1.2959
   71MOL    H1429554   7.299   5.288   7.247 -0.2311  1.0065  0.2102
   71MOL    H1529555   7.199   5.142   7.210 -0.6278 -0.1541 -0.0537
   71MOL    H1629556   6.983   5.327   7.006  0.8038 -0.3083 -0.4072
   71MOL    H1729557   7.062   5.221   6.895  0.2512  1.5398 -0.7335
   71MOL    H1829558   7.020   5.160   7.044 -1.3252 -0.3370  0.2134
   71MOL    H1929559   7.418   5.261   7.002  0.6375 -0.3765 -1.7034
   71MOL    H2029560   7.304   5.235   6.877  0.5773  0.8938  0.3384
   71MOL    H2129561   7.328   5.113   7.002 -1.6159 -0.7948 -0.1168
   71MOL    H2229562   7.145   5.675   6.788  1.9791 -0.5391 -0.4079
   71MOL    C2329563   7.375   5.528   6.830 -0.1019 -0.2628  0.8418
   71MOL    C2429564   7.395   5.575   6.682  0.8668  0.1845 -0.4246
   71MOL    C2529565   7.366   5.731   6.671  0.3425 -0.2684 -0.0925
   71MOL    C2629566   7.478   5.812   6.600  0.0707 -0.3721 -0.5978
   71MOL    C2729567   7.617   5.797   6.669  0.1874  0.3997  0.5094
   71MOL    C2829568   7.505   5.776   6.459  0.0025 -0.4882 -0.2078
   71MOL    C2929569   7.437   5.962   6.617  0.3680  0.4676 -0.1848
   71MOL    H3029570   7.433   5.590   6.898  0.2854 -0.6371  0.8570
   71MOL    H3129571   7.427   5.434   6.852  0.0168 -0.1789  0.9168
   71MOL    H3229572   7.497   5.545   6.657  1.0637  0.0364  0.5473
   71MOL    H3329573   7.354   5.771   6.772  0.9648 -1.0108  0.2790
   71MOL    H3429574   7.270   5.751   6.624  0.5128  1.2806  0.1945
   71MOL    H3529575   7.663   5.698   6.667 -1.1130 -0.2036 -0.1486
   71MOL    H3629576   7.694   5.856   6.619  0.3431 -0.5757 -0.4213
   71MOL    H3729577   7.608   5.821   6.775 -0.2566 -0.8042  0.7556
   71MOL    H3829578   7.553   5.678   6.458  0.4875 -0.2637  0.6115
   71MOL    H3929579   7.411   5.774   6.404  1.1301 -2.8413 -2.1234
   71MOL    H4029580   7.570   5.852   6.416 -0.2775  1.3361  2.4549
   71MOL    H4129581   7.434   5.976   6.725  0.3462 -0.0362 -0.1204
   71MOL    H4229582   7.343   5.995   6.571  0.7602  1.5082 -0.2507
   71MOL    H4329583   7.512   6.030   6.577 -2.2617  1.0160 -4.6313
   71MOL    C4429584   7.323   5.490   6.570  0.6619  0.2313  0.5150
   71MOL    C4529585   7.365   5.332   6.559 -0.5423 -0.1777  0.3595
   71MOL    C4629586   7.506   5.314   6.501  0.0972  0.4122 -0.4931
   71MOL    C4729587   7.621   5.247   6.583  0.1719 -0.3599 -0.0738
   71MOL    C4829588   7.742   5.251   6.489 -0.3439 -0.1489 -0.3607
   71MOL    C4929589   7.587   5.094   6.615 -0.6937 -0.4659  0.6347
   71MOL    C5029590   7.657   5.316   6.707 -0.2156 -0.4086  0.3181
   71MOL    H5129591   7.215   5.500   6.574  0.2848 -3.0913 -0.0148
   71MOL    H5229592   7.341   5.536   6.473 -1.2820  0.4685  0.2411
   71MOL    H5329593   7.365   5.295   6.661  0.0323  0.2104  0.5098
   71MOL    H5429594   7.539   5.413   6.469 -0.5408  0.7684 -0.0793
   71MOL    H5529595   7.511   5.252   6.412  0.0929 -2.1476  1.2286
   71MOL    H5629596   0.068   5.203   6.523  0.2545  1.9564  1.1026
   71MOL    H5729597   7.760   5.355   6.461  0.8534 -0.0746  0.6276
   71MOL    H5829598   7.720   5.189   6.402  0.5392  2.3681 -2.4678
   71MOL    H5929599   7.490   5.086   6.665 -0.3141  2.0252  1.8474
   71MOL    H6029600   7.585   5.031   6.526 -0.9049  0.5102 -0.0579
   71MOL    H6129601   7.656   5.051   6.688 -0.1916  0.5827  0.7812
   71MOL    H6229602   7.746   5.274   6.754  0.3638  1.3852  0.8742
   71MOL    H6329603   7.681   5.421   6.692 -1.6914  0.2388  2.2974
   71MOL    H6429604   7.570   5.319   6.772  0.8038  0.6738  1.6691
   71MOL    C6529605   7.258   5.267   6.466  0.3794  0.6385 -0.2231
   71MOL    C6629606   7.256   5.114   6.451 -0.3392 -0.0360  0.0711
   71MOL    C6729607   7.182   5.054   6.327 -0.4128 -0.8974  0.2561
   71MOL    C6829608   7.260   5.053   6.196  0.2985 -0.4321 -0.7996
   71MOL    C6929609   7.381   4.969   6.209  0.2686 -0.1150 -0.9531
   71MOL    C7029610   7.176   4.986   6.091 -0.1388  0.5930 -0.2878
   71MOL    C7129611   7.311   5.191   6.142 -0.0284 -0.0332 -0.1506
   71MOL    H7229612   7.163   5.297   6.510  0.4361  0.4524  0.0205
   71MOL    H7329613   7.244   5.319   6.371 -1.0274  0.2171 -0.2495
   71MOL    H7429614   7.355   5.068   6.458 -1.2788 -2.2312 -0.6015
   71MOL    H7529615   7.100   5.122   6.308  1.7762  1.8865  0.3419
   71MOL    H7629616   7.131   4.959   6.343  0.4178 -2.0592 -3.4393
   71MOL    H7729617   7.366   4.870   6.252  0.1416  0.2666 -0.1150
   71MOL    H7829618   7.432   4.960   6.113 -1.5531  2.1329 -2.1932
   71MOL    H7929619   7.457   5.011   6.275  1.4963 -3.2928 -0.2690
   71MOL    H8029620   7.140   4.891   6.133 -0.9940  1.5992  1.3067
   71MOL    H8129621   7.231   4.968   5.999  1.3622 -2.7676  1.1923
   71MOL    H8229622   7.086   5.044   6.069  0.5099  1.4966 -0.5492
   71MOL    H8329623   7.349   5.198   6.040  2.0698 -2.6811  0.3597
   71MOL    H8429624   7.398   5.227   6.198  0.7982 -0.3970 -1.1754
   71MOL    H8529625   7.239   5.271   6.150 -0.3137 -0.3090  0.0295
   71MOL    C8629626   7.191   5.060   6.581  0.6548 -0.2216 -0.1291
   71MOL    C8729627   7.174   4.909   6.615  0.5163 -0.7970  0.0899
   71MOL    C8829628   7.103   4.886   6.752 -0.6735 -0.6794 -0.1516
   71MOL    C8929629   6.954   4.846   6.751 -0.0001  0.1315 -0.5817
   71MOL    C9029630   6.868   4.931   6.649 -0.7480 -0.3289 -0.0967
   71MOL    C9129631   6.893   4.864   6.889  1.0428  0.2612 -0.2419
   71MOL    C9229632   6.950   4.696   6.724  0.2718  0.1401  0.0707
   71MOL    H9329633   7.090   5.101   6.588  0.6059 -0.4138  0.3295
   71MOL    H9429634   7.253   5.095   6.664 -2.1557 -0.0093  1.9604
   71MOL    H9529635   7.114   4.859   6.539  1.5373 -0.0671 -1.2187
   71MOL    H9629636   7.110   4.978   6.811 -3.0945 -0.4525 -0.1664
   71MOL    H9729637   7.157   4.811   6.809 -2.7930 -2.5084 -0.5072
   71MOL    H9829638   6.764   4.900   6.638 -1.0942 -0.0215  2.2233
   71MOL    H9929639   6.903   4.919   6.546 -0.7607  3.6896 -0.6639
   71MOL   H10029640   6.885   5.037   6.669  1.3071 -0.4143 -1.2447
   71MOL   H10129641   6.960   4.807   6.954  0.4350  2.7561  2.6881
   71MOL   H10229642   6.903   4.965   6.929  0.4295  0.3656 -0.3464
   71MOL   H10329643   6.793   4.826   6.909  0.9575  0.4923 -0.2340
   71MOL   H10429644   7.005   4.672   6.632  2.9182  3.2473  0.7629
   71MOL   H10529645   6.994   4.636   6.804  0.0954  1.1507  0.9207
   71MOL   H10629646   6.847   4.662   6.719 -0.0681  1.1110  0.5974
   71MOL   C10729647   7.319   4.843   6.627  0.2735  0.4104 -0.2366
   71MOL   C10829648   7.334   4.691   6.596  0.3259  0.1468 -0.4207
   71MOL   C10929649   7.337   4.669   6.444 -0.3204  0.0636 -0.0106
   71MOL   C11029650   7.281   4.533   6.393  0.0376  0.5031 -0.1313
   71MOL   C11129651   7.330   4.398   6.463  0.6650  0.0147  0.4219
   71MOL   C11229652   7.321   4.522   6.242  0.7261  0.7666  0.1958
   71MOL   C11329653   7.127   4.515   6.396 -0.4830  0.1844 -0.5947
   71MOL   H11429654   7.344   4.863   6.731  1.2105 -2.1050  0.0499
   71MOL   H11529655   7.392   4.890   6.562  1.1857 -0.2797  0.2792
   71MOL   H11629656   7.249   4.634   6.633 -0.0045  1.3059  0.6595
   71MOL   H11729657   7.281   4.750   6.398 -2.8411 -1.0185  1.0388
   71MOL   H11829658   7.440   4.679   6.409 -1.1626  1.4032 -2.2157
   71MOL   H11929659   7.309   4.305   6.411  0.8131  1.0008 -1.4090
   71MOL   H12029660   7.438   4.406   6.469  0.5488  2.1373 -0.0240
   71MOL   H12129661   7.298   4.383   6.567  1.1285 -0.8494  0.4399
   71MOL   H12229662   7.279   4.609   6.191 -0.8201 -0.7512 -1.2092
   71MOL   H12329663   7.279   4.437   6.188  0.3260  1.7775 -1.1351
   71MOL   H12429664   7.429   4.520   6.228  1.0753 -4.0865  2.5455
   71MOL   H12529665   7.102   4.430   6.333  0.5879 -0.3058 -0.3680
   71MOL   H12629666   7.066   4.599   6.361 -2.4969 -1.4098 -0.9490
   71MOL   H12729667   7.092   4.476   6.491 -1.4313 -4.1549 -2.6047
   71MOL   C12829668   7.465   4.635   6.655  0.4019  0.2127  0.1177
   71MOL   C12929669   7.489   4.659   6.813 -0.2355 -0.1784 -0.4539
   71MOL   C13029670   7.368   4.621   6.907  0.4965  0.3350 -0.5589
   71MOL   C13129671   7.358   4.642   7.059 -0.1730 -0.1330  0.3123
   71MOL   C13229672   7.406   4.780   7.114  0.7085  1.0694  0.3935
   71MOL   C13329673   7.433   4.526   7.133 -0.3317  0.7317  0.2864
   71MOL   C13429674   7.209   4.632   7.105  0.1580  0.0875  0.0589
   71MOL   H13529675   7.544   4.688   6.602  0.8853  1.6690  2.2478
   71MOL   H13629676   7.468   4.527   6.641 -0.6572  0.4953 -2.5262
   71MOL   H13729677   7.502   4.767   6.822 -0.4917 -0.2631  1.0161
   71MOL   H13829678   7.271   4.653   6.869  0.2971  1.7535  1.0965
   71MOL   H13929679   7.356   4.512   6.905  1.7213  0.2029 -0.8499
   71MOL   H14029680   7.356   4.860   7.061 -1.1663 -0.3677 -0.0381
   71MOL   H14129681   7.515   4.776   7.117  0.6669 -1.2435 -0.0766
   71MOL   H14229682   7.377   4.791   7.219 -2.4506 -1.8927 -0.0892
   71MOL   H14329683   7.541   4.515   7.135 -0.5303 -1.5624 -0.4688
   71MOL   H14429684   7.395   4.428   7.105 -1.7488  1.4934 -0.5262
   71MOL   H14529685   7.415   4.535   7.240  2.1941  0.4627  0.7475
   71MOL   H14629686   7.150   4.716   7.066  0.0579  0.4687  1.0191
   71MOL   H14729687   7.148   4.549   7.069  0.5428 -0.1201 -0.1118
   71MOL   H14829688   7.200   4.637   7.213 -1.5484  0.8472 -0.0946
   71MOL   C14929689   7.620   4.595   6.860 -0.2013 -0.1605  0.7977
   71MOL   C15029690   7.664   4.443   6.832  0.3467 -0.2173 -0.8169
   71MOL   C15129691   0.023   4.406   6.929 -0.7557 -0.1074 -0.1080
   71MOL   C15229692   0.149   4.488   6.928 -0.1877  0.4707 -0.2088
   71MOL   C15329693   0.246   4.428   7.034  0.0003  0.3530 -0.5983
   71MOL   C15429694   0.128   4.634   6.983  0.1027 -0.0464 -0.3960
   71MOL   C15529695   0.219   4.492   6.788  0.1742 -0.0301  0.0366
   71MOL   H15629696   7.636   4.621   6.964 -0.3543  0.9243  0.5487
   71MOL   H15729697   7.688   4.663   6.808 -2.2495  0.3005 -1.3569
   71MOL   H15829698   7.692   4.440   6.727  1.1865  0.8364 -0.6370
   71MOL   H15929699   0.054   4.305   6.901 -3.0578 -0.7835 -0.2904
   71MOL   H16029700   7.741   4.399   7.026 -1.7811 -2.5209 -0.7516
   71MOL   H16129701   0.272   4.323   7.022  2.5101  0.9585 -0.7137
   71MOL   H16229702   0.345   4.474   7.031  0.4996 -0.4786  2.0240
   71MOL   H16329703   0.206   4.455   7.132  1.9361  3.7942 -0.6995
   71MOL   H16429704   0.224   4.672   7.017  0.3429 -0.2308 -0.8782
   71MOL   H16529705   0.060   4.642   7.068 -0.0075  0.1424 -0.5005
   71MOL   H16629706   0.117   4.713   6.909  1.9939  0.4316 -0.1782
   71MOL   H16729707   0.159   4.550   6.718  2.2875  0.5010 -1.3999
   71MOL   H16829708   0.313   4.548   6.782  0.8602 -1.1976 -0.1433
   71MOL   H16929709   0.241   4.395   6.743  1.4969  0.1697  0.2148
   71MOL   C17029710   7.551   4.334   6.840 -0.0264  0.1593  0.3505
   71MOL   C17129711   7.583   4.185   6.810  0.0087  1.3763  0.2341
   71MOL   C17229712   7.553   4.142   6.661  0.2464 -0.3819  0.0928
   71MOL   C17329713   7.663   4.121   6.553 -0.5987  0.5439 -0.2632
   71MOL   C17429714   7.604   4.063   6.429 -0.1833 -0.1126  0.4789
   71MOL   C17529715   0.003   4.021   6.604 -0.3725 -0.3812 -0.3230
   71MOL   C17629716   7.732   4.258   6.526 -0.6826  0.2663 -0.3030
   71MOL   H17729717   7.462   4.363   6.783 -0.0203 -0.4542  0.0282
   71MOL   H17829718   7.525   4.346   6.945 -1.0466  3.2180 -0.1905
   71MOL   H17929719   7.689   4.168   6.829 -0.5361 -2.3931  0.1854
   71MOL   H18029720   7.511   4.042   6.662  1.0851 -0.7737 -1.4431
   71MOL   H18129721   7.490   4.221   6.621 -0.4306  1.3649  4.2894
   71MOL   H18229722   7.551   3.968   6.438  1.7361 -1.3201 -0.4559
   71MOL   H18329723   7.521   4.120   6.387  0.4515  0.0542 -0.5786
   71MOL   H18429724   7.680   4.053   6.351 -1.2660 -0.5085 -0.5495
   71MOL   H18529725   0.056   4.052   6.694 -0.7033 -0.8649  0.0441
   71MOL   H18629726   7.740   3.916   6.607  2.5703 -1.2301 -0.3771
   71MOL   H18729727   0.089   4.031   6.538  1.9852 -0.8287  2.5863
   71MOL   H18829728   0.035   4.255   6.442 -0.0519  2.2083  0.1157
   71MOL   H18929729   7.656   4.335   6.515 -0.5262  0.3732 -0.6291
   71MOL   H19029730   0.028   4.277   6.614 -0.8789 -1.2412  0.1840
   71MOL   C19129731   7.514   4.082   6.917  0.1154 -0.2308 -0.4997
   71MOL   C19229732   7.365   4.042   6.908 -0.0341 -0.1157  0.1777
   71MOL   C19329733   7.265   4.162   6.912 -0.2257  0.3598  0.2995
   71MOL   C19429734   7.142   4.165   6.814  0.1353  0.5114 -0.6462
   71MOL   C19529735   7.094   4.311   6.810 -0.0494 -0.0237  0.1234
   71MOL   C19629736   7.022   4.084   6.882  0.1667  0.4272 -0.1626
   71MOL   C19729737   7.167   4.119   6.673  0.4402 -0.6377 -0.2685
   71MOL   H19829738   7.574   3.991   6.908 -1.1244 -0.9491 -1.6465
   71MOL   H19929739   7.546   4.122   7.014  0.2843  1.6149 -1.2955
   71MOL   H20029740   7.353   3.996   6.810 -1.0379 -0.2069  0.3376
   71MOL   H20129741   7.327   4.249   6.889 -2.1531  1.6607 -0.2055
   71MOL   H20229742   7.238   4.172   7.017 -0.4577  1.7873  0.1193
   71MOL   H20329743   7.050   4.339   6.906 -0.4743 -2.6000  0.7324
   71MOL   H20429744   7.161   4.391   6.780 -2.5559  2.3556  0.7021
   71MOL   H20529745   7.007   4.313   6.745 -0.6178 -1.0425  0.8226
   71MOL   H20629746   7.028   3.975   6.874  2.7016  0.3067  2.5854
   71MOL   H20729747   7.012   4.119   6.985  1.2282  0.6914 -0.1487
   71MOL   H20829748   6.928   4.113   6.836  0.3689  1.0152 -0.2116
   71MOL   H20929749   7.168   4.010   6.675 -0.5853 -0.6516  2.0895
   71MOL   H21029750   7.085   4.143   6.606 -0.7537 -1.9199  0.6850
   71MOL   H21129751   7.266   4.156   6.646  1.1352 -1.7971  0.5832
   71MOL   C21229752   7.334   3.935   7.018  0.0419 -0.4020  0.4128
   71MOL   C21329753   7.356   3.790   6.972 -0.7467 -0.2163 -0.1783
   71MOL   C21429754   7.254   3.753   6.857 -0.7245  0.4703 -0.5659
   71MOL   C21529755   7.308   3.671   6.738  0.6020  0.0851  0.1116
   71MOL   C21629756   7.380   3.538   6.778 -0.1172 -0.7350 -0.5146
   71MOL   C21729757   7.193   3.632   6.641  0.1754 -0.7189  0.5971
   71MOL   C21829758   7.409   3.752   6.656  0.1140 -0.3393  0.0402
   71MOL   H21929759   7.397   3.953   7.105 -0.9429 -1.8522  1.4509
   71MOL   H22029760   7.230   3.951   7.048  0.2206  0.5312  0.5381
   71MOL   H22129761   7.447   3.810   6.916 -1.7519  1.9970 -1.1002
   71MOL   H22229762   7.207   3.848   6.830 -1.3711  0.2835 -0.1221
   71MOL   H22329763   7.169   3.695   6.896 -0.6675 -0.4092 -1.7143
   71MOL   H22429764   7.317   3.480   6.846 -0.0639 -0.7631 -0.4904
   71MOL   H22529765   7.475   3.552   6.830  0.7741 -1.4324 -1.9421
   71MOL   H22629766   7.413   3.477   6.694  0.0872 -1.8579  0.3631
   71MOL   H22729767   7.157   3.723   6.593  0.4137  0.1306  1.9976
   71MOL   H22829768   7.219   3.567   6.557  1.4079 -0.9889  1.1763
   71MOL   H22929769   7.101   3.599   6.689 -2.3065  4.8959  0.2066
   71MOL   H23029770   7.493   3.785   6.717 -0.8594 -1.3386  1.9458
   71MOL   H23129771   7.370   3.843   6.611  1.4788 -0.3696 -1.2332
   71MOL   H23229772   7.449   3.693   6.573 -3.4907  0.7234 -2.5723
   71MOL   C23329773   7.375   3.684   7.080 -0.1293 -0.1859  0.0131
   71MOL   C23429774   7.509   3.688   7.153  0.6946 -0.8734  0.2850
   71MOL   C23529775   7.503   3.634   7.295 -0.7263  0.4681  0.0908
   71MOL   C23629776   7.493   3.723   7.421  0.4035  0.0660  0.5162
   71MOL   C23729777   7.354   3.792   7.428 -0.1612  0.6102 -0.0748
   71MOL   C23829778   7.503   3.631   7.549 -0.7578 -0.3406  0.1299
   71MOL   C23929779   7.604   3.830   7.425  0.0080 -0.4962 -0.2154
   71MOL   H24029780   7.368   3.580   7.047  1.1470 -0.5726  0.9088
   71MOL   H24129781   7.300   3.704   7.156 -0.4451  0.1288 -0.3821
   71MOL   H24229782   7.542   3.792   7.158 -1.0447 -0.3915  2.1782
   71MOL   H24329783   7.434   3.549   7.304  0.1755 -0.3081 -0.1857
   71MOL   H24429784   7.600   3.588   7.316 -0.5979  1.1458  1.0126
   71MOL   H24529785   7.271   3.725   7.408 -0.8776  0.5163  2.9204
   71MOL   H24629786   7.359   3.869   7.351  1.1414  0.8821  0.2748
   71MOL   H24729787   7.338   3.826   7.531  0.7186  0.5012  0.0991
   71MOL   H24829788   7.432   3.548   7.550  1.0996 -1.9974 -1.2671
   71MOL   H24929789   7.601   3.583   7.559  0.3965  1.8004 -0.5769
   71MOL   H25029790   7.499   3.684   7.643  1.5170 -0.9707  0.6163
   71MOL   H25129791   7.606   3.883   7.520 -1.9867 -0.0310 -0.4150
   71MOL   H25229792   7.702   3.782   7.420  1.1203  1.5958  0.6592
   71MOL   H25329793   7.601   3.906   7.348  1.4522 -0.1406  0.0606
   71MOL   C25429794   7.628   3.620   7.073  0.6296 -0.7518 -0.5372
   71MOL   C25529795   0.010   3.662   7.107  0.0308 -0.2719 -0.1288
   71MOL   C25629796   0.045   3.807   7.058  0.1614  0.1147 -0.0061
   71MOL   C25729797   0.188   3.860   7.090 -0.4106 -0.3413  0.6994
   71MOL   C25829798   0.231   3.844   7.245  0.4218 -0.2962 -0.2604
   71MOL   C25929799   0.186   4.015   7.077 -0.3145  0.0126 -0.3639
   71MOL   C26029800   0.289   3.814   6.987 -0.9046  0.3561  1.0885
   71MOL   H26129801   7.613   3.651   6.970  1.1074  0.0194 -0.3827
   71MOL   H26229802   7.614   3.513   7.084 -1.0165 -0.3689  1.3881
   71MOL   H26329803   0.014   3.669   7.216 -1.5803  2.7975 -0.1957
   71MOL   H26429804   0.022   3.811   6.951 -1.3501 -1.3124  0.2422
   71MOL   H26529805   7.736   3.870   7.107 -1.4797 -2.8685  1.4659
   71MOL   H26629806   0.325   3.898   7.251 -0.2161  0.8372 -0.3028
   71MOL   H26729807   0.253   3.742   7.276  0.0260 -0.4449 -0.4622
   71MOL   H26829808   0.154   3.886   7.311  1.4045  1.6371 -0.3346
   71MOL   H26929809   0.144   4.042   6.981 -3.9718  0.3581  1.2401
   71MOL   H27029810   0.287   4.055   7.084 -0.9285  1.5518  0.0722
   71MOL   H27129811   0.120   4.060   7.152  0.0447 -0.9417  0.5357
   71MOL   H27229812   0.307   3.709   6.964 -0.1322  0.3513  1.7166
   71MOL   H27329813   0.264   3.864   6.893 -1.1587 -1.5456  0.1166
   71MOL   H27429814   0.385   3.852   7.021  0.0764 -0.5109 -0.6475
   71MOL   C27529815   0.094   3.543   7.054 -0.1230  0.0780  0.0575
   71MOL   C27629816   0.091   3.413   7.137  0.1389  0.1627  0.1409
   71MOL   C27729817   0.112   3.281   7.055 -0.4026  1.0835 -0.0845
   71MOL   C27829818   7.758   3.219   6.974 -0.3321  0.5152  0.3597
   71MOL   C27929819   7.622   3.205   7.039 -1.4453 -0.8989 -0.1438
   71MOL   C28029820   7.745   3.291   6.842  0.4174  0.4959  0.8303
   71MOL   C28129821   0.039   3.087   6.929 -0.2174 -0.2397  0.0152
   71MOL   H28229822   0.076   3.511   6.951  2.6152 -1.4868  0.0210
   71MOL   H28329823   0.200   3.565   7.053 -0.3075  1.0615  1.1311
   71MOL   H28429824   7.765   3.404   7.196 -0.0582 -1.7114 -0.4252
   71MOL   H28529825   0.153   3.203   7.120 -0.6382  0.3756 -0.7702
   71MOL   H28629826   0.192   3.297   6.983 -1.6643  1.6249 -1.3841
   71MOL   H28729827   7.561   3.295   7.045 -2.7173 -1.7868  0.6803
   71MOL   H28829828   7.560   3.133   6.985 -0.6111 -0.0273 -2.3265
   71MOL   H28929829   7.636   3.158   7.137 -1.4098 -0.6009 -0.0086
   71MOL   H29029830   0.077   3.302   6.794  0.9443 -0.5433  1.6425
   71MOL   H29129831   7.697   3.389   6.839 -0.0204  0.2842  0.9932
   71MOL   H29229832   7.683   3.243   6.767  0.5314  0.0177  1.0423
   71MOL   H29329833   0.050   3.024   7.017  0.2218  2.0119  1.6373
   71MOL   H29429834   0.124   3.088   6.861  0.6472  0.4882  1.0799
   71MOL   H29529835   7.729   3.035   6.871 -1.0528  0.4775  0.4470
   71MOL   C29629836   0.190   3.425   7.262 -0.3614 -0.0697 -0.9015
   71MOL   C29729837   0.330   3.354   7.252  0.5029 -0.3644  0.5297
   71MOL   C29829838   0.394   3.354   7.391 -0.1977  0.6112  0.9043
   71MOL   C29929839   0.342   3.269   7.517 -0.0636  0.1899  0.6205
   71MOL   C30029840   0.244   3.337   7.609  0.2586 -0.1562 -0.1307
   71MOL   C30129841   0.279   3.144   7.461 -0.0721  0.2330  0.1736
   71MOL   C30229842   0.467   3.243   7.606 -1.1424 -0.3276 -0.3413
   71MOL   H30329843   0.131   3.388   7.346  0.2656 -1.2937 -0.9969
   71MOL   H30429844   0.208   3.529   7.293 -1.2695 -0.0868 -0.3024
   71MOL   H30529845   0.320   3.251   7.219  0.7282 -0.6091  1.2096
   71MOL   H30629846   0.420   3.457   7.418  2.8736  0.2417 -0.4041
   71MOL   H30729847   0.487   3.306   7.361 -0.8173  0.1422 -0.2724
   71MOL   H30829848   0.144   3.344   7.567  0.0988  0.8768  0.4188
   71MOL   H30929849   0.236   3.279   7.701  0.7911  1.9745  1.2752
   71MOL   H31029850   0.282   3.436   7.633  1.1905 -0.5676  0.1203
   71MOL   H31129851   0.200   3.176   7.393  0.3578  0.5608 -0.1727
   71MOL   H31229852   0.354   3.090   7.404  0.4232  0.4768  0.5965
   71MOL   H31329853   0.238   3.083   7.542 -0.6971  0.6742  0.1974
   71MOL   H31429854   0.451   3.168   7.684  1.6801 -0.4235  0.2123
   71MOL   H31529855   0.549   3.204   7.546 -1.2214  2.9004 -2.6992
   71MOL   H31629856   0.511   3.336   7.645  1.0659 -1.0729 -0.9623
   71MOL   C31729857   0.426   3.409   7.139 -0.4186  0.2784  0.3487
   71MOL   C31829858   0.547   3.329   7.097 -0.8300 -0.0126  0.0581
   71MOL   C31929859   0.511   3.205   7.003  0.1992 -0.2487  0.6723
   71MOL   C32029860   0.593   3.080   7.035 -0.2410 -0.9439 -0.6268
   71MOL   C32129861   0.748   3.096   7.029 -0.6446  0.8094  0.1457
   71MOL   C32229862   0.567   2.980   6.920  0.0809 -0.0001  0.7327
   71MOL   C32329863   0.559   3.022   7.173  0.1151  0.2025 -0.1870
   71MOL   H32429864   0.365   3.423   7.050 -0.5962 -0.5093  0.3398
   71MOL   H32529865   0.453   3.510   7.170  1.3037 -0.3005  0.8329
   71MOL   H32629866   0.596   3.290   7.187  0.1646  0.9854 -0.0281
   71MOL   H32729867   0.524   3.233   6.898  0.2949  0.7476  0.9417
   71MOL   H32829868   0.404   3.185   7.002 -0.3056  2.3010  0.4347
   71MOL   H32929869   0.774   3.165   7.109  1.4407 -0.0783  0.2681
   71MOL   H33029870   0.777   3.141   6.934 -0.0064  2.1508  0.9681
   71MOL   H33129871   0.790   2.997   7.046 -2.0136  0.5659  2.2668
   71MOL   H33229872   0.614   2.883   6.935 -2.0732 -1.0472  0.9899
   71MOL   H33329873   0.460   2.957   6.909 -0.3404  2.9241 -1.9696
   71MOL   H33429874   0.601   3.023   6.826 -2.3570 -0.2709 -0.3241
   71MOL   H33529875   0.461   2.975   7.181 -0.9377  2.5830  1.6036
   71MOL   H33629876   0.578   3.074   7.267 -3.5602  2.2581 -0.4899
   71MOL   H33729877   0.612   2.927   7.178  1.4247  0.8970 -0.4894
   71MOL   C33829878   0.650   3.419   7.019  0.6407 -0.1383  0.3705
   71MOL   C33929879   0.716   3.544   7.092 -0.6577 -0.2927 -0.5162
   71MOL   C34029880   0.816   3.636   7.002 -0.2792 -0.7148 -0.2873
   71MOL   C34129881   0.749   3.750   6.918  0.3040 -0.1445  0.1587
   71MOL   C34229882   0.864   3.795   6.826  0.8819 -0.9502 -0.1452
   71MOL   C34329883   0.636   3.713   6.824 -0.2304  0.2729 -0.3463
   71MOL   C34429884   0.719   3.872   7.009  0.7772 -0.3154  0.6064
   71MOL   H34529885   0.597   3.460   6.933  0.8318  1.5928  1.0680
   71MOL   H34629886   0.727   3.357   6.973 -1.3566 -1.9918 -0.5698
   71MOL   H34729887   0.630   3.607   7.116 -0.7747 -0.5391 -0.2886
   71MOL   H34829888   0.871   3.562   6.944 -1.0917  0.2799 -2.3598
   71MOL   H34929889   0.894   3.686   7.059  0.3783 -0.2635 -1.5790
   71MOL   H35029890   0.950   3.842   6.874 -0.6854  0.4865  1.3048
   71MOL   H35129891   0.900   3.717   6.758 -0.2808 -0.0784 -1.7966
   71MOL   H35229892   0.824   3.868   6.755 -2.8095 -2.0966  0.6711
   71MOL   H35329893   0.650   3.632   6.753  2.4397  0.1987  0.2378
   71MOL   H35429894   0.541   3.685   6.871 -0.8562  1.4923 -0.8418
   71MOL   H35529895   0.611   3.803   6.768 -2.1842 -0.2582 -0.3799
   71MOL   H35629896   0.681   3.951   6.944 -1.1219 -1.9841 -0.3882
   71MOL   H35729897   0.653   3.844   7.092  0.0333 -1.0509 -0.2252
   71MOL   H35829898   0.809   3.924   7.042  0.9419 -0.3145  0.1517
   71MOL   C35929899   0.791   3.497   7.220 -0.2832 -1.0775  0.1437
   71MOL   C36029900   0.808   3.606   7.334 -0.1155  0.0431  0.6244
   71MOL   C36129901   0.917   3.562   7.432  0.8837  0.2331 -0.0060
   71MOL   C36229902   1.059   3.620   7.418 -0.4462  0.5467  0.9193
   71MOL   C36329903   1.151   3.554   7.523 -0.0441  0.2384  0.2935
   71MOL   C36429904   1.066   3.772   7.430  0.3699  0.1251  0.4356
   71MOL   C36529905   1.113   3.571   7.281 -0.1640  0.0645  0.1805
   71MOL   H36629906   0.881   3.449   7.180 -0.3989 -1.7955  0.7436
   71MOL   H36729907   0.739   3.417   7.272  0.2117 -1.2941  0.3055
   71MOL   H36829908   0.859   3.691   7.288  0.1835 -0.5454 -0.1494
   71MOL   H36929909   0.884   3.589   7.533 -0.1812 -0.0562 -0.2701
   71MOL   H37029910   0.920   3.455   7.447 -0.3977  0.2022  0.1458
   71MOL   H37129911   1.157   3.448   7.499  1.2839  0.5401 -0.7258
   71MOL   H37229912   1.250   3.599   7.524 -0.7553  1.8457  0.7322
   71MOL   H37329913   1.112   3.560   7.625  1.7055  0.5385  0.9614
   71MOL   H37429914   1.171   3.801   7.437  0.3336  0.5014 -0.6161
   71MOL   H37529915   1.027   3.805   7.526 -1.5466  1.4575 -0.7868
   71MOL   H37629916   1.018   3.840   7.360 -0.2028  1.0372  1.6743
   71MOL   H37729917   1.213   3.612   7.263 -0.5715  0.4123 -1.3819
   71MOL   H37829918   1.053   3.617   7.203 -0.9300  0.7702  1.1802
   71MOL   H37929919   1.120   3.463   7.276  0.0588  0.1328 -1.0872
   71MOL   C38029920   0.672   3.625   7.408 -0.1359 -0.2094 -0.4445
   71MOL   C38129921   0.656   3.755   7.480 -0.3768 -0.4196  0.1128
   71MOL   C38229922   0.525   3.746   7.563 -0.4540  0.5570 -0.4046
   71MOL   C38329923   0.539   3.746   7.719  0.4495  0.0399  0.3486
   71MOL   C38429924   0.605   3.872   0.001 -0.0410  0.6060  0.2378
   71MOL   C38529925   0.624   3.634   0.006  0.2532  0.0414 -0.3054
   71MOL   C38629926   0.402   3.727   0.016 -0.6886 -0.3604  0.1458
   71MOL   H38729927   0.665   3.543   7.480  4.0738 -0.5208 -0.2275
   71MOL   H38829928   0.586   3.611   7.343 -0.1247  0.1793 -0.5438
   71MOL   H38929929   0.750   3.759   7.535  0.7355  1.0140 -1.8405
   71MOL   H39029930   0.460   3.830   7.539  2.0388  2.1845 -1.6672
   71MOL   H39129931   0.485   3.647   7.542  0.0271 -0.1864  2.0405
   71MOL   H39229932   0.546   3.963   7.753 -0.8265 -0.0001 -0.4704
   71MOL   H39329933   0.627   3.870   0.108 -1.0638  1.8346  0.4865
   71MOL   H39429934   0.696   3.882   7.708 -0.3352  0.3791 -0.2580
   71MOL   H39529935   0.727   3.649   7.740  1.2200 -0.4530  2.4533
   71MOL   H39629936   0.583   3.534   7.759 -3.5146  1.4697 -0.1968
   71MOL   H39729937   0.637   3.626   0.114  0.4633  0.1335 -0.3233
   71MOL   H39829938   0.333   3.808   7.761  2.0300  1.9122 -0.3883
   71MOL   H39929939   0.411   3.722   0.125  1.4998  0.7622  0.0538
   71MOL   H40029940   0.357   3.638   7.739 -0.5798 -0.3463  0.0011
   71MOL   C40129941   0.655   3.875   7.382 -0.2730 -0.3762  0.2458
   71MOL   C40229942   0.688   4.021   7.431  0.9153 -0.6028 -0.1037
   71MOL   C40329943   0.823   4.056   7.496  0.1729  0.2843 -0.2681
   71MOL   C40429944   0.857   4.198   7.534  0.0147  1.2571  0.4977
   71MOL   C40529945   1.001   4.206   7.589 -0.1346 -0.0343 -0.0669
   71MOL   C40629946   0.753   4.244   7.638 -0.0097 -0.3700  0.1886
   71MOL   C40729947   0.853   4.296   7.417 -0.2456  0.2548  0.1996
   71MOL   H40829948   0.727   3.857   7.302  1.5576 -0.3955  1.8457
   71MOL   H40929949   0.562   3.877   7.326 -0.6022 -4.1054  0.5936
   71MOL   H41029950   0.674   4.084   7.343 -1.0670 -1.3138 -0.3305
   71MOL   H41129951   0.899   4.017   7.428  0.6410  1.9916 -0.7526
   71MOL   H41229952   0.835   3.992   7.584 -2.7741  1.6794  1.2227
   71MOL   H41329953   1.030   4.300   7.636  0.6830 -0.3068 -0.0150
   71MOL   H41429954   1.071   4.163   7.518  0.5997 -0.5349  0.9341
   71MOL   H41529955   1.017   4.134   7.670  1.0574  0.6992  0.3636
   71MOL   H41629956   0.745   4.194   7.734 -1.1129  1.8709  1.3188
   71MOL   H41729957   0.652   4.260   7.602  0.0637 -0.9720 -0.2966
   71MOL   H41829958   0.788   4.345   7.664 -1.1682 -0.3829  1.8484
   71MOL   H41929959   0.754   4.300   7.370 -0.9060 -3.8021  1.0483
   71MOL   H42029960   0.860   4.402   7.440 -3.4838  0.6958 -0.5760
   71MOL   H42129961   0.921   4.263   7.338  2.1573 -1.2988  2.8377
   71MOL   H42229962   0.611   4.066   7.493  1.7119 -1.0045  1.1898
   72MOL     C129963   4.454   0.014   4.543  0.4772  0.2161  0.2973
   72MOL     C229964   4.562   0.128   4.528 -0.1945  0.4472  0.0980
   72MOL     C329965   4.673   0.080   4.427  0.0720 -0.2335 -0.0105
   72MOL     C429966   4.641   0.070   4.274  1.0964  0.2015  0.0767
   72MOL     C529967   4.588   7.690   4.238 -1.2178  0.7763  0.1181
   72MOL     C629968   4.540   0.179   4.228 -0.6433  0.5259  0.6564
   72MOL     C729969   4.771   0.097   4.199  0.0267  0.1191 -0.5484
   72MOL     H829970   4.397   7.762   4.452 -1.7291  1.1296  1.4459
   72MOL     H929971   4.497   7.685   4.576  0.0616  0.3808  1.3269
   72MOL    H1029972   4.510   0.208   4.475 -3.0693 -0.8206  0.9261
   72MOL    H1129973   4.721   7.755   4.464 -0.8586 -1.5231 -1.9119
   72MOL    H1229974   4.751   0.156   4.434  0.6049 -0.7465 -0.3264
   72MOL    H1329975   4.496   7.653   4.284  1.5191 -1.5092  4.1337
   72MOL    H1429976   4.669   7.616   4.245 -1.5544  0.3030 -0.8268
   72MOL    H1529977   4.572   7.701   4.131 -0.8321 -3.4231 -0.4663
   72MOL    H1629978   4.571   0.278   4.262 -0.0927  0.4961  0.2349
   72MOL    H1729979   4.535   0.166   4.120  0.2198 -2.1503  0.9073
   72MOL    H1829980   4.441   0.146   4.261 -1.4145 -0.1518 -2.2027
   72MOL    H1929981   4.851   0.032   4.234  0.8603  2.0342  1.2652
   72MOL    H2029982   4.801   0.202   4.192 -0.5360  0.4638  1.6835
   72MOL    H2129983   4.765   0.068   4.095  1.0292 -1.2318 -0.2380
   72MOL    H2229984   4.384   0.047   4.620  1.9550  1.4636  1.1447
   72MOL    C2329985   4.618   0.173   4.653  0.2856  0.0204 -0.0940
   72MOL    C2429986   4.670   0.320   4.652  0.1157  0.9005 -0.5524
   72MOL    C2529987   4.744   0.361   4.782 -0.4102 -0.4053  0.1526
   72MOL    C2629988   4.894   0.327   4.786 -0.6865 -0.2252  0.2481
   72MOL    C2729989   4.952   0.357   4.926  0.6707 -0.5637 -0.5910
   72MOL    C2829990   4.929   0.177   4.752 -0.9975 -0.2450 -0.3256
   72MOL    C2929991   4.970   0.422   4.688 -0.2010  0.3359  0.4538
   72MOL    H3029992   4.538   0.168   4.727 -0.4908 -1.0429 -0.9832
   72MOL    H3129993   4.685   0.097   4.693 -0.9204 -1.5535 -1.0038
   72MOL    H3229994   4.748   0.323   4.576 -1.0557 -1.0518 -1.9009
   72MOL    H3329995   4.697   0.316   4.870  0.0219  0.1570  0.6779
   72MOL    H3429996   4.724   0.465   4.807  0.0157 -0.2680 -0.0916
   72MOL    H3529997   5.058   0.330   4.927  0.8952  0.2847 -0.8791
   72MOL    H3629998   4.945   0.460   4.960 -0.2953 -0.0735 -2.2342
   72MOL    H3729999   4.898   0.298   5.000 -0.8486  0.7471 -0.6214
   72MOL    H3830000   5.036   0.170   4.735 -0.3066 -0.7599  3.6522
   72MOL    H3930001   4.910   0.103   4.830  3.6733  1.0512  2.2889
   72MOL    H4030002   4.888   0.144   4.657  1.0689  0.6551 -1.5623
   72MOL    H4130003   4.974   0.529   4.706 -1.6045  0.8097 -1.8294
   72MOL    H4230004   4.943   0.399   4.585  1.8550 -1.7756  0.3275
   72MOL    H4330005   5.075   0.394   4.684 -0.2253  0.2586  0.3487
   72MOL    C4430006   4.559   0.425   4.616  0.6660 -0.0012  0.3537
   72MOL    C4530007   4.611   0.550   4.540 -0.1561 -0.0263 -0.3931
   72MOL    C4630008   4.512   0.666   4.559  0.2349 -0.3995 -0.7945
   72MOL    C4730009   4.548   0.793   4.634  0.6223 -0.3191  0.6014
   72MOL    C4830010   4.430   0.895   4.630  0.0922 -0.0426 -0.1738
   72MOL    C4930011   4.665   0.863   4.567  0.3729  0.4074  0.3645
   72MOL    C5030012   4.583   0.756   4.783 -0.1127  0.0166  0.0208
   72MOL    H5130013   4.465   0.393   4.571 -0.2909  1.2834  1.3806
   72MOL    H5230014   4.515   0.460   4.709 -1.9976 -3.0698  0.3361
   72MOL    H5330015   4.697   0.593   4.591 -1.9710  1.3310  1.6529
   72MOL    H5430016   4.422   0.630   4.609  1.8860 -0.8625  1.9676
   72MOL    H5530017   4.482   0.700   4.460 -1.0673 -1.1383 -0.6609
   72MOL    H5630018   4.342   0.850   4.676  1.4501 -0.7833  1.7383
   72MOL    H5730019   4.421   0.933   4.528 -1.8093  2.3336  0.8453
   72MOL    H5830020   4.452   0.981   4.693  0.2428  1.0774 -1.7308
   72MOL    H5930021   4.692   0.956   4.618 -0.6763  0.0427  1.6011
   72MOL    H6030022   4.757   0.806   4.577  0.4431  0.7575  1.9608
   72MOL    H6130023   4.647   0.896   4.465  0.6783 -0.0509  0.1645
   72MOL    H6230024   4.682   0.711   4.786 -1.1710 -2.4919 -1.0600
   72MOL    H6330025   4.571   0.834   4.858  0.7878  0.5053 -0.3418
   72MOL    H6430026   4.519   0.675   4.819 -1.8091  1.6516  0.7038
   72MOL    C6530027   4.631   0.510   4.392 -0.3743  0.5267  0.1876
   72MOL    C6630028   4.717   0.604   4.300  0.4137 -0.1441  0.0000
   72MOL    C6730029   4.687   0.612   4.145 -0.4550 -0.1169  0.1686
   72MOL    C6830030   4.566   0.702   4.106 -0.4776 -0.5161 -0.5747
   72MOL    C6930031   4.586   0.851   4.140 -0.3394  0.4098 -0.2842
   72MOL    C7030032   4.565   0.713   3.955 -0.5918  0.0384  0.4878
   72MOL    C7130033   4.425   0.654   4.148  0.4454 -0.0888  0.2748
   72MOL    H7230034   4.676   0.411   4.397  0.1800  0.6555 -1.7829
   72MOL    H7330035   4.531   0.498   4.350 -0.1612  0.0508 -0.1878
   72MOL    H7430036   4.709   0.705   4.342 -2.3530 -0.8430  1.2600
   72MOL    H7530037   4.666   0.514   4.101 -0.2044  0.9773 -2.4739
   72MOL    H7630038   4.764   0.669   4.094 -0.3224  0.1598  0.6754
   72MOL    H7730039   4.677   0.900   4.103 -1.0281  0.0870 -2.4717
   72MOL    H7830040   4.512   0.922   4.104 -0.6771 -0.4919 -1.3940
   72MOL    H7930041   4.595   0.861   4.248  1.0892  2.6847 -0.5725
   72MOL    H8030042   4.534   0.618   3.912  1.1088 -0.4428  0.2841
   72MOL    H8130043   4.664   0.730   3.911 -0.2394  1.4470  1.8080
   72MOL    H8230044   4.506   0.791   3.907  0.4997  0.4804 -0.1545
   72MOL    H8330045   4.387   0.696   4.241  2.0914  0.0864  0.8892
   72MOL    H8430046   4.412   0.546   4.142 -2.3319  0.1848  0.8213
   72MOL    H8530047   4.355   0.693   4.074  3.1360  1.7516 -1.4049
   72MOL    C8630048   4.868   0.567   4.332 -0.4231 -0.1207  0.4380
   72MOL    C8730049   4.981   0.651   4.260  0.2538  0.5036 -0.1250
   72MOL    C8830050   5.119   0.585   4.278 -0.1602  0.7784 -0.0130
   72MOL    C8930051   5.166   0.475   4.173 -0.0456 -0.2767  0.8146
   72MOL    C9030052   5.075   0.359   4.161  0.4783  0.2951 -0.1295
   72MOL    C9130053   5.303   0.420   4.218 -0.0144  0.7391 -0.4966
   72MOL    C9230054   5.185   0.539   4.034 -0.1635 -0.3559  1.1999
   72MOL    H9330055   4.896   0.463   4.312 -1.6787 -0.1494 -1.2978
   72MOL    H9430056   4.889   0.577   4.438 -1.0197 -0.5109  0.5970
   72MOL    H9530057   4.965   0.660   4.152 -0.8053  0.9638  0.0603
   72MOL    H9630058   5.122   0.531   4.373  1.8195 -0.7257 -0.9100
   72MOL    H9730059   5.195   0.663   4.271 -1.1411  1.5966 -1.7788
   72MOL    H9830060   4.981   0.391   4.117  0.1571 -0.3285  0.0866
   72MOL    H9930061   5.064   0.307   4.256 -0.5326  0.0644 -0.3629
   72MOL   H10030062   5.121   0.291   4.089  1.3861  0.4125  0.3397
   72MOL   H10130063   5.303   0.403   4.325  1.9484  0.6902 -0.4832
   72MOL   H10230064   5.331   0.337   4.153 -2.2434  0.5998 -1.3065
   72MOL   H10330065   5.381   0.495   4.201  1.8060 -1.2211 -1.0686
   72MOL   H10430066   5.097   0.580   3.983 -0.3819 -1.4496  0.6695
   72MOL   H10530067   5.272   0.604   4.027 -0.4365 -0.1013 -0.0072
   72MOL   H10630068   5.235   0.466   3.970 -1.1394  1.2090 -1.4328
   72MOL   C10730069   4.985   0.793   4.315  0.0936  0.2128  0.9513
   72MOL   C10830070   5.055   0.904   4.221  0.5113 -0.0580  0.0845
   72MOL   C10930071   4.960   0.935   4.101  0.0702 -0.4753 -0.6943
   72MOL   C11030072   5.013   0.964   3.953 -0.3167 -0.5166 -0.8419
   72MOL   C11130073   5.114   0.853   3.903  0.1766  0.2251  0.2284
   72MOL   C11230074   5.071   1.105   3.943  0.3603  0.1097 -0.1709
   72MOL   C11330075   4.897   0.958   3.847 -0.1993 -0.2429  0.5198
   72MOL   H11430076   5.031   0.786   4.413 -0.1818 -1.5806  0.9572
   72MOL   H11530077   4.887   0.831   4.345 -1.1345 -0.5964 -1.9011
   72MOL   H11630078   5.149   0.865   4.183  0.4944 -0.6196  0.6237
   72MOL   H11730079   4.885   0.857   4.105 -0.6325  0.2903  1.3181
   72MOL   H11830080   4.904   1.022   4.134 -0.5258 -1.4617  0.9332
   72MOL   H11930081   5.052   0.764   3.888 -1.3954  1.7628 -3.2191
   72MOL   H12030082   5.146   0.889   3.805  1.5257  2.8489  1.5872
   72MOL   H12130083   5.193   0.844   3.976 -0.0516  0.7094  0.5360
   72MOL   H12230084   5.166   1.125   3.993 -1.0035  2.4679  1.6312
   72MOL   H12330085   5.006   1.188   3.970 -0.0226 -0.5512  0.9748
   72MOL   H12430086   5.097   1.111   3.838  0.2882 -1.6532 -0.3093
   72MOL   H12530087   4.834   1.044   3.870 -2.2747 -1.4432 -0.5675
   72MOL   H12630088   4.837   0.871   3.872 -0.3489 -0.0269  0.9191
   72MOL   H12730089   4.920   0.963   3.741  0.4479  0.1556  0.6723
   72MOL   C12830090   5.081   1.041   4.290 -0.4193  0.3860 -0.0722
   72MOL   C12930091   5.185   1.047   4.404  0.1660 -0.1473  0.3724
   72MOL   C13030092   5.325   1.012   4.352  0.5480 -0.4591  0.1575
   72MOL   C13130093   5.422   0.927   4.445  0.3315 -0.3717 -0.5861
   72MOL   C13230094   5.539   0.887   4.359  0.6157  0.3190 -0.2296
   72MOL   C13330095   5.354   0.809   4.502 -0.1492  0.7089  0.1879
   72MOL   C13430096   5.482   1.019   4.550  0.2977 -0.2028  0.1222
   72MOL   H13530097   4.983   1.065   4.330 -0.6147  0.6930 -0.7194
   72MOL   H13630098   5.103   1.120   4.218 -2.3236  1.4851  0.5242
   72MOL   H13730099   5.158   0.976   4.482  1.3656 -0.5582  0.4227
   72MOL   H13830100   5.321   0.953   4.260  0.0389 -1.9954  1.1501
   72MOL   H13930101   5.375   1.105   4.324 -0.6954  0.3288  0.4569
   72MOL   H14030102   5.564   0.975   4.300  1.2949  0.8387  0.8083
   72MOL   H14130103   5.515   0.805   4.292 -1.2452 -0.6775  1.5801
   72MOL   H14230104   5.622   0.852   4.420  0.8089  0.0650 -0.6413
   72MOL   H14330105   5.304   0.837   4.595 -0.7251  2.2781 -0.5685
   72MOL   H14430106   5.432   0.734   4.512  1.9101  2.7694  0.0721
   72MOL   H14530107   5.278   0.774   4.432  0.2337  1.7091 -0.7584
   72MOL   H14630108   5.569   0.971   4.595  0.3319  1.1920  1.5919
   72MOL   H14730109   5.538   1.107   4.520 -0.3859  1.1410  2.6838
   72MOL   H14830110   5.410   1.049   4.626 -0.9386 -0.3812 -0.9527
   72MOL   C14930111   5.189   1.192   4.466 -0.4188 -0.0865 -0.0833
   72MOL   C15030112   5.076   1.225   4.568  0.2437 -0.8265  0.1190
   72MOL   C15130113   5.112   1.174   4.710 -0.8673 -0.0902  0.4496
   72MOL   C15230114   5.014   1.080   4.776  0.0859 -0.2264 -0.0081
   72MOL   C15330115   4.999   0.950   4.695  1.3154 -0.4494 -0.2519
   72MOL   C15430116   4.868   1.145   4.788 -0.2573 -0.0803 -0.5083
   72MOL   C15530117   5.075   1.053   4.919  0.4144 -0.1253  0.1543
   72MOL   H15630118   5.206   1.260   4.382  1.0748  0.5990  0.7520
   72MOL   H15730119   5.289   1.200   4.509  1.2524 -1.3612 -3.5246
   72MOL   H15830120   4.981   1.183   4.537  0.8603 -1.8401 -0.3781
   72MOL   H15930121   5.146   1.253   4.778  2.6055  0.4463 -1.7876
   72MOL   H16030122   5.212   1.131   4.699 -1.1956 -0.5795 -0.7182
   72MOL   H16130123   5.095   0.900   4.699  1.9103  0.6004 -1.0667
   72MOL   H16230124   4.923   0.882   4.735 -0.6682  1.0491 -1.3583
   72MOL   H16330125   4.979   0.974   4.590 -0.5444  0.5371  0.2956
   72MOL   H16430126   4.808   1.103   4.869  1.3995  3.2330  2.5569
   72MOL   H16530127   4.816   1.154   4.693 -0.4278 -1.1001 -0.5204
   72MOL   H16630128   4.876   1.242   4.837 -1.3721  0.0540 -0.5793
   72MOL   H16730129   5.046   0.957   4.961  0.3675  0.4834  1.5394
   72MOL   H16830130   5.183   1.051   4.910  0.1955 -2.6256 -2.2944
   72MOL   H16930131   5.042   1.135   4.983 -1.5342 -0.8839  0.1670
   72MOL   C17030132   5.049   1.374   4.597  0.2933 -0.0379 -0.1740
   72MOL   C17130133   4.986   1.452   4.476 -0.5283  0.6037 -0.4904
   72MOL   C17230134   5.099   1.555   4.436  0.5520  0.5433  1.0113
   72MOL   C17330135   5.122   1.593   4.290 -0.5079 -0.0233 -0.2245
   72MOL   C17430136   5.004   1.669   4.230 -0.3792 -0.2635  0.5446
   72MOL   C17530137   5.141   1.471   4.198 -0.2640 -0.1604  0.1358
   72MOL   C17630138   5.233   1.696   4.286  0.1855  0.0587 -0.7102
   72MOL   H17730139   5.124   1.431   4.653  0.3829 -3.0302  2.9076
   72MOL   H17830140   4.965   1.373   4.666 -0.6543 -0.9630 -1.3239
   72MOL   H17930141   4.961   1.383   4.395 -0.8585 -1.0413  0.9835
   72MOL   H18030142   5.085   1.644   4.498  1.5354  0.8520  0.8152
   72MOL   H18130143   5.198   1.515   4.458 -0.3468 -2.4183 -0.1443
   72MOL   H18230144   4.991   1.772   4.264  0.5263  1.1828 -3.2118
   72MOL   H18330145   4.995   1.679   4.122  0.1389  2.6988  0.7272
   72MOL   H18430146   4.906   1.625   4.249 -0.0041 -1.9198 -1.2075
   72MOL   H18530147   5.228   1.417   4.237 -0.1523 -1.8458 -2.3439
   72MOL   H18630148   5.059   1.401   4.184 -0.4030 -0.0192  0.2512
   72MOL   H18730149   5.168   1.500   4.097 -2.3124  0.0829 -0.3584
   72MOL   H18830150   5.334   1.661   4.308  0.3229  1.2393  0.6025
   72MOL   H18930151   5.224   1.754   4.194 -3.8103  0.1730 -0.3424
   72MOL   H19030152   5.214   1.767   4.366 -0.1067 -0.7602 -0.0538
   72MOL   C19130153   4.858   1.522   4.508 -0.2282  0.5161 -0.7799
   72MOL   C19230154   4.728   1.452   4.500 -0.2546  0.1865 -0.4446
   72MOL   C19330155   4.691   1.434   4.350  0.3659  0.0317  0.3152
   72MOL   C19430156   4.640   1.296   4.294 -0.4693  0.4199  0.0438
   72MOL   C19530157   4.614   1.317   4.148  0.3710  0.2522  0.0019
   72MOL   C19630158   4.509   1.253   4.365 -0.0505 -0.5305  0.4170
   72MOL   C19730159   4.736   1.177   4.325  0.1474  0.2109 -0.1245
   72MOL   H19830160   4.859   1.556   4.611  2.5459  2.8128 -1.5152
   72MOL   H19930161   4.850   1.615   4.452  2.4085  0.6593 -0.9568
   72MOL   H20030162   4.753   1.353   4.537  0.0216  1.2183  2.2863
   72MOL   H20130163   4.769   1.477   4.288 -0.4176  0.3379 -0.4646
   72MOL   H20230164   4.615   1.507   4.321 -0.0977 -0.4437  0.3244
   72MOL   H20330165   4.714   1.340   4.113  1.6821  0.7511  3.8358
   72MOL   H20430166   4.572   1.230   4.097  0.1515 -0.3216  1.1397
   72MOL   H20530167   4.550   1.405   4.148  0.0362  0.0130 -0.0646
   72MOL   H20630168   4.444   1.340   4.359 -1.8167 -1.9377 -1.5452
   72MOL   H20730169   4.462   1.167   4.317 -1.1160  0.0624  0.3998
   72MOL   H20830170   4.518   1.203   4.462  1.2279  0.6660  0.9256
   72MOL   H20930171   4.700   1.086   4.275  0.6136  0.3127 -0.6440
   72MOL   H21030172   4.838   1.204   4.300  0.2192 -0.3607 -0.4704
   72MOL   H21130173   4.723   1.155   4.431  0.0594  0.9812  0.0267
   72MOL   C21230174   4.608   1.497   4.588  0.4593 -1.2896 -0.2888
   72MOL   C21330175   4.578   1.653   4.603  1.1369 -0.1524  0.0698
   72MOL   C21430176   4.472   1.679   4.712 -0.0459 -0.6320  0.0065
   72MOL   C21530177   4.498   1.635   4.863 -0.4116 -0.1107  0.1006
   72MOL   C21630178   4.502   1.483   4.895  0.5518 -0.4159  0.5532
   72MOL   C21730179   4.630   1.689   4.913  0.0060  0.2574  0.5611
   72MOL   C21830180   4.391   1.704   4.956 -0.2048 -0.5484 -0.3266
   72MOL   H21930181   4.518   1.436   4.585 -0.2811 -0.2201 -0.1109
   72MOL   H22030182   4.640   1.468   4.688  2.3186 -1.6345 -0.9651
   72MOL   H22130183   4.673   1.690   4.642  2.1570 -0.6908 -1.8540
   72MOL   H22230184   4.375   1.637   4.683  1.0695 -2.3038 -1.4109
   72MOL   H22330185   4.455   1.786   4.706 -0.3736 -0.6359  0.8691
   72MOL   H22430186   4.598   1.432   4.893 -0.1374 -1.9743  3.5495
   72MOL   H22530187   4.427   1.444   4.826  0.1262  2.5484 -0.7318
   72MOL   H22630188   4.477   1.462   4.999  0.4891 -0.6083  0.4991
   72MOL   H22730189   4.709   1.616   4.893 -0.4831 -0.1189  0.0134
   72MOL   H22830190   4.653   1.790   4.880  1.5088 -0.1419  0.3472
   72MOL   H22930191   4.634   1.690   5.022 -0.4062 -2.5243  0.6448
   72MOL   H23030192   4.408   1.680   5.060  1.2685 -0.6939 -0.5865
   72MOL   H23130193   4.287   1.685   4.932 -0.5032 -0.7390  1.1123
   72MOL   H23230194   4.400   1.812   4.941  0.4080 -0.4236  0.8968
   72MOL   C23330195   4.522   1.717   4.474 -0.2661  0.3935 -0.0134
   72MOL   C23430196   4.531   1.871   4.465  0.2428  0.3978  0.7957
   72MOL   C23530197   4.673   1.929   4.471 -0.3155  0.1937  0.3028
   72MOL   C23630198   4.709   2.052   4.561  0.0002  0.9726 -0.7633
   72MOL   C23730199   4.848   2.095   4.525  0.0910  0.5848 -0.3260
   72MOL   C23830200   4.611   2.165   4.534 -0.4603  0.2682  0.5992
   72MOL   C23930201   4.712   2.030   4.717  0.4030  0.3001 -0.1153
   72MOL   H24030202   4.415   1.694   4.474 -0.6563  1.9436  3.1533
   72MOL   H24130203   4.565   1.685   4.379  1.0278  1.1863  0.2934
   72MOL   H24230204   4.477   1.909   4.552  0.7850 -1.2483  1.8926
   72MOL   H24330205   4.743   1.852   4.502 -0.9968 -0.3537  0.4678
   72MOL   H24430206   4.710   1.950   4.371 -4.2933  0.9637 -1.1030
   72MOL   H24530207   4.886   2.178   4.583 -0.0870  0.4649 -0.0388
   72MOL   H24630208   4.849   2.117   4.418 -2.1655  1.5350 -0.1791
   72MOL   H24730209   4.915   2.011   4.543 -1.0330 -0.2501  0.0066
   72MOL   H24830210   4.622   2.183   4.427 -0.8066 -1.7408  0.2142
   72MOL   H24930211   4.510   2.141   4.566 -1.1545  0.2105 -1.5423
   72MOL   H25030212   4.636   2.257   4.586 -1.8311  0.2213  1.3760
   72MOL   H25130213   4.622   1.990   4.761  0.4565  0.1589 -0.1344
   72MOL   H25230214   4.794   1.964   4.745  0.2462  0.2783  0.2918
   72MOL   H25330215   4.726   2.129   4.761  2.1166  0.2885 -0.5890
   72MOL   C25430216   4.469   1.916   4.341 -0.1458 -0.1090  0.0670
   72MOL   C25530217   4.316   1.912   4.314  0.2733 -1.0401  0.7305
   72MOL   C25630218   4.285   1.916   4.165 -0.5441  0.0111  0.4631
   72MOL   C25730219   4.296   1.788   4.077  0.2086  0.1769 -0.0658
   72MOL   C25830220   4.282   1.823   3.925 -0.3846  0.0532 -0.5641
   72MOL   C25930221   4.190   1.688   4.132 -0.4136 -0.0599 -0.1358
   72MOL   C26030222   4.426   1.702   4.090 -0.0989  0.6121  0.6953
   72MOL   H26130223   4.528   1.866   4.265  0.9337  0.6977  0.3586
   72MOL   H26230224   4.502   2.019   4.327 -0.8676  0.5510  2.9172
   72MOL   H26330225   4.272   1.823   4.359  1.2174 -1.4923  0.7770
   72MOL   H26430226   4.184   1.949   4.141 -0.6372 -1.2416 -0.8830
   72MOL   H26530227   4.350   1.994   4.127 -1.0604  2.0329  3.5288
   72MOL   H26630228   4.183   1.868   3.917 -0.0236  1.0968  0.7014
   72MOL   H26730229   4.285   1.736   3.859  0.8639  0.9817 -1.7620
   72MOL   H26830230   4.360   1.893   3.896 -1.1915  0.9026 -0.7048
   72MOL   H26930231   4.188   1.594   4.076  0.9426  0.2392 -0.7034
   72MOL   H27030232   4.091   1.734   4.137 -0.4125  0.0641 -1.1192
   72MOL   H27130233   4.211   1.651   4.232  1.2917  1.2489  0.0015
   72MOL   H27230234   4.448   1.672   4.192  0.4768 -0.4539  0.2704
   72MOL   H27330235   4.432   1.611   4.029 -1.4395  0.8624  0.1560
   72MOL   H27430236   4.511   1.759   4.054  0.8858  0.5799  2.9287
   72MOL   C27530237   4.238   2.024   4.387  0.7363  0.2733 -0.3950
   72MOL   C27630238   4.083   2.013   4.388 -0.4779  0.1907 -0.2714
   72MOL   C27730239   4.017   2.002   4.531  0.1847 -0.0469 -0.1448
   72MOL   C27830240   4.025   1.872   4.612  0.4741  0.0944 -0.6960
   72MOL   C27930241   4.170   1.830   4.647 -0.4063  0.1154 -0.2321
   72MOL   C28030242   3.948   1.894   4.753  0.0068 -0.4866 -0.1310
   72MOL   C28130243   3.952   1.770   4.529 -0.1174 -0.4673  0.3942
   72MOL   H28230244   4.269   2.026   4.492 -2.1109  2.7085  0.4757
   72MOL   H28330245   4.274   2.117   4.346  0.4635  0.1724 -0.8595
   72MOL   H28430246   4.046   1.925   4.335  0.6019  0.4326 -1.4665
   72MOL   H28530247   3.910   2.019   4.532  0.0720 -0.8210  1.6887
   72MOL   H28630248   4.039   2.088   4.594 -1.2135 -0.0554  0.3690
   72MOL   H28730249   4.227   1.797   4.560 -1.7451 -0.5365 -0.8662
   72MOL   H28830250   4.236   1.899   4.699 -0.5197  0.9070 -1.1322
   72MOL   H28930251   4.162   1.741   4.709  1.1750 -0.0988 -0.3013
   72MOL   H29030252   3.958   1.811   4.824  0.1058  0.1108  0.5552
   72MOL   H29130253   3.843   1.919   4.742  0.2073 -0.2105 -1.5502
   72MOL   H29230254   4.009   1.971   4.800 -1.3568 -0.1118  1.0383
   72MOL   H29330255   4.013   1.750   4.442  0.9198  3.2135  0.2030
   72MOL   H29430256   3.861   1.808   4.483 -0.8191 -2.3484  0.1806
   72MOL   H29530257   3.917   1.684   4.586 -1.3257 -1.0477 -1.1916
   72MOL   C29630258   4.016   2.131   4.320 -0.8222 -0.1535 -0.5097
   72MOL   C29730259   3.864   2.127   4.281 -0.6509  0.0141  0.3523
   72MOL   C29830260   3.857   2.047   4.147  0.2520 -0.4640 -0.3230
   72MOL   C29930261   3.733   1.950   4.126  0.1455 -0.5971 -0.4402
   72MOL   C30030262   3.594   2.007   4.134 -0.0429  0.0031  0.2237
   72MOL   C30130263   3.735   1.914   3.980 -0.1775  1.0041 -0.3173
   72MOL   C30230264   3.742   1.828   4.211 -0.0148  0.5013  0.2755
   72MOL   H30330265   4.073   2.166   4.233 -1.2053  0.5892 -0.4685
   72MOL   H30430266   4.036   2.214   4.387 -1.0120  1.3930 -2.3269
   72MOL   H30530267   3.809   2.060   4.347 -1.1128  0.2754  0.2309
   72MOL   H30630268   3.948   1.988   4.140  1.1220  1.0013 -1.8674
   72MOL   H30730269   3.870   2.112   4.060 -0.4315  0.8547  0.5335
   72MOL   H30830270   3.515   1.938   4.104 -1.1411  1.6605 -0.7765
   72MOL   H30930271   3.584   2.050   4.233 -0.5532  1.8205 -0.5982
   72MOL   H31030272   3.586   2.090   4.064  0.3812 -0.0622  0.0940
   72MOL   H31130273   3.835   1.871   3.971  0.3599  2.2359 -0.3580
   72MOL   H31230274   3.662   1.839   3.949 -1.5216  1.1464  2.3550
   72MOL   H31330275   3.734   1.998   3.910  2.8050  0.0941 -1.5277
   72MOL   H31430276   3.741   1.865   4.314  2.0270  2.3893 -0.3423
   72MOL   H31530277   3.661   1.758   4.190  0.4644 -0.6304  2.1201
   72MOL   H31630278   3.839   1.780   4.196 -0.5895 -0.9513  1.1220
   72MOL   C31730279   3.791   2.255   4.262 -0.4160 -0.1836 -0.3883
   72MOL   C31830280   3.770   2.347   4.387 -0.0791  0.6320 -0.4103
   72MOL   C31930281   3.732   2.495   4.356  0.0316  0.0973 -0.0611
   72MOL   C32030282   3.842   2.600   4.341 -0.9001  0.4607  0.6356
   72MOL   C32130283   3.792   2.733   4.290 -0.4631  0.2208  0.3250
   72MOL   C32230284   3.961   2.553   4.257 -0.3944 -0.0417  0.8284
   72MOL   C32330285   3.903   2.623   4.483  0.0571 -0.6726  0.7009
   72MOL   H32430286   3.836   2.315   4.183  2.5498  0.7799  1.8910
   72MOL   H32530287   3.688   2.242   4.231 -0.5036  0.0021 -0.1835
   72MOL   H32630288   3.871   2.354   4.429 -0.2417 -0.5897  0.1867
   72MOL   H32730289   3.668   2.533   4.435 -0.7959  0.7028 -1.0177
   72MOL   H32830290   3.665   2.490   4.271  1.7292 -1.1093 -1.3804
   72MOL   H32930291   3.791   2.732   4.181 -0.1849 -0.5367  0.3277
   72MOL   H33030292   3.872   2.806   4.305 -0.6184  0.1205  1.7156
   72MOL   H33130293   3.692   2.769   4.315  0.2124  1.6274  1.0905
   72MOL   H33230294   4.013   2.646   4.234  0.8937 -0.7189  0.8975
   72MOL   H33330295   4.036   2.498   4.315  2.4969  0.0328 -2.6332
   72MOL   H33430296   3.937   2.509   4.160  0.5058  1.2149  0.0070
   72MOL   H33530297   3.941   2.532   4.529 -2.5187 -1.0118  2.3034
   72MOL   H33630298   3.817   2.648   4.546 -0.2646  0.0446 -0.0075
   72MOL   H33730299   3.980   2.699   4.486 -1.1304  0.5365  1.4584
   72MOL   C33830300   3.671   2.291   4.498 -0.1725 -0.5773  0.1422
   72MOL   C33930301   3.673   2.334   4.643  0.7839  0.3920  0.0629
   72MOL   C34030302   3.814   2.308   4.713 -0.0150 -0.1927 -0.9871
   72MOL   C34130303   3.840   2.368   4.860  0.1645  0.7473 -0.8212
   72MOL   C34230304   3.995   2.399   4.870 -0.7200 -0.0804 -0.8336
   72MOL   C34330305   3.773   2.513   4.886  0.8696  1.0587  0.0213
   72MOL   C34430306   3.813   2.277   4.971 -0.5423  0.0116  0.4220
   72MOL   H34530307   3.691   2.183   4.494 -1.9367 -0.8792 -2.4364
   72MOL   H34630308   3.567   2.292   4.467 -0.0239  0.6126 -0.3303
   72MOL   H34730309   3.656   2.441   4.641 -0.1753  0.2342 -1.3041
   72MOL   H34830310   3.890   2.334   4.639 -0.6106 -0.8851 -1.8625
   72MOL   H34930311   3.836   2.201   4.714 -0.6900 -0.3326  1.4647
   72MOL   H35030312   4.019   2.431   4.971 -2.1700  0.4037 -0.6303
   72MOL   H35130313   4.054   2.307   4.863  0.6435  0.7728 -0.7887
   72MOL   H35230314   4.031   2.471   4.797  0.8479  0.8272  0.8093
   72MOL   H35330315   3.818   2.547   4.979  2.5417  1.5811 -0.9570
   72MOL   H35430316   3.804   2.576   4.803 -2.2891  0.6587 -1.5631
   72MOL   H35530317   3.664   2.511   4.898  0.8553  1.5769 -0.0012
   72MOL   H35630318   3.707   2.264   4.993 -0.9631 -0.8168 -1.9870
   72MOL   H35730319   3.856   2.181   4.944  1.9459  1.1105  0.3161
   72MOL   H35830320   3.860   2.294   5.068 -0.6111 -4.0399  1.2431
   72MOL   C35930321   3.556   2.262   4.726  0.6980  0.2265 -0.0666
   72MOL   C36030322   3.408   2.306   4.690 -0.0665  0.3559  0.3857
   72MOL   C36130323   3.385   2.446   4.746  0.0942 -0.3234 -0.3675
   72MOL   C36230324   3.309   2.549   4.659 -0.2830  0.2116 -0.4400
   72MOL   C36330325   3.272   2.666   4.746 -0.1961 -0.2867 -0.1954
   72MOL   C36430326   3.177   2.490   4.602  1.0260  0.3821  0.0070
   72MOL   C36530327   3.410   2.601   4.556 -0.2926 -0.0733  0.4561
   72MOL   H36630328   3.565   2.265   4.834  1.2085 -0.3303 -0.0950
   72MOL   H36730329   3.575   2.157   4.702 -2.9011 -0.4269 -0.3825
   72MOL   H36830330   3.387   2.306   4.583  0.5797  3.6213  0.2107
   72MOL   H36930331   3.344   2.431   4.846  1.8781  1.3789  0.6474
   72MOL   H37030332   3.484   2.482   4.773 -1.4481  1.3960  3.3398
   72MOL   H37130333   3.281   2.756   4.685  1.3498  0.2709  0.8238
   72MOL   H37230334   3.174   2.661   4.794 -0.5939  1.9354 -0.7253
   72MOL   H37330335   3.341   2.692   4.826 -3.3631  0.1026  2.5028
   72MOL   H37430336   3.110   2.459   4.683  0.5560  1.3184 -0.0113
   72MOL   H37530337   3.202   2.412   4.531  1.2067  0.5410 -0.1057
   72MOL   H37630338   3.115   2.561   4.547  0.8923  0.6435  0.4889
   72MOL   H37730339   3.359   2.660   4.479 -1.1903  1.0668  1.8845
   72MOL   H37830340   3.454   2.519   4.501  1.7424 -0.1281  2.1098
   72MOL   H37930341   3.491   2.669   4.583  0.9407 -0.5585 -1.8631
   72MOL   C38030342   3.312   2.209   4.756  0.1863  0.0859 -0.0257
   72MOL   C38130343   3.332   2.064   4.726 -0.4472  0.4417 -0.3603
   72MOL   C38230344   3.343   2.039   4.561  0.2124  0.3170  0.3583
   72MOL   C38330345   3.400   1.896   4.510  0.3191  0.0105  0.0078
   72MOL   C38430346   3.363   1.901   4.360  0.3907  0.4419  0.3600
   72MOL   C38530347   3.347   1.769   4.570 -0.0715  0.3199 -0.2234
   72MOL   C38630348   3.548   1.895   4.523  0.3881  0.3180 -0.4501
   72MOL   H38730349   3.215   2.253   4.731 -1.2248 -1.7982  1.9134
   72MOL   H38830350   3.318   2.209   4.865 -3.0755 -0.2849  0.2075
   72MOL   H38930351   3.427   2.034   4.768 -1.6550 -0.5445  1.7281
   72MOL   H39030352   3.237   2.049   4.540  0.2632  2.0811  0.8761
   72MOL   H39130353   3.402   2.119   4.517  1.1061 -0.1404  0.6910
   72MOL   H39230354   3.421   1.843   4.288  1.2802 -0.2887  1.6503
   72MOL   H39330355   3.260   1.868   4.343  0.7790 -0.3126 -0.6034
   72MOL   H39430356   3.366   2.004   4.326  0.2019  0.1227 -0.6556
   72MOL   H39530357   3.239   1.766   4.577  0.0858 -1.3287  1.9583
   72MOL   H39630358   3.381   1.765   4.674  0.1949  3.1000 -0.1660
   72MOL   H39730359   3.403   1.686   4.527  0.8636  1.8103 -1.9681
   72MOL   H39830360   3.577   1.888   4.628  1.7560  3.0650 -0.5814
   72MOL   H39930361   3.593   1.989   4.488 -1.1199  1.8390  1.5483
   72MOL   H40030362   3.582   1.812   4.462  1.0040 -0.7179  1.2556
   72MOL   C40130363   3.223   1.988   4.803  0.1917  0.1830  0.2396
   72MOL   C40230364   3.259   1.948   4.942  0.7979  0.1676  0.1541
   72MOL   C40330365   3.149   1.883   5.026  0.3507  0.2458  0.1548
   72MOL   C40430366   3.196   1.824   5.163  0.1681 -0.7748 -0.0439
   72MOL   C40530367   3.070   1.777   5.248 -0.5776  0.1729 -0.1067
   72MOL   C40630368   3.283   1.924   5.235  0.2464 -0.3634  0.1128
   72MOL   C40730369   3.280   1.691   5.141 -0.0060 -0.0856 -0.0100
   72MOL   H40830370   3.124   2.034   4.798 -0.4078 -0.8330  2.1229
   72MOL   H40930371   3.211   1.893   4.750 -0.6272  0.4154 -0.0091
   72MOL   H41030372   3.351   1.890   4.944  2.0727  2.1017 -1.1912
   72MOL   H41130373   3.090   1.810   4.971 -0.7344  2.2039 -1.3712
   72MOL   H41230374   3.074   1.961   5.044  0.7594  0.8767 -0.8384
   72MOL   H41330375   3.100   1.704   5.323 -1.3992 -0.3632 -0.2956
   72MOL   H41430376   2.999   1.730   5.179 -1.7203  2.3091 -0.4547
   72MOL   H41530377   3.024   1.861   5.301  1.6871  0.4060  1.5371
   72MOL   H41630378   3.380   1.930   5.185 -0.0505  0.1684 -0.4072
   72MOL   H41730379   3.303   1.901   5.340  0.1785  0.6964  0.3581
   72MOL   H41830380   3.245   2.026   5.240  0.0691 -0.3310 -1.7083
   72MOL   H41930381   3.219   1.619   5.086 -1.6574  1.0040  0.3487
   72MOL   H42030382   3.357   1.715   5.067  1.5712 -3.3753  0.4901
   72MOL   H42130383   3.323   1.648   5.231 -0.0422 -1.0616 -0.4575
   72MOL   H42230384   3.281   2.037   5.000  0.7919  1.0976 -1.2638
   73MOL     C130385   2.822   6.674   2.288  1.0077 -0.5419  1.2886
   73MOL     C230386   2.850   6.632   2.143  0.1790  0.2345 -0.0018
   73MOL     C330387   2.826   6.477   2.137  0.6307 -0.1791 -0.6061
   73MOL     C430388   2.718   6.417   2.042  0.5356 -0.0728 -0.3082
   73MOL     C530389   2.723   6.468   1.895  0.2807 -0.4403 -0.5916
   73MOL     C630390   2.733   6.263   2.046 -0.2204  0.4224  0.0858
   73MOL     C730391   2.578   6.453   2.103 -0.1853 -0.6586  0.8846
   73MOL     H830392   2.717   6.663   2.316  0.3189 -1.9919 -1.7023
   73MOL     H930393   2.883   6.626   2.365  0.7546 -0.5322  1.4980
   73MOL    H1030394   2.777   6.675   2.074 -0.6291 -1.0859  0.0259
   73MOL    H1130395   2.793   6.444   2.236 -2.2113  0.1689 -1.3983
   73MOL    H1230396   2.923   6.434   2.112 -0.0720 -0.1037 -3.6765
   73MOL    H1330397   2.673   6.565   1.890 -0.8814 -0.9612  0.6500
   73MOL    H1430398   2.674   6.396   1.829 -1.6570 -1.4251  1.8524
   73MOL    H1530399   2.825   6.473   1.857  0.9020  2.7913  1.2701
   73MOL    H1630400   2.656   6.204   1.995  0.9478 -0.5611 -0.5738
   73MOL    H1730401   2.825   6.231   1.996  0.6521  2.9514 -0.0047
   73MOL    H1830402   2.724   6.211   2.141  0.8500 -1.7521 -0.9711
   73MOL    H1930403   2.491   6.403   2.058 -0.1043 -1.2201  1.3409
   73MOL    H2030404   2.558   6.560   2.107  1.1176 -0.4443  1.8607
   73MOL    H2130405   2.580   6.418   2.206  0.0874 -1.2325  0.6878
   73MOL    H2230406   2.838   6.781   2.288  0.3659 -0.4445  0.5676
   73MOL    C2330407   3.001   6.684   2.111 -0.0618  1.1155  1.1561
   73MOL    C2430408   3.002   6.822   2.045 -0.8396  0.0915 -0.1398
   73MOL    C2530409   2.936   6.825   1.903  0.1610 -0.5568 -0.0602
   73MOL    C2630410   2.845   6.947   1.880 -0.0465  0.0361 -0.5343
   73MOL    C2730411   2.906   7.082   1.909  0.9703 -0.7403 -0.2839
   73MOL    C2830412   2.817   6.944   1.737  0.4896  0.0145  0.0114
   73MOL    C2930413   2.723   6.943   1.965  0.3164 -0.7493 -0.2357
   73MOL    H3030414   3.065   6.672   2.198  1.2843 -1.1686 -0.1363
   73MOL    H3130415   3.053   6.618   2.043 -1.4080  1.9973 -0.7918
   73MOL    H3230416   2.950   6.879   2.122  1.4788  0.0713  1.5179
   73MOL    H3330417   2.887   6.733   1.873  1.0898 -1.8532  2.2667
   73MOL    H3430418   3.019   6.826   1.832  0.1594  0.2596 -0.0573
   73MOL    H3530419   2.827   7.153   1.883  0.6245 -0.2460  1.9948
   73MOL    H3630420   2.924   7.079   2.016  1.6768 -0.4064 -0.3920
   73MOL    H3730421   3.003   7.094   1.861  0.9396 -2.1509 -0.7161
   73MOL    H3830422   2.910   6.938   1.681 -0.3652 -0.7613 -1.3710
   73MOL    H3930423   2.752   6.863   1.704 -0.7921  0.4605  1.3988
   73MOL    H4030424   2.763   7.032   1.701 -0.7130 -1.0922 -0.9549
   73MOL    H4130425   2.741   6.933   2.072  0.8057  2.7366  0.0412
   73MOL    H4230426   2.656   6.862   1.933 -1.3162  1.0638 -1.5452
   73MOL    H4330427   2.672   7.039   1.965  2.7958  0.6263  1.7459
   73MOL    C4430428   3.146   6.867   2.044 -0.6543  1.0798  0.1083
   73MOL    C4530429   3.198   6.916   2.192  0.5338  0.1435  0.4971
   73MOL    C4630430   3.141   7.062   2.230 -0.0261 -0.6694 -0.6647
   73MOL    C4730431   3.132   7.110   2.376  0.0762 -0.4576  0.2538
   73MOL    C4830432   3.067   7.250   2.383  0.0818 -0.3240 -0.0414
   73MOL    C4930433   3.269   7.120   2.441 -0.3258 -0.9594 -0.1299
   73MOL    C5030434   3.045   7.011   2.454  0.0517  0.0269  0.0466
   73MOL    H5130435   3.211   6.784   2.016  0.2432  1.3897  1.2067
   73MOL    H5230436   3.159   6.951   1.976 -1.4250 -1.1766 -2.9109
   73MOL    H5330437   3.167   6.852   2.274  0.1325  0.1756  0.3682
   73MOL    H5430438   3.037   7.072   2.199 -0.3946 -3.3732 -0.4274
   73MOL    H5530439   3.195   7.137   2.173 -0.3996  2.1079  2.4815
   73MOL    H5630440   3.057   7.287   2.485 -0.5461 -2.1357  0.5718
   73MOL    H5730441   2.967   7.249   2.339  0.9763  1.6012 -2.2822
   73MOL    H5830442   3.136   7.317   2.332  0.2585  1.0196  1.9001
   73MOL    H5930443   3.314   7.024   2.466  0.7537 -0.4071  0.0640
   73MOL    H6030444   3.342   7.179   2.386 -1.5012 -0.0166 -0.6942
   73MOL    H6130445   3.262   7.181   2.531  1.1292 -0.2963 -0.4624
   73MOL    H6230446   3.099   6.921   2.485 -0.5262  0.2973  1.8761
   73MOL    H6330447   3.006   7.046   2.550  0.4426  0.3375  0.0954
   73MOL    H6430448   2.960   6.974   2.397  1.0354 -1.6856 -0.3638
   73MOL    C6530449   3.357   6.913   2.193  0.4274 -0.3437  1.0421
   73MOL    C6630450   3.413   6.766   2.225 -0.4205 -0.1082 -0.5816
   73MOL    C6730451   3.394   6.748   2.377  0.3099 -0.6806 -0.1374
   73MOL    C6830452   3.361   6.611   2.440 -0.4954  0.1991 -0.8451
   73MOL    C6930453   3.362   6.637   2.593 -0.0128 -0.2613 -1.1650
   73MOL    C7030454   3.226   6.572   2.389 -0.0651  0.7483 -1.0751
   73MOL    C7130455   3.462   6.505   2.399 -0.6260  0.1308 -0.4987
   73MOL    H7230456   3.383   6.934   2.089  2.1712 -2.6237  0.9680
   73MOL    H7330457   3.407   6.992   2.248  1.4429  0.7383 -1.3311
   73MOL    H7430458   3.342   6.699   2.176 -1.8244 -0.0664  1.3385
   73MOL    H7530459   3.317   6.817   2.410  2.1309  0.7673  1.2034
   73MOL    H7630460   3.481   6.789   2.430  0.0748 -1.1503  0.6175
   73MOL    H7730461   3.458   6.672   2.631 -0.8624  0.3919  0.4728
   73MOL    H7830462   3.295   6.716   2.628 -0.1991 -0.7055 -0.5021
   73MOL    H7930463   3.342   6.550   2.655 -1.0468  0.7430 -0.0634
   73MOL    H8030464   3.230   6.541   2.284 -3.5204  1.9577 -1.6153
   73MOL    H8130465   3.153   6.653   2.401  1.6942  2.2959 -0.5745
   73MOL    H8230466   3.190   6.490   2.451 -0.8941  0.8279 -1.4462
   73MOL    H8330467   3.444   6.414   2.458 -0.1137  0.1555 -0.3014
   73MOL    H8430468   3.563   6.540   2.420 -1.9262  1.7856  3.4441
   73MOL    H8530469   3.447   6.489   2.293 -1.4444 -0.9522 -0.2398
   73MOL    C8630470   3.557   6.727   2.175 -0.1664 -0.4138 -0.3018
   73MOL    C8730471   3.691   6.788   2.230  0.0806 -0.3164  0.4431
   73MOL    C8830472   3.704   6.940   2.182  0.2976  0.4575 -0.2114
   73MOL    C8930473   3.754   7.055   2.271 -0.6366  0.1006  0.5045
   73MOL    C9030474   3.651   7.088   2.384 -0.0427  0.2069 -0.3433
   73MOL    C9130475   3.773   7.178   2.174 -0.3522  0.6928 -0.6347
   73MOL    C9230476   3.893   7.014   2.328 -0.1318  0.8021  0.9464
   73MOL    H9330477   3.555   6.752   2.069  0.1557  1.2820  0.0626
   73MOL    H9430478   3.559   6.618   2.170  1.6185 -0.3131 -2.6441
   73MOL    H9530479   3.686   6.778   2.339 -1.6124  0.0815  0.4245
   73MOL    H9630480   3.615   6.983   2.136  1.3557  1.8232 -1.0319
   73MOL    H9730481   3.761   6.937   2.089  0.0483 -1.5500 -0.3341
   73MOL    H9830482   3.643   7.004   2.453  2.8295  0.0956 -0.0839
   73MOL    H9930483   3.556   7.114   2.337  0.5395 -0.6776 -2.0308
   73MOL   H10030484   3.699   7.168   2.440  1.7332 -0.0269 -1.5203
   73MOL   H10130485   3.693   7.189   2.101 -1.5365  0.7525  0.6559
   73MOL   H10230486   3.773   7.269   2.235  0.0645 -1.1035  2.1028
   73MOL   H10330487   3.870   7.176   2.124 -0.0325 -0.5714  0.0117
   73MOL   H10430488   3.893   6.927   2.394 -3.2796 -0.1332 -0.1969
   73MOL   H10530489   3.962   6.974   2.253  0.5073  0.3656  1.7597
   73MOL   H10630490   3.953   7.088   2.380  1.3061  0.4879 -0.2490
   73MOL   C10730491   3.824   6.705   2.182  0.0323  0.0107  0.3582
   73MOL   C10830492   3.845   6.677   2.030  0.3041 -1.2445  0.3292
   73MOL   C10930493   3.998   6.680   1.989 -0.4858  1.0833 -0.4106
   73MOL   C11030494   4.073   6.807   1.929  0.9983 -0.0952  0.0227
   73MOL   C11130495   4.006   6.843   1.799  0.0216  0.5038  0.1037
   73MOL   C11230496   4.221   6.773   1.897  0.3880 -0.1784  0.0450
   73MOL   C11330497   4.065   6.933   2.016 -0.3833 -0.0707 -0.0234
   73MOL   H11430498   3.818   6.607   2.230  1.5520 -1.0122 -1.4518
   73MOL   H11530499   3.913   6.754   2.220  0.9990 -0.3888 -1.3093
   73MOL   H11630500   3.795   6.756   1.974 -1.3744 -3.0728 -0.8494
   73MOL   H11730501   4.047   6.653   2.083 -1.1191  0.9852 -0.1068
   73MOL   H11830502   4.017   6.597   1.921 -0.4737  0.4657  0.3463
   73MOL   H11930503   3.901   6.858   1.825  0.6769  0.9890  2.5685
   73MOL   H12030504   4.062   6.919   1.746 -2.5675  2.5663  0.2233
   73MOL   H12130505   4.016   6.755   1.735  0.0796  0.2051  0.5137
   73MOL   H12230506   4.272   6.840   1.828  1.6715 -0.1844  0.9882
   73MOL   H12330507   4.237   6.678   1.846  1.0111  0.4400 -0.9210
   73MOL   H12430508   4.290   6.783   1.980  0.8858 -0.3316 -0.3509
   73MOL   H12530509   4.117   6.930   2.112  0.6017 -0.8805 -0.5642
   73MOL   H12630510   3.964   6.972   2.023 -0.7833 -0.7046 -1.9932
   73MOL   H12730511   4.117   7.006   1.954 -1.3651 -0.1791 -0.9782
   73MOL   C12830512   3.782   6.545   1.970  0.0802 -0.5576 -1.7576
   73MOL   C12930513   3.750   6.540   1.817 -0.2232 -0.7535 -0.0242
   73MOL   C13030514   3.713   6.397   1.775  0.2941 -0.1263  0.0862
   73MOL   C13130515   3.834   6.311   1.719  0.3103  0.0282  0.3290
   73MOL   C13230516   3.897   6.374   1.597  0.3221 -0.4466 -0.5281
   73MOL   C13330517   3.777   6.185   1.662  0.7463  0.5998 -0.4968
   73MOL   C13430518   3.935   6.272   1.825 -0.6021  0.5059  0.2778
   73MOL   H13530519   3.694   6.514   2.026  2.3732 -1.0159  1.7147
   73MOL   H13630520   3.854   6.466   1.994  2.4971  1.8083 -1.0171
   73MOL   H13730521   3.837   6.581   1.767 -1.4846  2.2923  0.1599
   73MOL   H13830522   3.668   6.351   1.863  0.6391 -0.7443 -0.0602
   73MOL   H13930523   3.621   6.404   1.718 -0.1631 -1.0717  0.6992
   73MOL   H14030524   3.830   6.415   1.521  0.0060 -3.5425 -1.9716
   73MOL   H14130525   3.963   6.305   1.544  2.1505  0.5523  0.4203
   73MOL   H14230526   3.952   6.463   1.628 -0.6366 -0.3125  0.8491
   73MOL   H14330527   3.853   6.116   1.624  1.3205  0.8625  0.1701
   73MOL   H14430528   3.705   6.194   1.581  0.6324  2.2891 -0.2232
   73MOL   H14530529   3.718   6.132   1.737  1.1255 -0.9941 -1.2916
   73MOL   H14630530   4.015   6.215   1.778 -0.2443  0.8753  0.4354
   73MOL   H14730531   3.985   6.362   1.862  0.7227  0.3343 -1.0180
   73MOL   H14830532   3.892   6.211   1.904  2.6012 -2.8897 -0.4375
   73MOL   C14930533   3.637   6.644   1.787 -0.0717 -0.4311 -0.7527
   73MOL   C15030534   3.604   6.664   1.637  0.7026  0.2729  0.0494
   73MOL   C15130535   3.455   6.707   1.611 -0.5213 -0.1057  0.1310
   73MOL   C15230536   3.331   6.616   1.623 -0.6631  0.0505 -0.5073
   73MOL   C15330537   3.210   6.692   1.571 -0.0200  0.1346  0.8452
   73MOL   C15430538   3.309   6.565   1.771 -0.0588  0.6692  1.0978
   73MOL   C15530539   3.351   6.489   1.532  0.1888 -0.1091  0.2994
   73MOL   H15630540   3.657   6.739   1.836 -0.1320 -0.7629 -0.0807
   73MOL   H15730541   3.555   6.605   1.848 -0.7168 -0.1288 -1.4059
   73MOL   H15830542   3.630   6.572   1.585 -4.7632 -1.5452  0.1567
   73MOL   H15930543   3.453   6.738   1.506  0.0650 -2.1534 -0.4950
   73MOL   H16030544   3.436   6.801   1.663 -0.2984  0.0742 -0.1123
   73MOL   H16130545   3.233   6.736   1.473  2.4460  1.1607  1.8362
   73MOL   H16230546   3.121   6.631   1.555  0.9820 -1.0110 -0.5656
   73MOL   H16330547   3.188   6.787   1.620  3.0078  1.7286 -0.6747
   73MOL   H16430548   3.218   6.506   1.780  0.7024 -0.4969  1.2977
   73MOL   H16530549   3.305   6.655   1.833  1.1322 -0.2865  2.6104
   73MOL   H16630550   3.390   6.504   1.811  0.6891  0.6401 -0.4224
   73MOL   H16730551   3.269   6.418   1.546  0.3606 -0.1485  1.1282
   73MOL   H16830552   3.375   6.526   1.432  1.5175  0.4684  0.8163
   73MOL   H16930553   3.441   6.431   1.553  1.0453  1.5257  1.2766
   73MOL   C17030554   3.713   6.768   1.585 -0.2278  0.3652 -0.0830
   73MOL   C17130555   3.717   6.798   1.424 -0.6742 -0.4542 -0.2858
   73MOL   C17230556   3.805   6.679   1.368  0.0350  0.5244 -0.7232
   73MOL   C17330557   3.769   6.622   1.229 -0.6968 -0.0883 -0.5792
   73MOL   C17430558   3.663   6.512   1.247  0.5143  0.0041 -1.1847
   73MOL   C17530559   3.890   6.554   1.168 -0.4981 -0.3734 -0.1114
   73MOL   C17630560   3.724   6.733   1.129  0.5769  0.2869  0.8286
   73MOL   H17730561   3.811   6.738   1.620 -0.2266  2.3556  1.7325
   73MOL   H17830562   3.692   6.859   1.642  0.5759 -0.1950  1.1346
   73MOL   H17930563   3.619   6.800   1.376  0.0119 -1.3681 -1.7493
   73MOL   H18030564   3.911   6.700   1.379 -0.1229  0.7709  0.4817
   73MOL   H18130565   3.808   6.595   1.437  0.4832 -0.2465 -1.6709
   73MOL   H18230566   3.636   6.456   1.157 -1.2437  2.1840 -2.0541
   73MOL   H18330567   3.691   6.444   1.328 -0.0830  2.3507  1.0158
   73MOL   H18430568   3.574   6.568   1.275  1.4005  0.2126  1.3549
   73MOL   H18530569   3.986   6.604   1.180 -1.8888  2.4042 -0.1520
   73MOL   H18630570   3.912   6.456   1.212 -0.6534  0.5585  2.1007
   73MOL   H18730571   3.889   6.530   1.062  0.2391 -0.9845  0.0117
   73MOL   H18830572   3.644   6.799   1.163 -0.2914 -0.2854 -0.0811
   73MOL   H18930573   3.806   6.798   1.099  0.3696  1.2213  2.2291
   73MOL   H19030574   3.689   6.685   1.038 -1.7739  0.7444  1.4678
   73MOL   C19130575   3.797   6.933   1.403  0.3320  0.3498  0.1910
   73MOL   C19230576   3.718   7.056   1.382  0.1270  0.1912 -0.2498
   73MOL   C19330577   3.787   7.193   1.344  0.1791 -0.4777 -0.2641
   73MOL   C19430578   3.849   7.213   1.199  0.9354 -0.3880  0.0080
   73MOL   C19530579   3.998   7.178   1.192  0.6023 -0.0690 -0.7201
   73MOL   C19630580   3.829   7.364   1.164 -0.7788 -0.2985  0.2839
   73MOL   C19730581   3.781   7.131   1.088 -0.1236 -0.5213 -0.5004
   73MOL   H19830582   3.869   6.947   1.484  1.4165  1.2562 -0.8981
   73MOL   H19930583   3.865   6.905   1.322  0.1447  0.1643  0.0989
   73MOL   H20030584   3.644   7.030   1.305  1.0918  0.4880 -1.2912
   73MOL   H20130585   3.864   7.212   1.419  1.5619  1.4763 -2.1391
   73MOL   H20230586   3.709   7.268   1.351 -0.3123 -1.1211  1.5020
   73MOL   H20330587   4.034   7.171   1.089 -0.0881 -2.0650 -0.8399
   73MOL   H20430588   4.044   7.261   1.245 -0.0860 -0.0960 -0.0838
   73MOL   H20530589   4.023   7.087   1.246  1.4512  0.9503  0.6319
   73MOL   H20630590   3.894   7.384   1.079  0.0665 -2.9567  0.2588
   73MOL   H20730591   3.730   7.383   1.122 -1.1963 -0.2098  1.2824
   73MOL   H20830592   3.845   7.439   1.241 -0.7840  1.1924 -1.1451
   73MOL   H20930593   3.828   7.149   0.992 -1.0646 -2.7932 -1.4256
   73MOL   H21030594   3.776   7.025   1.112 -0.1186 -0.6032 -0.8556
   73MOL   H21130595   3.680   7.169   1.074  0.5477  1.2666 -0.6495
   73MOL   C21230596   3.625   7.080   1.509  0.1597  0.2852  0.3762
   73MOL   C21330597   3.531   7.209   1.504 -0.0342  0.1393 -0.5096
   73MOL   C21430598   3.430   7.207   1.623 -0.0669  0.5105  0.2827
   73MOL   C21530599   3.474   7.208   1.774  1.0577  0.2809 -0.3647
   73MOL   C21630600   3.597   7.287   1.798  0.5630  0.5818  0.2976
   73MOL   C21730601   3.365   7.284   1.858 -0.3737  0.8957 -1.1130
   73MOL   C21830602   3.494   7.065   1.828  0.5510  0.3029 -0.0619
   73MOL   H21930603   3.566   6.992   1.532 -2.7600  1.7227 -1.3000
   73MOL   H22030604   3.695   7.098   1.591 -1.1882 -0.1604  1.6327
   73MOL   H22130605   3.597   7.295   1.520 -0.0818  0.0759  0.0491
   73MOL   H22230606   3.356   7.127   1.610  0.5334 -0.2636  1.5152
   73MOL   H22330607   3.369   7.297   1.625 -3.0754 -1.4640  1.2635
   73MOL   H22430608   3.640   7.264   1.896  0.3959  0.4898  0.3484
   73MOL   H22530609   3.595   7.396   1.792  3.0555  0.5750 -1.8398
   73MOL   H22630610   3.670   7.247   1.727 -1.2192 -1.6294 -0.3651
   73MOL   H22730611   3.369   7.388   1.827  0.9896  1.6121  1.3233
   73MOL   H22830612   3.264   7.243   1.847  0.4160 -0.9151 -1.7685
   73MOL   H22930613   3.388   7.282   1.965 -0.2171 -0.6590 -1.1524
   73MOL   H23030614   3.510   7.064   1.936 -0.7599  0.4654  0.1428
   73MOL   H23130615   3.585   7.026   1.782  0.0965  0.3026 -0.9815
   73MOL   H23230616   3.414   6.997   1.798  1.3927 -0.2739 -1.0254
   73MOL   C23330617   3.454   7.223   1.376 -0.7210  0.2192 -0.0587
   73MOL   C23430618   3.401   7.373   1.339  0.6099  0.7545  0.0569
   73MOL   C23530619   3.514   7.474   1.339 -0.1974  0.0121 -0.0510
   73MOL   C23630620   3.474   7.609   1.403 -0.6294 -0.1877  0.2303
   73MOL   C23730621   3.608   7.688   1.413 -0.3989 -0.1526  0.4263
   73MOL   C23830622   3.380   7.695   1.323  0.0163  0.0092  0.3802
   73MOL   C23930623   3.430   7.588   1.549 -0.1602 -0.1000 -0.3143
   73MOL   H24030624   3.376   7.148   1.384  1.2817 -2.0831 -1.5460
   73MOL   H24130625   3.508   7.189   1.288  2.4535 -1.1356  2.3183
   73MOL   H24230626   3.331   7.396   1.419  0.0248  1.0347 -0.5277
   73MOL   H24330627   3.602   7.443   1.395 -1.6290 -1.9063  1.1830
   73MOL   H24430628   3.553   7.479   1.238 -0.3164 -1.6283 -0.1781
   73MOL   H24530629   3.643   7.716   1.314  2.5502 -1.3547  1.0657
   73MOL   H24630630   3.691   7.629   1.452 -0.2054  0.1620  0.4898
   73MOL   H24730631   3.606   0.015   1.469 -2.4998  0.6771 -0.9858
   73MOL   H24830632   3.289   7.641   1.297 -0.2413  0.2265  0.8098
   73MOL   H24930633   3.347   0.016   1.380 -0.2016  0.6471 -0.7010
   73MOL   H25030634   3.421   7.729   1.228  1.6967  0.7922  1.3768
   73MOL   H25130635   3.482   7.501   1.589 -1.4579 -1.6163 -1.8018
   73MOL   H25230636   3.460   7.673   1.610  0.8121 -1.4042  1.0590
   73MOL   H25330637   3.322   7.579   1.549 -0.1708 -0.3635 -2.9726
   73MOL   C25430638   3.319   7.373   1.206 -0.8038 -0.2308 -0.2133
   73MOL   C25530639   3.179   7.310   1.200  0.4506  0.1030  0.2215
   73MOL   C25630640   3.128   7.304   1.051  0.4192  0.0927 -0.1911
   73MOL   C25730641   3.192   7.224   0.938 -0.0875 -0.1043  0.2317
   73MOL   C25830642   3.230   7.082   0.974  0.4057 -0.6583 -0.2474
   73MOL   C25930643   3.317   7.300   0.881 -0.1539 -0.2911 -0.4628
   73MOL   C26030644   3.088   7.208   0.828  0.2914  0.3971  0.1750
   73MOL   H26130645   3.384   7.317   1.139  0.4079  0.2910  0.5330
   73MOL   H26230646   3.305   7.477   1.174  2.1383 -0.2479 -1.6834
   73MOL   H26330647   3.186   7.208   1.238  1.4063 -0.7802 -2.2731
   73MOL   H26430648   3.027   7.264   1.055  0.6555 -0.3678  1.7825
   73MOL   H26530649   3.114   7.407   1.018  0.6237  0.3178  0.4138
   73MOL   H26630650   3.150   7.028   1.025 -0.5566 -0.1521 -1.1818
   73MOL   H26730651   3.313   7.072   1.043 -1.5705 -0.8612  2.1435
   73MOL   H26830652   3.260   7.011   0.897  1.2719 -0.2717 -0.2646
   73MOL   H26930653   3.301   7.407   0.892  1.8449 -0.0169 -0.1320
   73MOL   H27030654   3.336   7.281   0.775  2.7577  2.1062 -0.4238
   73MOL   H27130655   3.409   7.267   0.930 -1.6257 -0.5471  2.2405
   73MOL   H27230656   3.002   7.152   0.866  0.8437 -0.3492  0.3191
   73MOL   H27330657   3.061   7.312   0.805  0.9932  0.3719 -0.7901
   73MOL   H27430658   3.133   7.175   0.735  2.6502  1.3825  0.9443
   73MOL   C27530659   3.071   7.379   1.295  0.0010  0.1594 -0.5530
   73MOL   C27630660   2.923   7.327   1.302  0.3458  0.4410 -0.1372
   73MOL   C27730661   2.913   7.179   1.356  0.5010  0.1205 -0.5897
   73MOL   C27830662   2.816   7.079   1.287  0.5184 -0.3703 -0.4176
   73MOL   C27930663   2.666   7.112   1.301  0.1384 -0.0202  0.6584
   73MOL   C28030664   2.847   7.065   1.140 -0.1035  0.1545 -0.8161
   73MOL   C28130665   2.818   6.945   1.363 -0.3949  0.0186  0.8210
   73MOL   H28230666   3.119   7.406   1.389  0.6174 -0.0639 -0.8049
   73MOL   H28330667   3.075   7.475   1.244 -1.4881 -0.0405 -1.0808
   73MOL   H28430668   2.884   7.347   1.202 -3.0655 -0.1835  1.0099
   73MOL   H28530669   2.891   7.201   1.460 -1.5920  0.4178 -1.0622
   73MOL   H28630670   3.009   7.129   1.357  0.6965  0.4989  0.8119
   73MOL   H28730671   2.642   7.203   1.248 -0.4120  0.9174  2.4756
   73MOL   H28830672   2.605   7.029   1.265  0.5534 -0.3050  0.5940
   73MOL   H28930673   2.636   7.121   1.405 -0.6042  2.1570  0.2780
   73MOL   H29030674   2.942   7.017   1.118 -0.3981  0.1536 -2.1025
   73MOL   H29130675   2.841   7.157   1.082  0.3178  0.3040 -0.6254
   73MOL   H29230676   2.775   7.000   1.091 -1.0693  1.3113 -0.9485
   73MOL   H29330677   2.757   6.869   1.313  0.5836 -1.8654  2.4007
   73MOL   H29430678   2.775   6.940   1.463 -0.1750  2.3939  1.0528
   73MOL   H29530679   2.921   6.910   1.357 -0.6036 -0.3893 -0.4919
   73MOL   C29630680   2.844   7.424   1.390  0.4232  0.1954 -0.1279
   73MOL   C29730681   2.822   7.564   1.332 -0.1381  0.4254  0.1526
   73MOL   C29830682   2.771   7.653   1.447  1.2934 -0.5069 -0.0639
   73MOL   C29930683   2.870   7.748   1.516 -0.3745 -0.5255  0.2088
   73MOL   C30030684   2.915   0.097   1.421 -0.4201  0.4067  0.0263
   73MOL   C30130685   2.801   0.049   1.633  0.1743 -0.3468 -0.0465
   73MOL   C30230686   2.998   7.676   1.560 -0.1890 -0.1591  0.2375
   73MOL   H30330687   2.894   7.433   1.487  1.3106  2.1189 -0.7385
   73MOL   H30430688   2.745   7.381   1.406  1.5727 -2.2507  0.6388
   73MOL   H30530689   2.920   7.600   1.301  0.9189 -0.3730  2.4566
   73MOL   H30630690   2.712   7.594   1.517  0.0795 -0.9178 -1.4102
   73MOL   H30730691   2.699   7.725   1.408  1.5467 -1.2685 -2.0225
   73MOL   H30830692   2.960   0.061   1.328  1.0715  3.1058 -0.3715
   73MOL   H30930693   2.840   0.171   1.394  0.6239  1.1019 -1.0409
   73MOL   H31030694   3.000   0.152   1.460 -1.0378  1.2052  0.2600
   73MOL   H31130695   2.776   7.746   1.714  2.6544 -1.0159  0.1871
   73MOL   H31230696   2.874   0.109   1.688 -0.5036 -0.8497  1.4405
   73MOL   H31330697   2.717   0.114   1.610  1.4981  0.8892 -1.5172
   73MOL   H31430698   2.975   7.577   1.602  0.1499 -0.2278  0.2633
   73MOL   H31530699   3.056   7.653   1.470  0.0174  0.4146  0.2232
   73MOL   H31630700   3.064   7.732   1.626 -1.3023  2.1310 -0.5536
   73MOL   C31730701   2.721   7.562   1.209 -0.4454  0.2763 -0.1394
   73MOL   C31830702   2.763   7.636   1.082  0.2530  0.1139 -0.0089
   73MOL   C31930703   2.654   7.593   0.976  0.6561 -0.5768 -0.4436
   73MOL   C32030704   2.665   7.459   0.896 -0.0483 -0.4069 -0.1541
   73MOL   C32130705   2.606   7.335   0.969  0.6132 -0.0844 -0.1515
   73MOL   C32230706   2.807   7.426   0.846  0.5642 -0.6494  0.2061
   73MOL   C32330707   2.575   7.474   0.769  0.6039 -0.7446 -0.6074
   73MOL   H32430708   2.697   7.459   1.186 -1.0492  0.2077  0.8020
   73MOL   H32530709   2.621   7.590   1.241 -0.6437 -0.5389 -0.0519
   73MOL   H32630710   2.863   7.605   1.051 -0.4606 -1.2748 -0.9901
   73MOL   H32730711   2.658   7.670   0.900 -1.2183 -0.3490 -0.3261
   73MOL   H32830712   2.560   7.597   1.031  1.5815  0.3039  1.0958
   73MOL   H32930713   2.654   7.306   1.063  0.0415 -0.0464  0.1525
   73MOL   H33030714   2.607   7.249   0.903 -1.5962  0.8228 -1.4265
   73MOL   H33130715   2.500   7.348   0.987  0.6610  0.8379 -0.5003
   73MOL   H33230716   2.815   7.338   0.783 -1.6126 -0.5767 -0.1955
   73MOL   H33330717   2.854   7.508   0.791  1.7512 -0.6181  1.2272
   73MOL   H33430718   2.872   7.394   0.928  1.1744 -1.2117 -0.4871
   73MOL   H33530719   2.472   7.499   0.794  1.1768 -1.0142  2.1200
   73MOL   H33630720   2.570   7.378   0.717 -2.0808 -0.8023 -0.3053
   73MOL   H33730721   2.618   7.552   0.705 -0.4910 -0.3066 -0.8184
   73MOL   C33830722   2.754   0.020   1.105  1.0142 -0.1682  0.3237
   73MOL   C33930723   2.845   0.116   1.010  0.1095  0.5916 -0.1330
   73MOL   C34030724   2.989   0.093   1.053 -0.3214  0.4641  0.1693
   73MOL   C34130725   3.098   0.082   0.943  0.5342 -0.6498 -0.1272
   73MOL   C34230726   3.229   0.080   1.022 -0.8292  0.4440  0.3952
   73MOL   C34330727   3.088   7.717   0.867  0.6411  0.2143  0.2047
   73MOL   C34430728   3.087   0.204   0.849  0.2832  0.3896 -0.3662
   73MOL   H34530729   2.775   0.036   1.210  0.5356  0.1088  0.3801
   73MOL   H34630730   2.650   0.051   1.103  1.7010  2.1796  0.3087
   73MOL   H34730731   2.834   0.106   0.902  0.9469  2.0692 -0.3687
   73MOL   H34830732   2.993   0.000   1.110 -3.5059  0.5308  0.5920
   73MOL   H34930733   3.014   0.170   1.126 -0.1440  0.4586  0.1156
   73MOL   H35030734   3.250   0.173   1.075 -1.9794  0.3217  1.0971
   73MOL   H35130735   3.211   0.008   1.102 -0.4611  0.4660  0.5007
   73MOL   H35230736   3.311   0.040   0.963 -0.4339 -0.3464  1.4665
   73MOL   H35330737   3.003   7.708   0.799 -0.7477  1.0549  1.7745
   73MOL   H35430738   3.175   7.695   0.806  0.2425  0.9006 -0.6193
   73MOL   H35530739   3.072   7.640   0.942 -1.9866  0.7156  0.2323
   73MOL   H35630740   2.991   0.214   0.799  0.3292  1.5300 -0.2438
   73MOL   H35730741   3.104   0.295   0.906 -0.1057  0.5556 -0.5155
   73MOL   H35830742   3.164   0.183   0.775  0.1670  1.1444 -0.7009
   73MOL   C35930743   2.794   0.264   1.021 -0.5830 -0.4421 -0.5568
   73MOL   C36030744   2.665   0.309   0.946 -0.1023  0.1758 -0.0309
   73MOL   C36130745   2.700   0.329   0.793 -0.6277 -0.1178  0.7318
   73MOL   C36230746   2.590   0.281   0.691  0.3072 -0.4633  0.5333
   73MOL   C36330747   2.450   0.343   0.736  0.0219  0.9209 -0.3654
   73MOL   C36430748   2.592   0.126   0.693 -0.0480  0.3483 -0.3892
   73MOL   C36530749   2.599   0.321   0.548 -0.3739 -0.1548 -0.5689
   73MOL   H36630750   2.871   0.337   0.997 -1.2426  0.3140 -0.4125
   73MOL   H36730751   2.790   0.263   1.130 -2.9140 -0.2474 -0.6240
   73MOL   H36830752   2.599   0.223   0.957 -0.8184  0.4365 -2.1801
   73MOL   H36930753   2.728   0.430   0.766  0.9918 -0.4818  0.9783
   73MOL   H37030754   2.795   0.282   0.769 -1.1050 -0.5563 -0.2967
   73MOL   H37130755   2.436   0.326   0.843  1.2694 -1.0220 -0.4817
   73MOL   H37230756   2.448   0.450   0.717 -1.0148  0.9288 -0.2714
   73MOL   H37330757   2.365   0.297   0.685 -1.1208  1.8349  0.6705
   73MOL   H37430758   2.689   0.081   0.673 -1.1409 -2.5518  0.5640
   73MOL   H37530759   2.512   0.088   0.629  0.0759  0.8942 -0.8657
   73MOL   H37630760   2.572   0.092   0.795  1.4339 -1.0628 -0.5461
   73MOL   H37730761   2.517   0.284   0.486 -2.0719  2.5907 -0.0831
   73MOL   H37830762   2.691   0.281   0.506 -1.7059 -1.8765 -1.8966
   73MOL   H37930763   2.614   0.427   0.526  1.8169 -0.6365 -1.6177
   73MOL   C38030764   2.608   0.444   1.004  0.4200 -0.1697  0.1375
   73MOL   C38130765   2.503   0.434   1.120  0.5416 -0.3384  0.6503
   73MOL   C38230766   2.420   0.558   1.152  0.4466  0.4458  0.2549
   73MOL   C38330767   2.265   0.558   1.128 -0.1578  0.1314  0.2675
   73MOL   C38430768   2.179   0.465   1.225 -0.1960 -0.3628 -0.7515
   73MOL   C38530769   2.241   0.528   0.980  0.5823 -0.1297 -0.3985
   73MOL   C38630770   2.209   0.701   1.144 -0.0917 -0.5147 -0.8822
   73MOL   H38730771   2.557   0.489   0.919  1.1032 -0.5594 -0.4856
   73MOL   H38830772   2.682   0.517   1.034  0.2211  0.7874 -1.6532
   73MOL   H38930773   2.433   0.356   1.089 -0.1313  0.6281 -0.2882
   73MOL   H39030774   2.444   0.581   1.256  1.2253  2.1514 -0.2694
   73MOL   H39130775   2.471   0.637   1.095 -1.1694  2.2517  1.2496
   73MOL   H39230776   2.182   0.489   1.332 -0.0524 -0.4573 -0.7348
   73MOL   H39330777   2.077   0.468   1.187  0.3614 -1.7989 -2.4101
   73MOL   H39430778   2.222   0.365   1.216 -0.8386 -0.9468  2.1868
   73MOL   H39530779   2.257   0.420   0.968 -2.3275 -0.5048 -1.2982
   73MOL   H39630780   2.299   0.589   0.912  0.8412  2.4085  2.0287
   73MOL   H39730781   2.142   0.556   0.944 -0.0602  0.7432  1.9467
   73MOL   H39830782   2.220   0.740   1.245  1.6896 -1.1750 -0.7903
   73MOL   H39930783   2.101   0.706   1.133 -0.5811 -2.1220  2.4064
   73MOL   H40030784   2.248   0.765   1.066 -1.8143  2.3052  0.5121
   73MOL   C40130785   2.560   0.379   1.251 -0.2666 -0.2547  0.6934
   73MOL   C40230786   2.673   0.457   1.326  0.7872  0.4702 -0.5545
   73MOL   C40330787   2.655   0.461   1.477 -0.0761 -0.4136 -0.6662
   73MOL   C40430788   2.763   0.541   1.560 -0.2023 -1.0337  0.1695
   73MOL   C40530789   2.759   0.696   1.522  0.2226  0.1615 -0.3699
   73MOL   C40630790   2.912   0.497   1.530  0.1037  0.3642 -0.0210
   73MOL   C40730791   2.739   0.519   1.712  0.1143 -0.1215  0.5805
   73MOL   H40830792   2.472   0.367   1.314 -2.6160 -1.9637 -2.7417
   73MOL   H40930793   2.587   0.274   1.235  1.8562  0.4799 -0.6716
   73MOL   H41030794   2.761   0.404   1.290 -0.0584 -0.1816 -1.7149
   73MOL   H41130795   2.665   0.362   1.522  3.2878 -0.0984 -0.5450
   73MOL   H41230796   2.557   0.502   1.500 -0.7581 -1.5521 -1.4964
   73MOL   H41330797   2.834   0.760   1.569  1.8609 -1.3180 -0.8862
   73MOL   H41430798   2.671   0.739   1.569  0.6839  2.0774 -1.2069
   73MOL   H41530799   2.764   0.700   1.413  0.8573  0.0064 -0.3538
   73MOL   H41630800   2.931   0.520   1.425 -1.0009 -0.5961 -0.4464
   73MOL   H41730801   2.916   0.389   1.540  0.6700  0.4876  1.1147
   73MOL   H41830802   2.987   0.544   1.594  2.3542  0.0909 -2.3912
   73MOL   H41930803   2.662   0.591   1.738  0.2896  0.1016  0.4867
   73MOL   H42030804   2.716   0.422   1.755  0.2511 -1.6449 -2.6173
   73MOL   H42130805   2.828   0.554   1.765 -0.6837  1.0151  1.1871
   73MOL   H42230806   2.671   0.562   1.297  1.8280  0.6591  0.0530
   74MOL     C130807   6.895   2.503   4.588 -0.5177 -0.1663  0.0734
   74MOL     C230808   6.851   2.648   4.586 -0.2612  0.9692 -0.1504
   74MOL     C330809   6.769   2.673   4.452  0.4109 -0.0025  0.1733
   74MOL     C430810   6.648   2.780   4.440 -0.3950  0.2668 -0.2573
   74MOL     C530811   6.692   2.926   4.462 -0.1386  0.1228  0.1997
   74MOL     C630812   6.584   2.763   4.301  0.1264  0.4600  0.6488
   74MOL     C730813   6.538   2.737   4.543 -0.0622 -0.5815  0.4222
   74MOL     H830814   6.823   2.432   4.548 -1.7679  0.5309  1.0588
   74MOL     H930815   6.989   2.502   4.533 -0.6884  2.5069 -0.3506
   74MOL    H1030816   6.789   2.653   4.675 -1.3426 -1.9199 -0.6746
   74MOL    H1130817   6.750   2.576   4.407 -0.3434  0.4950 -0.5871
   74MOL    H1230818   6.844   2.709   4.381  1.7232  0.1078  1.5781
   74MOL    H1330819   6.730   2.926   4.564 -1.4427 -1.5244  0.7099
   74MOL    H1430820   6.610   2.997   4.468  0.5714  0.9759  0.0240
   74MOL    H1530821   6.776   2.971   4.409 -0.3565  1.0789  0.6561
   74MOL    H1630822   6.488   2.813   4.287  1.5371  3.0334 -0.1578
   74MOL    H1730823   6.657   2.794   4.225  1.5694 -1.0465  1.3826
   74MOL    H1830824   6.568   2.660   4.267 -0.7959  0.1664  1.9639
   74MOL    H1930825   6.453   2.806   4.544  1.1375  1.1525 -3.9274
   74MOL    H2030826   6.587   2.729   4.639  1.2714 -2.4048 -0.3851
   74MOL    H2130827   6.496   2.638   4.527  0.4320 -0.3946 -2.3685
   74MOL    H2230828   6.927   2.474   4.688  1.1822  0.0845 -0.3679
   74MOL    C2330829   6.975   2.743   4.589 -0.5016  0.1651  0.6211
   74MOL    C2430830   7.060   2.753   4.720  0.0217 -0.0003 -0.1133
   74MOL    C2530831   6.994   2.832   4.835  0.0609 -0.4955  0.2887
   74MOL    C2630832   7.000   2.778   4.977 -0.3589 -0.0362  0.2795
   74MOL    C2730833   6.913   2.872   5.062 -0.1529 -0.1013 -0.1425
   74MOL    C2830834   6.937   2.631   4.991  0.4123 -0.1962  0.7847
   74MOL    C2930835   7.141   2.777   5.027 -0.6923 -0.8056  0.0779
   74MOL    H3030836   7.032   2.742   4.496 -0.8608  1.2902  0.3711
   74MOL    H3130837   6.942   2.847   4.577  0.4971  0.5156  0.8666
   74MOL    H3230838   7.081   2.650   4.748 -0.3443 -0.6154 -2.0466
   74MOL    H3330839   6.889   2.825   4.810 -0.5301  0.9240  2.2553
   74MOL    H3430840   7.018   2.937   4.826  1.2743 -0.9557 -2.1800
   74MOL    H3530841   6.971   2.953   5.107  0.5697 -0.1205 -1.0274
   74MOL    H3630842   6.827   2.915   5.010  0.4483  2.3462  0.8372
   74MOL    H3730843   6.875   2.823   5.152 -0.2886  1.1702  0.5003
   74MOL    H3830844   6.999   2.557   4.942 -0.1611 -1.0234  1.2951
   74MOL    H3930845   6.935   2.601   5.096 -0.4943 -1.0410  0.5307
   74MOL    H4030846   6.833   2.633   4.958  1.2795  0.7505 -2.0068
   74MOL    H4130847   7.142   2.766   5.135 -2.3970 -0.4254  0.1361
   74MOL    H4230848   7.215   2.849   4.993 -1.4111 -0.4896 -0.8477
   74MOL    H4330849   7.173   2.677   4.997 -0.7201 -0.3890 -1.3826
   74MOL    C4430850   7.198   2.824   4.690  0.2852 -0.1558  0.0195
   74MOL    C4530851   7.308   2.730   4.627 -0.3462 -0.2482  0.7100
   74MOL    C4630852   7.370   2.622   4.724 -0.3949 -0.1504 -0.0017
   74MOL    C4730853   7.398   2.481   4.658 -0.3048 -0.4339  0.4057
   74MOL    C4830854   7.273   2.395   4.671 -0.0097 -0.3969  0.3234
   74MOL    C4930855   7.515   2.414   4.754 -0.2423  0.3929 -0.2330
   74MOL    C5030856   7.450   2.480   4.517 -0.0520  0.4189  0.0370
   74MOL    H5130857   7.172   2.909   4.627 -2.1082  1.7545  3.4450
   74MOL    H5230858   7.250   2.865   4.777 -1.1491  1.5013  0.1166
   74MOL    H5330859   7.246   2.672   4.558  0.7918 -0.7306  0.0697
   74MOL    H5430860   7.299   2.612   4.806 -0.3090 -0.2384  0.0629
   74MOL    H5530861   7.457   2.663   4.774 -0.1482  1.0351 -1.3740
   74MOL    H5630862   7.231   2.391   4.771  1.7546 -0.1101  1.1009
   74MOL    H5730863   7.295   2.296   4.630 -0.9309 -0.0424 -1.0410
   74MOL    H5830864   7.199   2.438   4.603  0.3303 -0.9920 -0.4337
   74MOL    H5930865   7.609   2.470   4.750 -0.5496  0.8880 -0.5753
   74MOL    H6030866   7.485   2.400   4.858 -1.8496  2.5428 -0.3678
   74MOL    H6130867   7.538   2.316   4.712  1.6348  1.2095 -1.1931
   74MOL    H6230868   7.548   2.529   4.513  0.9949 -1.5830  0.6625
   74MOL    H6330869   7.451   2.381   4.472 -2.1426  0.2075  0.4082
   74MOL    H6430870   7.380   2.528   4.449  0.6107 -1.7287 -2.2303
   74MOL    C6530871   7.419   2.806   4.554  1.0699 -0.3722 -0.5657
   74MOL    C6630872   7.384   2.919   4.450 -0.3569  0.2378 -0.4443
   74MOL    C6730873   7.294   2.856   4.346  0.5616  0.2001  0.7970
   74MOL    C6830874   7.210   2.953   4.254  0.3787 -0.4910 -0.4078
   74MOL    C6930875   7.291   3.028   4.152 -0.1806  0.5672  0.0223
   74MOL    C7030876   7.100   2.873   4.175  0.2608  0.1587 -0.0464
   74MOL    C7130877   7.126   3.055   4.345  0.0222 -0.2375  0.1259
   74MOL    H7230878   7.476   2.858   4.630  0.9253 -0.1857 -0.5841
   74MOL    H7330879   7.497   2.736   4.526  1.1072 -0.1150 -1.1114
   74MOL    H7430880   7.340   3.003   4.504 -1.8401 -0.7498 -0.0674
   74MOL    H7530881   7.213   2.810   4.403  0.1670  3.0732  2.6379
   74MOL    H7630882   7.344   2.774   4.293 -4.2562 -1.3865 -1.5734
   74MOL    H7730883   7.336   3.114   4.200 -1.1628  2.1268 -1.7772
   74MOL    H7830884   7.369   2.960   4.116  0.3459  0.8314  0.6492
   74MOL    H7930885   7.225   3.064   4.073  0.6658 -0.2414 -1.0630
   74MOL    H8030886   7.027   2.831   4.245  0.0062 -0.5490 -0.7208
   74MOL    H8130887   7.127   2.776   4.133  2.9449  0.8696  0.0004
   74MOL    H8230888   7.036   2.923   4.102 -0.3244  0.7417  0.8576
   74MOL    H8330889   7.192   3.127   4.393 -0.1579 -0.4664  0.7114
   74MOL    H8430890   7.078   2.989   4.417 -1.9053  0.4696 -0.4951
   74MOL    H8530891   7.043   3.112   4.305  0.0842 -0.2476 -0.0182
   74MOL    C8630892   7.520   2.980   4.394 -0.3583 -0.1258  0.4836
   74MOL    C8730893   7.629   3.048   4.482 -0.4748  0.2326 -0.5555
   74MOL    C8830894   7.585   3.184   4.549 -0.9266 -0.4911  0.0491
   74MOL    C8930895   7.630   3.221   4.694  0.2026 -0.4678  0.4271
   74MOL    C9030896   0.025   3.234   4.686  0.0973 -0.0339 -0.0607
   74MOL    C9130897   7.577   3.120   4.790  0.8542  0.8925 -0.6551
   74MOL    C9230898   7.582   3.353   4.732 -0.2252 -0.4062 -0.2179
   74MOL    H9330899   7.495   3.046   4.310 -0.2543 -0.7191 -0.0150
   74MOL    H9430900   7.570   2.898   4.342  1.0255  2.4370 -2.4286
   74MOL    H9530901   7.667   2.979   4.557  1.9446  0.6608 -1.3526
   74MOL    H9630902   7.477   3.193   4.552 -1.4709 -6.0028  2.2835
   74MOL    H9730903   7.618   3.271   4.491  0.0712 -1.7160 -1.2528
   74MOL    H9830904   0.058   3.298   4.604  1.4040  2.7302  2.5184
   74MOL    H9930905   0.067   3.134   4.679 -0.1022 -0.0802 -0.6525
   74MOL   H10030906   0.075   3.272   4.774 -0.2841  0.1086  0.0961
   74MOL   H10130907   7.468   3.116   4.784  0.6772  2.1206  1.1892
   74MOL   H10230908   7.620   3.022   4.770  2.5030  1.5896 -0.5982
   74MOL   H10330909   7.596   3.156   4.891  2.9556 -1.1853 -0.2746
   74MOL   H10430910   7.473   3.348   4.731 -0.2268 -0.2946 -0.6620
   74MOL   H10530911   7.616   3.387   4.830  1.0650 -1.1541 -0.3912
   74MOL   H10630912   7.605   3.425   4.654  1.3749 -1.3610 -0.6524
   74MOL   C10730913   7.764   3.073   4.394  0.7098  0.3828  0.3148
   74MOL   C10830914   0.118   2.976   4.423 -0.4799 -0.2650 -0.0650
   74MOL   C10930915   0.078   2.826   4.407  0.5885  0.1703 -0.5336
   74MOL   C11030916   0.123   2.749   4.534  0.4455 -0.4803  0.7803
   74MOL   C11130917   0.096   2.597   4.507  0.4116  0.2491 -0.8010
   74MOL   C11230918   0.053   2.790   4.659 -0.1225 -0.2042  0.1887
   74MOL   C11330919   0.276   2.758   4.556  0.1895 -0.3585  0.2618
   74MOL   H11430920   0.032   3.175   4.412  0.5654  0.3470  0.7852
   74MOL   H11530921   7.743   3.061   4.287  0.4668  2.3986  0.1063
   74MOL   H11630922   0.147   2.995   4.526  0.2238 -0.0821 -0.2925
   74MOL   H11730923   7.737   2.807   4.402  0.3573  0.8987  1.3686
   74MOL   H11830924   0.123   2.784   4.317  0.3144 -0.7127 -0.2580
   74MOL   H11930925   7.756   2.586   4.482  0.0232  1.0065  0.4690
   74MOL   H12030926   0.159   2.559   4.427  0.5203  0.9390 -1.0410
   74MOL   H12130927   0.106   2.552   4.606 -2.5646 -0.6288 -0.8449
   74MOL   H12230928   0.088   2.732   4.745  2.1761 -0.7256 -1.0685
   74MOL   H12330929   7.711   2.778   4.663 -0.2973  0.6362 -1.5040
   74MOL   H12430930   0.084   2.891   4.686  2.2095 -1.0553  0.8155
   74MOL   H12530931   0.321   2.712   4.467  0.3455 -1.1363  0.7387
   74MOL   H12630932   0.299   2.690   4.638  0.2124  0.5545  1.0215
   74MOL   H12730933   0.317   2.853   4.590  2.4481 -0.9292 -0.7485
   74MOL   C12830934   0.240   3.011   4.325  0.3744  0.0003 -0.1801
   74MOL   C12930935   0.324   3.135   4.357  0.5338  0.0476 -0.3571
   74MOL   C13030936   0.418   3.126   4.477 -0.0500  0.0074 -0.0878
   74MOL   C13130937   0.486   3.256   4.535  0.7540  0.1157  0.5436
   74MOL   C13230938   0.553   3.214   4.669  1.0840 -0.1252  0.3439
   74MOL   C13330939   0.384   3.364   4.572  0.0228  0.6277 -0.0847
   74MOL   C13430940   0.596   3.327   4.457  0.6055 -0.4862  0.4199
   74MOL   H13530941   0.191   3.009   4.228  1.9365 -2.9455 -0.9635
   74MOL   H13630942   0.306   2.924   4.319  0.8450  0.2644  1.0087
   74MOL   H13730943   0.252   3.216   4.373  1.3061  0.6023  0.3568
   74MOL   H13830944   0.359   3.085   4.558  0.0194  0.1019  0.0118
   74MOL   H13930945   0.495   3.052   4.453  0.7628  0.6828  0.3737
   74MOL   H14030946   0.595   3.300   4.721 -1.1663  0.7607  0.7496
   74MOL   H14130947   0.626   3.134   4.658  0.8129 -0.8483  3.1907
   74MOL   H14230948   0.471   3.178   4.732 -1.0450  2.4858 -0.8324
   74MOL   H14330949   0.293   3.318   4.612 -0.0649  0.8645 -0.0122
   74MOL   H14430950   0.357   3.425   4.486 -1.9612  1.3986  1.0516
   74MOL   H14530951   0.432   3.427   4.646  1.5179  0.6374 -1.0388
   74MOL   H14630952   0.642   3.411   4.509 -2.8945  0.2953  2.3960
   74MOL   H14730953   0.674   3.257   4.426 -1.1952 -1.5135 -1.9388
   74MOL   H14830954   0.557   3.378   4.370 -1.5221 -0.9218  1.0753
   74MOL   C14930955   0.400   3.170   4.229  0.5181 -0.0663 -0.2099
   74MOL   C15030956   0.321   3.256   4.123 -0.9500 -0.3222  0.1528
   74MOL   C15130957   0.316   3.405   4.155  0.5228 -0.0738  0.4281
   74MOL   C15230958   0.177   3.477   4.126 -1.1565 -0.8657 -0.3161
   74MOL   C15330959   0.125   3.471   3.984 -0.7336  0.7002 -0.0704
   74MOL   C15430960   0.194   3.634   4.155 -0.6076  0.8006 -0.4884
   74MOL   C15530961   0.070   3.432   4.226  0.1857  0.2167 -0.6338
   74MOL   H15630962   0.430   3.078   4.179  0.5588 -0.1606 -0.0110
   74MOL   H15730963   0.496   3.218   4.242  2.1569 -3.6348  1.4218
   74MOL   H15830964   0.220   3.217   4.137 -0.9226 -0.1331  0.8680
   74MOL   H15930965   0.394   3.458   4.101 -0.1593 -0.0012 -0.4919
   74MOL   H16030966   0.334   3.428   4.260  0.9391  0.2763  0.2810
   74MOL   H16130967   0.208   3.486   3.915 -1.2989 -2.5810 -1.5652
   74MOL   H16230968   0.074   3.376   3.971 -1.3381  1.0566 -0.3241
   74MOL   H16330969   0.040   3.538   3.969 -0.3105  0.8240 -2.1431
   74MOL   H16430970   0.261   3.663   4.235 -0.5868 -0.1634 -0.1584
   74MOL   H16530971   0.099   3.684   4.172 -0.6576  0.7987 -0.7621
   74MOL   H16630972   0.235   3.676   4.063  1.7480 -0.5489 -0.0940
   74MOL   H16730973   0.104   3.450   4.328 -0.1695  0.4795 -0.5588
   74MOL   H16830974   7.744   3.490   4.216 -0.1974 -0.3580 -0.4978
   74MOL   H16930975   0.053   3.324   4.227 -0.8723  0.3716 -1.4858
   74MOL   C17030976   0.369   3.215   3.979 -0.0280 -0.0179  0.4919
   74MOL   C17130977   0.329   3.084   3.913 -0.3633  0.5422  0.2290
   74MOL   C17230978   0.419   3.047   3.787  0.6002  0.1908  0.2559
   74MOL   C17330979   0.551   2.972   3.814  0.5917 -0.0995  0.0811
   74MOL   C17430980   0.534   2.855   3.914  0.4782  0.5984 -0.5785
   74MOL   C17530981   0.653   3.066   3.872 -0.1547 -0.2972  0.4596
   74MOL   C17630982   0.614   2.905   3.687  0.4308  0.2686 -0.0847
   74MOL   H17730983   0.474   3.236   3.962  0.1813 -2.0910 -0.9127
   74MOL   H17830984   0.325   3.285   3.909 -0.4594 -2.4209 -1.7037
   74MOL   H17930985   0.336   3.009   3.991  1.3369 -0.4631 -0.8676
   74MOL   H18030986   0.365   2.975   3.725 -2.3730  1.9655  0.6821
   74MOL   H18130987   0.440   3.138   3.731  0.2412  1.8546  2.7321
   74MOL   H18230988   0.515   2.889   4.016  0.1181 -1.4132  0.0379
   74MOL   H18330989   0.453   2.792   3.879  1.8342 -0.4581 -1.8549
   74MOL   H18430990   0.620   2.789   3.920 -2.3653 -3.1821  0.5187
   74MOL   H18530991   0.667   3.148   3.802  1.6016 -2.2333 -1.5125
   74MOL   H18630992   0.636   3.103   3.974  1.0153  1.6736 -0.0284
   74MOL   H18730993   0.750   3.018   3.885 -0.4405 -0.9744  0.0669
   74MOL   H18830994   0.542   2.831   3.651 -1.7077  0.7487  3.0679
   74MOL   H18930995   0.637   2.986   3.617  1.1057 -0.8391 -1.1848
   74MOL   H19030996   0.700   2.839   3.703 -1.5997 -2.0471  1.5855
   74MOL   C19130997   0.178   3.087   3.877 -0.2532  0.3832 -0.9542
   74MOL   C19230998   0.112   2.955   3.827  0.1136 -0.2025  0.0078
   74MOL   C19330999   7.743   2.989   3.751  0.2128  0.1013  0.1373
   74MOL   C19431000   7.727   3.102   3.644 -0.1045 -0.6880 -0.7530
   74MOL   C19531001   7.585   3.074   3.582 -0.3375  1.3376 -0.7175
   74MOL   C19631002   0.085   3.097   3.550  0.0291  0.3462  0.4243
   74MOL   C19731003   7.711   3.236   3.718 -0.2286 -0.5311  0.0996
   74MOL   H19831004   0.109   3.123   3.954  2.5277  0.9638  1.3407
   74MOL   H19931005   0.181   3.153   3.791 -2.2674  0.2650 -1.1380
   74MOL   H20031006   0.172   2.907   3.750 -0.2128 -2.0362  0.8536
   74MOL   H20131007   7.664   3.010   3.824 -0.2414 -2.3705  0.3937
   74MOL   H20231008   7.708   2.894   3.710 -0.3511  0.0965  0.6129
   74MOL   H20331009   7.548   3.154   3.519  0.6961  0.6355 -2.2588
   74MOL   H20431010   7.599   2.989   3.515  0.1209  3.0557 -2.8635
   74MOL   H20531011   7.521   3.029   3.658  0.5279  2.1821  0.5301
   74MOL   H20631012   0.072   3.170   3.470 -0.3888  0.8918  0.9877
   74MOL   H20731013   0.182   3.120   3.594  0.1918  1.6803 -0.6006
   74MOL   H20831014   0.084   3.002   3.497 -0.9283  1.2006 -1.1265
   74MOL   H20931015   7.673   3.317   3.655 -1.0917 -1.7658 -0.9992
   74MOL   H21031016   7.641   3.229   3.801  0.1427  1.0459  0.5646
   74MOL   H21131017   0.032   3.270   3.774  0.0316  0.7104 -1.0536
   74MOL   C21231018   0.099   2.855   3.949  0.4477  0.2218  0.3279
   74MOL   C21331019   0.068   2.710   3.913 -0.0172 -0.8100 -0.4117
   74MOL   C21431020   7.763   2.637   4.033 -0.3918 -0.7527  0.0507
   74MOL   C21531021   7.606   2.612   4.021  0.2247 -0.4632 -0.5190
   74MOL   C21631022   7.571   2.538   3.896 -0.9538  0.1003 -0.0349
   74MOL   C21731023   7.548   2.536   4.141  0.3492 -0.2998 -0.4495
   74MOL   C21831024   7.519   2.740   4.023  0.3926 -0.1737  0.2591
   74MOL   H21931025   0.184   2.859   4.017 -0.2375 -0.2298  1.2183
   74MOL   H22031026   0.020   2.897   4.011  1.0139 -0.0478  1.2476
   74MOL   H22131027   7.757   2.722   3.838  1.0886  2.0153 -1.1502
   74MOL   H22231028   0.016   2.687   4.128 -1.8126  0.0718 -0.0861
   74MOL   H22331029   0.039   2.538   4.054  0.6910 -0.1000  1.0114
   74MOL   H22431030   7.578   2.595   3.804 -0.0960 -0.4376 -0.3019
   74MOL   H22531031   7.464   2.519   3.885 -0.3225 -2.7901 -1.7018
   74MOL   H22631032   7.624   2.448   3.868  0.8818  1.5027 -1.1701
   74MOL   H22731033   7.444   2.505   4.131  0.6937 -1.7760  0.4197
   74MOL   H22831034   7.605   2.444   4.151 -0.5827 -0.7768  0.5166
   74MOL   H22931035   7.545   2.597   4.231 -0.0057 -1.0690  0.0714
   74MOL   H23031036   7.531   2.811   3.942  0.6241 -0.4631  0.0373
   74MOL   H23131037   7.538   2.800   4.112  0.5045  0.9245 -0.4947
   74MOL   H23231038   7.418   2.700   4.021  1.1334 -2.0506 -1.3987
   74MOL   C23331039   0.192   2.630   3.868  0.1454 -0.5578  0.0297
   74MOL   C23431040   0.162   2.507   3.779 -0.8257  0.5924  0.2065
   74MOL   C23531041   0.104   2.520   3.633 -0.0947  0.0828 -0.0187
   74MOL   C23631042   0.177   2.586   3.518 -0.1040  0.1133 -0.2633
   74MOL   C23731043   0.177   2.738   3.525 -0.6543 -0.3951  0.6411
   74MOL   C23831044   0.325   2.547   3.496 -0.4073 -0.5397  0.1876
   74MOL   C23931045   0.096   2.547   3.391  0.4846  0.7160 -0.2972
   74MOL   H24031046   0.253   2.594   3.951  0.6444  1.2506  0.4649
   74MOL   H24131047   0.265   2.685   3.809  1.9797  0.3154  3.0178
   74MOL   H24231048   0.083   2.461   3.837 -0.4278 -0.4849 -0.0933
   74MOL   H24331049   0.070   2.423   3.597 -1.5131  0.7614 -0.5701
   74MOL   H24431050   0.014   2.580   3.649  0.8074  1.3012  0.5141
   74MOL   H24531051   0.079   2.770   3.560 -0.2501 -0.2477  1.6468
   74MOL   H24631052   0.190   2.787   3.428 -1.0699 -1.6167 -0.0342
   74MOL   H24731053   0.263   2.773   3.581 -0.3924 -1.3582  0.8428
   74MOL   H24831054   0.330   2.441   3.472  3.8139 -0.3458 -0.1964
   74MOL   H24931055   0.374   2.611   3.422  0.1122 -0.7055  0.3836
   74MOL   H25031056   0.389   2.546   3.585  0.1627  2.1852 -0.1352
   74MOL   H25131057   0.140   2.587   3.300 -0.4525  0.7237 -0.7466
   74MOL   H25231058   0.082   2.440   3.375 -0.4083  0.7611  0.1618
   74MOL   H25331059   0.000   2.598   3.403 -0.2787 -0.6295 -0.6367
   74MOL   C25431060   0.279   2.402   3.786  0.0218  0.6447  0.2677
   74MOL   C25531061   0.288   2.318   3.922 -0.1773 -0.5831 -0.5538
   74MOL   C25631062   0.422   2.256   3.930  0.0503  0.2498  0.1510
   74MOL   C25731063   0.535   2.324   4.009 -0.0317 -0.6576 -0.6780
   74MOL   C25831064   0.661   2.247   3.974  0.1680  0.7526 -0.5459
   74MOL   C25931065   0.512   2.312   4.160  0.4404 -0.4018  0.3732
   74MOL   C26031066   0.559   2.474   3.974  0.4256 -0.1949 -0.0298
   74MOL   H26131067   0.367   2.462   3.766  0.3894 -0.1121 -0.4430
   74MOL   H26231068   0.269   2.323   3.711 -0.3747  0.8900  0.0552
   74MOL   H26331069   0.270   2.377   4.011 -1.0188 -1.2189 -0.2946
   74MOL   H26431070   0.413   2.153   3.965  1.7736  0.0347  0.0103
   74MOL   H26531071   0.453   2.240   3.827 -2.5756 -0.9323 -0.4890
   74MOL   H26631072   0.641   2.140   3.979  1.2921  0.5446 -0.4672
   74MOL   H26731073   0.756   2.273   4.021  0.3691 -0.1261 -0.4602
   74MOL   H26831074   0.679   2.260   3.868  5.0543  3.3953  0.4165
   74MOL   H26931075   0.588   2.363   4.219  0.5019 -0.6045  0.4687
   74MOL   H27031076   0.520   2.205   4.180  0.3211 -0.6895 -1.0627
   74MOL   H27131077   0.415   2.350   4.191  0.8801  2.2225 -1.3674
   74MOL   H27231078   0.484   2.547   4.006  1.9631  0.9638  0.9946
   74MOL   H27331079   0.642   2.517   4.030 -1.8997  1.0252  2.6132
   74MOL   H27431080   0.576   2.493   3.868 -1.7940 -0.5492 -0.4747
   74MOL   C27531081   0.183   2.197   3.923  0.1574 -0.2585 -0.8095
   74MOL   C27631082   0.162   2.126   4.054 -0.1859  0.5457 -0.4846
   74MOL   C27731083   0.047   2.199   4.142  0.3538  0.5565  0.4756
   74MOL   C27831084   0.061   2.204   4.298 -0.9368  0.1910 -0.4322
   74MOL   C27931085   0.197   2.259   4.352 -0.4915  0.6460  0.1424
   74MOL   C28031086   7.719   2.292   4.360 -0.1849 -0.8541  0.1817
   74MOL   C28131087   0.033   2.067   4.365  0.3236  0.1316 -0.3808
   74MOL   H28231088   0.089   2.233   3.881  0.3798  2.7739  1.1779
   74MOL   H28331089   0.219   2.138   3.838 -1.2117 -2.1658 -0.0781
   74MOL   H28431090   0.248   2.126   4.121 -2.2650  0.7841  2.2872
   74MOL   H28531091   7.712   2.164   4.118  0.4230  0.2465  0.6366
   74MOL   H28631092   0.054   2.306   4.122  0.0069  0.4224 -0.4021
   74MOL   H28731093   0.229   2.346   4.294  0.5646 -0.5867 -1.1504
   74MOL   H28831094   0.194   2.298   4.454 -2.4213  1.0977 -0.0527
   74MOL   H28931095   0.281   2.190   4.346 -1.6517 -0.8738  0.8658
   74MOL   H29031096   7.720   2.396   4.326  0.9484 -1.1764 -0.8326
   74MOL   H29131097   7.731   2.301   4.468 -1.5836 -1.7777  0.4209
   74MOL   H29231098   7.617   2.255   4.350 -1.1631  1.2872  1.7606
   74MOL   H29331099   0.109   1.998   4.327 -0.1681 -0.3737 -0.4562
   74MOL   H29431100   7.706   2.026   4.325  0.9366 -0.1848 -1.5019
   74MOL   H29531101   0.039   2.059   4.473  0.7236 -0.8026 -0.4619
   74MOL   C29631102   0.116   1.976   4.028 -0.0393 -0.4944  0.5531
   74MOL   C29731103   0.226   1.881   3.985  0.1839 -0.2385  0.0620
   74MOL   C29831104   0.170   1.747   3.931 -0.6000  0.4319  0.4423
   74MOL   C29931105   0.157   1.729   3.780 -0.4058  0.2451 -0.4038
   74MOL   C30031106   0.040   1.811   3.726  0.0050  0.0390  0.2316
   74MOL   C30131107   0.286   1.756   3.691 -0.2753 -0.6812  0.2255
   74MOL   C30231108   0.127   1.577   3.756  0.1952  0.6469  0.3457
   74MOL   H30331109   0.031   1.985   3.960  0.6505  0.4959 -0.1954
   74MOL   H30431110   0.077   1.932   4.119  0.5944 -0.9844  0.5861
   74MOL   H30531111   0.279   1.931   3.904 -2.0762  1.7862 -0.2246
   74MOL   H30631112   0.072   1.721   3.973 -0.5927  0.7052  0.6312
   74MOL   H30731113   0.228   1.663   3.969  0.1185  1.1619  0.9565
   74MOL   H30831114   0.064   1.916   3.711  3.2462 -0.9418 -2.0519
   74MOL   H30931115   0.003   1.759   3.638  2.1789 -1.7993  0.3477
   74MOL   H31031116   7.720   1.811   3.793  0.2862  1.2485  0.6057
   74MOL   H31131117   0.366   1.699   3.739 -0.2788  0.2491  1.3858
   74MOL   H31231118   0.277   1.712   3.592  1.7182  3.2329 -1.8464
   74MOL   H31331119   0.308   1.863   3.680 -1.9302 -0.3124  0.4866
   74MOL   H31431120   0.052   1.542   3.826  0.6656 -0.2483  0.4026
   74MOL   H31531121   0.098   1.551   3.654  0.5707 -1.0229  0.6606
   74MOL   H31631122   0.219   1.521   3.768 -1.3053 -1.6588  1.3623
   74MOL   C31731123   0.321   1.841   4.098  0.0523  0.1747 -0.9668
   74MOL   C31831124   0.454   1.767   4.062 -0.2364 -0.0255  0.4027
   74MOL   C31931125   0.536   1.852   3.967 -0.4094 -0.5696 -0.1817
   74MOL   C32031126   0.663   1.799   3.892 -0.5988 -0.4146  0.3975
   74MOL   C32131127   0.647   1.651   3.850 -0.2603 -0.8415  0.6264
   74MOL   C32231128   0.782   1.816   3.992 -0.1819  0.3926 -0.1002
   74MOL   C32331129   0.698   1.884   3.766  0.4331 -0.0283  0.8731
   74MOL   H32431130   0.348   1.931   4.153  1.6074  0.0203 -1.4313
   74MOL   H32531131   0.249   1.790   4.162 -0.9292 -0.1916 -2.3393
   74MOL   H32631132   0.430   1.688   3.990 -0.2057  1.3684 -1.1711
   74MOL   H32731133   0.549   1.954   4.004 -1.5059  0.2670 -2.0349
   74MOL   H32831134   0.462   1.860   3.887 -2.1698  2.5204  1.6670
   74MOL   H32931135   0.591   1.595   3.925 -0.8763 -1.1754 -0.0860
   74MOL   H33031136   0.732   1.587   3.828 -1.6557 -1.8229 -2.1204
   74MOL   H33131137   0.580   1.635   3.766  2.2246  0.8798 -1.7934
   74MOL   H33231138   0.871   1.856   3.942  0.6643 -0.7523  0.4659
   74MOL   H33331139   0.756   1.897   4.060 -0.1355  0.9563 -0.7550
   74MOL   H33431140   0.800   1.726   4.052  1.3658  1.5829  1.2750
   74MOL   H33531141   0.797   1.854   3.730  0.0461 -1.2827  0.8230
   74MOL   H33631142   0.706   1.991   3.786  2.3535  0.1275 -0.5535
   74MOL   H33731143   0.625   1.871   3.686  1.2894 -0.5845  0.1631
   74MOL   C33831144   0.532   1.718   4.192 -0.1307  0.0362 -0.1123
   74MOL   C33931145   0.455   1.607   4.277  0.0516  0.5078 -0.2902
   74MOL   C34031146   0.498   1.619   4.427  0.7664 -0.2683  0.0281
   74MOL   C34131147   0.424   1.722   4.526 -0.5205  0.2704  0.1558
   74MOL   C34231148   0.522   1.789   4.623  1.0235 -0.0388 -0.4935
   74MOL   C34331149   0.346   1.836   4.454  0.0197  0.2647 -0.1918
   74MOL   C34431150   0.336   1.632   4.604  0.3363 -0.1389 -0.5779
   74MOL   H34531151   0.539   1.808   4.253 -2.0050 -0.8839  1.5136
   74MOL   H34631152   0.636   1.692   4.171  0.0964 -0.2954  1.3789
   74MOL   H34731153   0.348   1.623   4.279  0.1780  1.2743  1.3863
   74MOL   H34831154   0.606   1.632   4.430  0.7458  1.2638 -2.9336
   74MOL   H34931155   0.508   1.519   4.469  5.8328  0.6217  1.2910
   74MOL   H35031156   0.592   1.716   4.664 -0.1752 -1.3042 -0.6721
   74MOL   H35131157   0.577   1.870   4.576  0.6930  1.0610  0.9882
   74MOL   H35231158   0.482   1.849   4.704 -0.0936  3.8058 -3.7504
   74MOL   H35331159   0.256   1.814   4.397 -0.0985  0.9244 -0.2683
   74MOL   H35431160   0.309   1.906   4.529 -0.1007  0.9398 -0.8721
   74MOL   H35531161   0.421   1.881   4.389  0.8621  1.6584  1.6731
   74MOL   H35631162   0.264   1.698   4.652  1.1851  1.4288 -1.4283
   74MOL   H35731163   0.278   1.559   4.547  1.2104 -0.6161 -0.8638
   74MOL   H35831164   0.388   1.589   4.689 -0.0843 -0.5157 -0.5051
   74MOL   C35931165   0.483   1.473   4.214  0.5864 -0.5650 -0.1057
   74MOL   C36031166   0.378   1.359   4.223 -0.6965  0.5141 -0.2844
   74MOL   C36131167   0.449   1.221   4.211  0.0702 -0.4764  0.3376
   74MOL   C36231168   0.518   1.156   4.332  0.7975  0.2269  0.3979
   74MOL   C36331169   0.601   1.244   4.426 -0.0860 -0.2637 -0.3282
   74MOL   C36431170   0.616   1.042   4.290  0.1158  0.7708  0.0477
   74MOL   C36531171   0.395   1.100   4.426 -0.9808  0.1020 -0.3522
   74MOL   H36631172   0.584   1.437   4.237  0.6078 -0.9842 -0.8444
   74MOL   H36731173   0.501   1.487   4.108  0.3152  0.8368  0.0263
   74MOL   H36831174   0.330   1.371   4.320 -1.2681  0.5064 -0.5619
   74MOL   H36931175   0.383   1.147   4.165  0.5961 -0.8425  0.1698
   74MOL   H37031176   0.523   1.230   4.131 -0.6348  1.4132 -0.1233
   74MOL   H37131177   0.683   1.300   4.382 -0.3449  0.4608  0.0986
   74MOL   H37231178   0.532   1.324   4.453  0.2642 -0.1413  0.2118
   74MOL   H37331179   0.629   1.181   4.511 -0.4885 -0.4132 -0.3020
   74MOL   H37431180   0.697   1.066   4.222 -0.7906  0.8508 -1.0118
   74MOL   H37531181   0.558   0.967   4.237  1.9497 -2.1345  1.9748
   74MOL   H37631182   0.666   0.984   4.367  0.1989 -1.5495 -1.6991
   74MOL   H37731183   0.334   1.187   4.450  0.0922  0.6421  0.4343
   74MOL   H37831184   0.441   1.040   4.505  2.6308  0.0636 -2.3554
   74MOL   H37931185   0.335   1.037   4.360  0.1773 -0.6341 -0.7177
   74MOL   C38031186   0.272   1.378   4.122  0.0491  0.6992 -0.1126
   74MOL   C38131187   0.153   1.281   4.141  0.7953 -0.7520 -0.4570
   74MOL   C38231188   0.069   1.280   4.004 -0.3836 -0.3963  0.3665
   74MOL   C38331189   0.086   1.156   3.912 -0.0467 -0.3370 -0.3120
   74MOL   C38431190   0.232   1.159   3.857  0.1602  0.2712  0.1028
   74MOL   C38531191   7.761   1.179   3.793 -0.0974 -0.0833  0.2308
   74MOL   C38631192   0.047   1.030   3.984  0.1899  0.2443  0.2944
   74MOL   H38731193   0.327   1.369   4.028 -0.3467 -0.0143 -0.2797
   74MOL   H38831194   0.239   1.482   4.125 -2.0024  0.0475  0.7738
   74MOL   H38931195   0.180   1.180   4.170 -1.6925 -0.8073  1.9016
   74MOL   H39031196   7.730   1.291   4.033  0.0466  0.9667  1.5070
   74MOL   H39131197   0.106   1.369   3.952 -3.9970  0.9689  0.0208
   74MOL   H39231198   0.305   1.157   3.938  1.4671 -0.0300 -1.0701
   74MOL   H39331199   0.264   1.085   3.783  1.1870 -0.0522  0.8679
   74MOL   H39431200   0.258   1.252   3.808 -0.0356  0.7441  0.8896
   74MOL   H39531201   7.745   1.285   3.772 -1.1680 -0.5933 -1.5365
   74MOL   H39631202   7.661   1.139   3.808 -0.8842  1.9925  0.8024
   74MOL   H39731203   0.025   1.127   3.703 -1.6212 -1.1663  0.3432
   74MOL   H39831204   0.039   0.940   3.922 -0.2060 -0.1760  0.9579
   74MOL   H39931205   7.714   1.040   4.029  0.1434  1.1955 -0.0109
   74MOL   H40031206   0.113   1.001   4.065  0.4052  0.1725  0.0958
   74MOL   C40131207   0.068   1.337   4.258  0.2652  0.1667  0.0832
   74MOL   C40231208   7.731   1.234   4.317  0.1779  0.2800 -0.1790
   74MOL   C40331209   7.620   1.294   4.398 -0.3707  0.0903 -0.1977
   74MOL   C40431210   7.534   1.189   4.471 -0.5295 -0.0487  0.2121
   74MOL   C40531211   7.510   1.057   4.388  0.3693 -0.3028  0.1602
   74MOL   C40631212   7.398   1.262   4.509 -0.0678 -0.2357 -0.3354
   74MOL   C40731213   7.608   1.151   4.599  0.1890  0.1259 -0.1200
   74MOL   H40831214   0.122   1.392   4.336  0.8702 -0.9130  0.4397
   74MOL   H40931215   0.018   1.424   4.215  1.5966  0.3276 -1.1885
   74MOL   H41031216   7.681   1.176   4.240 -0.9159 -0.0545  0.7607
   74MOL   H41131217   7.568   1.354   4.323  1.3077  0.6157 -0.9673
   74MOL   H41231218   7.660   1.364   4.470 -0.4861 -0.4624  0.4043
   74MOL   H41331219   7.595   0.996   4.358  0.8320  0.3856  0.0559
   74MOL   H41431220   7.458   1.072   4.294 -1.8027 -1.2040  1.2037
   74MOL   H41531221   7.440   0.991   4.439  1.5900 -3.2173 -1.8432
   74MOL   H41631222   7.421   1.348   4.572 -0.4160 -0.0134 -0.5094
   74MOL   H41731223   7.328   1.196   4.561  0.1586 -0.9575 -0.9364
   74MOL   H41831224   7.331   1.298   4.430 -0.0614 -3.5502 -1.9359
   74MOL   H41931225   7.703   1.102   4.576 -0.2538  0.1178 -2.0328
   74MOL   H42031226   7.622   1.242   4.657  2.2670 -0.4754  0.3827
   74MOL   H42131227   7.557   1.081   4.664 -0.7748  0.9088 -0.0231
   74MOL   H42231228   0.022   1.155   4.367  0.3330  0.9699  0.7497
   75MOL     C131229   4.779   7.206   7.111  0.1583 -0.2032  0.1178
   75MOL     C231230   4.812   7.087   7.013 -0.0174  0.4905 -1.0203
   75MOL     C331231   4.708   7.085   6.904  0.5381 -0.3153  0.1080
   75MOL     C431232   4.733   7.040   6.757  0.3760 -0.1368  0.1068
   75MOL     C531233   4.606   7.069   6.681 -0.2245  0.1423  0.0357
   75MOL     C631234   4.847   7.131   6.690  0.1232  0.6654 -0.0136
   75MOL     C731235   4.776   6.893   6.746  0.2921  0.3624  0.4422
   75MOL     H831236   4.826   7.185   7.207  1.0592 -1.1862 -0.5182
   75MOL     H931237   4.797   7.308   7.078  3.1323 -0.7953 -0.2821
   75MOL    H1031238   4.908   7.106   6.964 -0.0407 -1.2327 -1.7897
   75MOL    H1131239   4.657   7.181   6.896  0.1189 -0.7217 -2.3634
   75MOL    H1231240   4.631   7.017   6.941 -0.3663 -0.2887 -1.6791
   75MOL    H1331241   4.584   7.176   6.675  0.1134  0.3728  2.3446
   75MOL    H1431242   4.522   7.023   6.732  1.0199 -1.0933  1.0206
   75MOL    H1531243   4.615   7.021   6.584 -2.0115 -2.2515  1.0103
   75MOL    H1631244   4.940   7.124   6.747 -1.2857 -1.1552  2.1867
   75MOL    H1731245   4.870   7.099   6.589 -0.3297  1.1661 -0.2762
   75MOL    H1831246   4.825   7.237   6.682  1.1127  0.8655 -0.0757
   75MOL    H1931247   4.792   6.860   6.644 -0.3690  0.0807  0.4217
   75MOL    H2031248   4.704   6.824   6.792 -1.3719  0.7713 -1.4862
   75MOL    H2131249   4.867   6.874   6.802 -1.5024 -0.7678  3.1161
   75MOL    H2231250   4.674   7.198   7.138  0.4503  1.1717  1.7444
   75MOL    C2331251   4.807   6.948   7.088 -0.2046 -0.1733 -0.5753
   75MOL    C2431252   4.937   6.905   7.156  0.6439 -0.4133 -0.2692
   75MOL    C2531253   5.059   6.896   7.055  0.2224  0.5192  0.3121
   75MOL    C2631254   5.201   6.941   7.092  0.1448 -0.2758 -0.1251
   75MOL    C2731255   5.294   6.899   6.976 -0.0034  0.3159 -0.2131
   75MOL    C2831256   5.196   7.098   7.088  0.1040  0.7349  0.5651
   75MOL    C2931257   5.248   6.884   7.215  0.3933  0.3868  0.3915
   75MOL    H3031258   4.731   6.958   7.166 -1.1121  2.3304 -1.7084
   75MOL    H3131259   4.783   6.875   7.010 -0.1466  0.9895 -1.7149
   75MOL    H3231260   4.960   6.978   7.233 -0.6680 -0.0650 -0.1826
   75MOL    H3331261   5.028   6.941   6.960 -2.0334  1.6839  1.5464
   75MOL    H3431262   5.060   6.789   7.031 -0.3970  0.9308 -1.6393
   75MOL    H3531263   5.400   6.898   7.004  0.7639 -0.5147 -2.9954
   75MOL    H3631264   5.288   6.800   6.930  0.0072  0.1254  0.1887
   75MOL    H3731265   5.277   6.973   6.899  1.0280  0.4720 -0.2941
   75MOL    H3831266   5.287   7.157   7.081  1.3264 -1.4294 -3.9830
   75MOL    H3931267   5.147   7.122   6.994  3.5207  2.0466 -0.9688
   75MOL    H4031268   5.138   7.150   7.164 -1.6334  0.1534 -0.3269
   75MOL    H4131269   5.275   6.779   7.202  1.0643  0.6698 -0.5695
   75MOL    H4231270   5.163   6.876   7.282 -0.9025  1.3720 -1.0944
   75MOL    H4331271   5.331   6.940   7.257 -0.0542  1.1428  0.2847
   75MOL    C4431272   4.905   6.767   7.219  0.7434  0.7790  0.2755
   75MOL    C4531273   4.819   6.764   7.347  0.3404 -0.1145  0.1354
   75MOL    C4631274   4.913   6.789   7.466 -0.0258 -0.7466  0.0581
   75MOL    C4731275   4.868   6.876   7.584  0.2344 -0.3564  0.5189
   75MOL    C4831276   4.756   6.807   7.664  0.8981  0.2884 -0.7414
   75MOL    C4931277   4.829   7.011   7.525 -0.3193  0.5444  0.3668
   75MOL    C5031278   4.983   6.918   7.682  0.2403  0.3122 -0.2597
   75MOL    H5131279   4.847   6.714   7.144 -1.3115  2.3806  0.6989
   75MOL    H5231280   4.998   6.713   7.238 -0.7775 -1.8086  0.5538
   75MOL    H5331281   4.749   6.848   7.341 -1.4185 -1.4819  0.9873
   75MOL    H5431282   5.000   6.844   7.429 -0.3128  0.2163  0.7700
   75MOL    H5531283   4.971   6.701   7.495  0.8603 -0.6878 -1.4884
   75MOL    H5631284   4.786   6.707   7.694 -1.4686 -0.3029 -0.2665
   75MOL    H5731285   4.659   6.803   7.614  0.3843  2.3292  0.0436
   75MOL    H5831286   4.729   6.857   7.757  2.0396 -1.2501  0.4437
   75MOL    H5931287   4.852   7.097   7.587 -0.6668 -1.0137  2.7192
   75MOL    H6031288   4.895   7.043   7.445  1.0739 -2.0099  0.4262
   75MOL    H6131289   4.729   7.017   7.481 -0.4526 -1.7135  0.3046
   75MOL    H6231290   5.069   6.971   7.641  1.6416  0.4132  2.7197
   75MOL    H6331291   4.943   6.971   0.002 -1.8865 -2.9112  0.8472
   75MOL    H6431292   5.032   6.828   7.719 -3.4456 -2.2551 -1.3657
   75MOL    C6531293   4.744   6.640   7.364 -0.2897 -0.3139  0.1676
   75MOL    C6631294   4.619   6.611   7.276 -0.4454  0.5249 -0.1433
   75MOL    C6731295   4.492   6.666   7.338  0.1034 -0.1548  0.1931
   75MOL    C6831296   4.390   6.746   7.244  0.1270 -0.1461 -0.1759
   75MOL    C6931297   4.466   6.875   7.204 -0.0161 -0.5910  0.0822
   75MOL    C7031298   4.353   6.669   7.122  0.3799 -0.4444  0.2387
   75MOL    C7131299   4.271   6.784   7.332 -0.6964  0.2112 -0.3166
   75MOL    H7231300   4.824   6.566   7.359 -0.3415 -0.3457 -0.2378
   75MOL    H7331301   4.710   6.617   7.465 -0.8882  0.4665  0.1441
   75MOL    H7431302   4.633   6.665   7.182 -1.9510 -0.0763 -0.7189
   75MOL    H7531303   4.518   6.728   7.424 -0.9834  0.6436 -0.0457
   75MOL    H7631304   4.443   6.587   7.395  3.5248 -2.9341 -0.5683
   75MOL    H7731305   4.509   6.928   7.289 -2.3612  0.5927  0.5735
   75MOL    H7831306   4.555   6.843   7.149  0.4820 -1.1543  1.1928
   75MOL    H7931307   4.402   6.944   7.150 -0.5018 -1.3006 -0.2562
   75MOL    H8031308   4.431   6.641   7.051  1.3398 -2.0713  1.8867
   75MOL    H8131309   4.275   6.719   7.063 -0.5815 -1.2217  0.8244
   75MOL    H8231310   4.298   6.579   7.150  1.3677 -0.5801  1.7491
   75MOL    H8331311   4.298   6.841   7.421 -2.9277  1.5700 -0.4768
   75MOL    H8431312   4.217   6.694   7.360  1.0317 -0.1610  1.9696
   75MOL    H8531313   4.196   6.841   7.277  1.4037  1.6904 -1.7516
   75MOL    C8631314   4.601   6.455   7.261 -0.0378  0.1813 -0.4053
   75MOL    C8731315   4.712   6.382   7.182 -0.1188 -0.0012  0.1566
   75MOL    C8831316   4.671   6.361   7.034  0.1987  0.3041 -0.4275
   75MOL    C8931317   4.783   6.377   6.930 -0.5307  0.0720 -0.3669
   75MOL    C9031318   4.890   6.270   6.943 -0.2845  0.4734 -0.5126
   75MOL    C9131319   4.850   6.518   6.934 -0.5907  0.0091 -0.1750
   75MOL    C9231320   4.725   6.355   6.790  0.0503 -0.1896  1.0381
   75MOL    H9331321   4.510   6.425   7.209  0.3548  0.4952 -1.2799
   75MOL    H9431322   4.582   6.401   7.354 -1.2205  1.5524  0.1784
   75MOL    H9531323   4.812   6.425   7.189 -0.5296  1.0355 -0.1957
   75MOL    H9631324   4.592   6.424   6.993 -1.3018 -1.3487 -0.1251
   75MOL    H9731325   4.620   6.266   7.016  1.6408 -0.2240 -1.8918
   75MOL    H9831326   4.848   6.170   6.950 -0.8291  0.6873 -0.6836
   75MOL    H9931327   4.937   6.284   7.041 -0.3386 -1.9412 -0.1306
   75MOL   H10031328   4.957   6.287   6.859  2.8398 -0.0208  1.8110
   75MOL   H10131329   4.906   6.523   7.027 -0.2291 -0.2848 -0.3747
   75MOL   H10231330   4.911   6.537   6.846  0.9754  1.7159  1.2408
   75MOL   H10331331   4.786   6.606   6.940  2.7682  2.3747  3.7465
   75MOL   H10431332   4.793   6.333   6.709  0.7591  0.2013  1.5180
   75MOL   H10531333   4.653   6.274   6.798 -1.6162  1.0749 -0.7417
   75MOL   H10631334   4.674   6.450   6.770  1.4873  0.3502 -0.1012
   75MOL   C10731335   4.724   6.229   7.236 -0.0322  0.4538  0.2481
   75MOL   C10831336   4.801   6.219   7.372 -0.3439  0.5882 -0.2280
   75MOL   C10931337   4.773   6.079   7.441 -0.4732  0.2302 -0.2876
   75MOL   C11031338   4.646   6.060   7.526  0.0864 -0.2595 -0.5973
   75MOL   C11131339   4.661   5.919   7.589 -0.1844  0.2396  0.4150
   75MOL   C11231340   4.525   6.052   7.429  0.6724  0.2094 -0.1572
   75MOL   C11331341   4.623   6.171   7.627  0.0219  0.1754  0.2406
   75MOL   H11431342   4.789   6.166   7.176  0.7828  3.0876 -1.7333
   75MOL   H11531343   4.628   6.177   7.232  0.6144 -0.9479  2.2588
   75MOL   H11631344   4.757   6.298   7.432 -1.9815 -0.1708 -0.4008
   75MOL   H11731345   4.776   6.003   7.363 -2.7410  1.6313 -1.8050
   75MOL   H11831346   4.861   6.056   7.501 -0.9104  0.3187  0.3878
   75MOL   H11931347   4.690   5.847   7.512 -0.3082 -0.4886  1.0401
   75MOL   H12031348   4.738   5.900   7.664  1.9609 -0.7526 -1.9796
   75MOL   H12131349   4.563   5.890   7.627  0.5057 -0.6928  1.5156
   75MOL   H12231350   4.431   6.007   7.460  0.1480  0.5025 -1.3256
   75MOL   H12331351   4.543   5.995   7.338 -2.0523  1.5364 -1.5755
   75MOL   H12431352   4.499   6.149   7.389  0.3588  1.4169  2.8728
   75MOL   H12531353   4.539   6.147   7.693 -0.1733  1.0519  0.3262
   75MOL   H12631354   4.595   6.264   7.577 -0.1269  0.0674  0.1255
   75MOL   H12731355   4.716   6.189   7.680  0.3818  0.5526 -0.5027
   75MOL   C12831356   4.955   6.241   7.351  0.0423  0.4852 -0.0186
   75MOL   C12931357   5.043   6.249   7.481 -0.1250 -0.2723  0.5723
   75MOL   C13031358   5.196   6.240   7.439  0.1145 -0.0203 -0.5887
   75MOL   C13131359   5.273   6.102   7.438  0.7491 -0.4477  0.0404
   75MOL   C13231360   5.416   6.136   7.402 -0.1778 -0.0032 -0.0320
   75MOL   C13331361   5.217   6.007   7.337  0.7711 -0.5398  0.4225
   75MOL   C13431362   5.270   6.041   7.578 -0.6711 -0.0456 -0.4178
   75MOL   H13531363   4.966   6.337   7.302 -0.1771 -0.2211 -1.4742
   75MOL   H13631364   4.991   6.176   7.271 -1.9814  0.8545 -1.2712
   75MOL   H13731365   5.029   6.166   7.550  0.4540 -1.7340 -1.0358
   75MOL   H13831366   5.201   6.286   7.340 -1.3978  0.3605 -0.5049
   75MOL   H13931367   5.254   6.312   7.498  1.2538  0.0085 -1.7085
   75MOL   H14031368   5.481   6.049   7.391  1.1464  1.1421 -1.4907
   75MOL   H14131369   5.460   6.204   7.475 -0.5506  0.5082 -0.2796
   75MOL   H14231370   5.415   6.184   7.304 -2.6117 -0.1006 -0.0773
   75MOL   H14331371   5.212   6.039   7.233 -1.2209 -0.6073  0.4712
   75MOL   H14431372   5.120   5.973   7.375 -0.7857  0.3784 -2.5451
   75MOL   H14531373   5.286   5.922   7.336  1.7756  0.2528  2.0062
   75MOL   H14631374   5.170   6.008   7.604 -0.5265 -1.0320 -1.0737
   75MOL   H14731375   5.341   5.959   7.588  0.4655  1.0153  0.3131
   75MOL   H14831376   5.294   6.117   7.652 -2.5828  0.9926 -0.8321
   75MOL   C14931377   5.023   6.389   7.561  0.2192  0.3475  0.2534
   75MOL   C15031378   5.096   6.398   7.705  0.4705  0.5171  0.5422
   75MOL   C15131379   5.157   6.536   7.734  0.8004 -0.2152  0.3958
   75MOL   C15231380   5.293   6.584   7.676  0.0751 -0.3726 -0.4344
   75MOL   C15331381   5.279   6.608   7.520 -1.3977 -0.1809 -0.0537
   75MOL   C15431382   5.405   6.492   7.711  0.1254 -0.4796 -0.2717
   75MOL   C15531383   5.314   6.728   7.740 -0.2647 -0.7556 -0.0119
   75MOL   H15631384   4.916   6.412   7.567  0.4559  1.3946  0.4194
   75MOL   H15731385   5.052   6.474   7.500 -1.1341  1.3679  1.0070
   75MOL   H15831386   5.174   6.322   7.705  0.9827  1.0275  1.5930
   75MOL   H15931387   5.176   6.535   0.075  1.2204  2.7147  0.3678
   75MOL   H16031388   5.080   6.612   7.723 -0.1974 -1.0473  1.5255
   75MOL   H16131389   5.365   6.667   7.487 -0.0944 -1.0751  1.6117
   75MOL   H16231390   5.285   6.516   7.463 -0.2881  1.2573 -2.3628
   75MOL   H16331391   5.195   6.675   7.501 -0.3576  0.5677 -2.2369
   75MOL   H16431392   5.498   6.531   7.671  0.6349 -0.1933  1.1820
   75MOL   H16531393   5.398   6.390   7.673  1.8193 -0.8648  0.3783
   75MOL   H16631394   5.417   6.482   0.053  1.3333  1.7107 -0.1916
   75MOL   H16731395   5.268   6.812   7.689  0.3136  0.1995  1.0078
   75MOL   H16831396   5.298   6.744   0.081  1.5329  2.1821 -0.1365
   75MOL   H16931397   5.419   6.757   7.734 -0.4743 -0.0294 -0.2114
   75MOL   C17031398   5.003   6.359   0.046  0.0925 -0.0172 -0.9465
   75MOL   C17131399   5.059   6.299   0.182  0.4239 -0.5609 -0.7105
   75MOL   C17231400   5.122   6.162   0.160 -0.3571  0.6013  0.0311
   75MOL   C17331401   5.258   6.122   0.231  0.5568  0.7342 -0.2880
   75MOL   C17431402   5.241   6.148   0.385  0.3076  0.5341  0.6036
   75MOL   C17531403   5.378   6.223   0.190 -0.4476  0.3834  0.3202
   75MOL   C17631404   5.293   5.973   0.214  0.6846  0.0459  0.0114
   75MOL   H17731405   4.948   6.273   0.008 -2.8467  0.7762  1.3377
   75MOL   H17831406   4.929   6.437   0.065  0.3348 -0.5720  2.6965
   75MOL   H17931407   5.145   6.359   0.210  0.1695 -0.9691  1.0211
   75MOL   H18031408   5.056   6.077   0.173 -0.2477  0.7498  1.8243
   75MOL   H18131409   5.143   6.141   0.055  2.7918 -1.6226  1.0003
   75MOL   H18231410   5.164   6.082   0.426 -0.1923  0.5683 -0.2810
   75MOL   H18331411   5.337   6.137   0.436 -0.2318 -1.4060  1.2479
   75MOL   H18431412   5.221   6.254   0.400 -1.6544  0.1866  0.5219
   75MOL   H18531413   5.382   6.213   0.081 -1.2534 -0.2745  0.3405
   75MOL   H18631414   5.357   6.323   0.227  0.3997  0.4520  0.6130
   75MOL   H18731415   5.474   6.193   0.230 -0.1878 -1.1222 -1.3489
   75MOL   H18831416   5.395   5.951   0.245 -0.1359 -2.0715  1.3160
   75MOL   H18931417   5.225   5.906   0.267  1.5808 -0.3929  0.6078
   75MOL   H19031418   5.302   5.937   0.111  3.2234  2.2058 -0.5586
   75MOL   C19131419   4.941   6.291   0.283 -0.0702 -0.1177 -0.0709
   75MOL   C19231420   4.899   6.433   0.342  0.3588 -0.3689  0.4103
   75MOL   C19331421   5.014   6.490   0.430 -0.0944  0.1747  0.1278
   75MOL   C19431422   5.024   6.641   0.435 -0.5218  0.2204 -0.2390
   75MOL   C19531423   5.068   6.693   0.295  0.1074 -0.0037  0.4285
   75MOL   C19631424   5.136   6.676   0.532 -0.6730  0.2985  0.5277
   75MOL   C19731425   4.893   6.711   0.481 -0.0806  0.6309 -0.3050
   75MOL   H19831426   4.861   6.232   0.238 -2.0293  1.2531  1.4969
   75MOL   H19931427   4.965   6.221   0.363  0.1413 -1.8610 -1.6129
   75MOL   H20031428   4.874   6.503   0.263  0.7712  0.6156  1.1391
   75MOL   H20131429   5.111   6.447   0.405  0.1566 -0.5235  2.1490
   75MOL   H20231430   4.998   6.442   0.527  2.4717  0.2869  0.6448
   75MOL   H20331431   5.002   6.666   0.212  2.0385  0.4514 -1.2884
   75MOL   H20431432   5.069   6.802   0.283  0.7632 -0.2144 -1.5645
   75MOL   H20531433   5.171   6.671   0.271  0.1401  0.4993  0.0928
   75MOL   H20631434   5.230   6.629   0.503 -0.5159  0.0443  1.4319
   75MOL   H20731435   5.124   6.785   0.525  0.1660  0.3026 -1.2737
   75MOL   H20831436   5.108   6.646   0.633  1.6350 -1.3920  0.6933
   75MOL   H20931437   4.856   6.699   0.583 -0.6320  3.7167 -0.0696
   75MOL   H21031438   4.914   6.818   0.479 -0.4932  0.6956 -1.3519
   75MOL   H21131439   4.810   6.683   0.416  0.6144 -1.5292 -0.2814
   75MOL   C21231440   4.772   6.404   0.427  0.1294 -0.3763 -0.3254
   75MOL   C21331441   4.645   6.374   0.343  0.4469  0.8197 -0.1752
   75MOL   C21431442   4.593   6.514   0.293 -0.0899  0.0308 -0.2430
   75MOL   C21531443   4.540   6.514   0.149 -0.0391  0.6270 -0.5439
   75MOL   C21631444   4.661   6.490   0.053  0.4353 -0.7451  0.7002
   75MOL   C21731445   4.422   6.411   0.125 -0.1482 -0.5771 -0.1060
   75MOL   C21831446   4.487   6.660   0.131 -0.8607  0.6672  0.3155
   75MOL   H21931447   4.783   6.318   0.493 -0.7276 -1.3087 -1.3793
   75MOL   H22031448   4.735   6.486   0.489  2.2456  0.8291 -0.5728
   75MOL   H22131449   4.681   6.320   0.256  1.0612 -1.2565  1.3337
   75MOL   H22231450   4.673   6.588   0.299  0.2929 -0.4674  1.0391
   75MOL   H22331451   4.519   6.555   0.362 -0.6932 -1.5942  0.1094
   75MOL   H22431452   4.691   6.389   0.026 -3.6980 -1.3849 -2.0148
   75MOL   H22531453   4.752   6.536   0.091  2.2877 -2.7817 -1.1325
   75MOL   H22631454   4.647   6.532   7.719 -1.3914  1.3488  1.7737
   75MOL   H22731455   4.382   6.436   0.027  0.3826 -2.0690 -0.7210
   75MOL   H22831456   4.447   6.305   0.129 -3.2541 -1.3603 -0.4045
   75MOL   H22931457   4.356   6.438   0.208  1.8763  0.4021  1.2561
   75MOL   H23031458   4.401   6.672   0.197  0.7316  0.8778  2.4140
   75MOL   H23131459   4.447   6.678   0.032 -0.7393  0.3949  0.2144
   75MOL   H23231460   4.572   6.727   0.145  1.1626 -1.7366 -0.0427
   75MOL   C23331461   4.538   6.301   0.428  0.1118  0.5744 -0.4857
   75MOL   C23431462   4.546   6.141   0.446  0.4946  0.0856  0.2838
   75MOL   C23531463   4.446   6.076   0.539  0.6726 -0.1132 -0.2562
   75MOL   C23631464   4.433   6.131   0.687  0.0564  0.4484  0.4021
   75MOL   C23731465   4.381   6.018   0.778 -0.1637  0.0329  0.2465
   75MOL   C23831466   4.579   6.162   0.747  1.2117 -0.1473  0.1178
   75MOL   C23931467   4.335   6.244   0.677  0.1014 -0.1871 -0.4375
   75MOL   H24031468   4.437   6.317   0.388 -0.9168  0.2957  1.9278
   75MOL   H24131469   4.555   6.347   0.525  1.3006 -1.3858  0.2845
   75MOL   H24231470   4.645   6.117   0.484  0.6195  0.5875  0.2722
   75MOL   H24331471   4.346   6.086   0.497  1.3748  2.3791 -1.4494
   75MOL   H24431472   4.464   5.969   0.543  0.2375 -0.2126 -0.8690
   75MOL   H24531473   4.296   5.967   0.733 -0.5804  0.4747  0.5353
   75MOL   H24631474   4.372   6.057   0.879 -0.7340 -0.3099  0.3271
   75MOL   H24731475   4.464   5.948   0.778  1.7142  2.1788 -0.1346
   75MOL   H24831476   4.559   6.228   0.831 -0.1700 -1.4058  0.7972
   75MOL   H24931477   4.645   6.076   0.763 -1.7510 -2.4900  0.2363
   75MOL   H25031478   4.625   6.231   0.676  2.0221 -0.1648  0.6195
   75MOL   H25131479   4.352   6.325   0.606 -0.4587  0.4339  0.1353
   75MOL   H25231480   4.234   6.209   0.659  1.0578 -3.2499 -0.1847
   75MOL   H25331481   4.344   6.298   0.772  0.9891 -1.7653  0.3952
   75MOL   C25431482   4.549   6.069   0.312  0.6198 -0.6700 -1.1585
   75MOL   C25531483   4.604   5.921   0.307 -0.5108  0.0260 -0.0345
   75MOL   C25631484   4.759   5.911   0.293  0.2143  1.1188 -0.3491
   75MOL   C25731485   4.836   5.834   0.405 -0.5189 -0.5791  0.1430
   75MOL   C25831486   4.831   5.904   0.543 -0.0712  0.3704 -1.0667
   75MOL   C25931487   4.981   5.828   0.360 -0.3008  0.1269 -0.0044
   75MOL   C26031488   4.781   5.690   0.412  0.0647 -0.8925  0.3793
   75MOL   H26131489   4.610   6.125   0.241  2.0573 -0.3304  0.3313
   75MOL   H26231490   4.451   6.073   0.264 -0.7511 -2.4847  1.4138
   75MOL   H26331491   4.562   5.877   0.397  1.5767 -1.6108  0.1971
   75MOL   H26431492   4.790   5.874   0.196  2.8503 -0.6292  1.1112
   75MOL   H26531493   4.794   6.014   0.301 -0.1864  1.1820  0.6123
   75MOL   H26631494   4.727   5.921   0.568 -0.7546 -2.1919 -2.0318
   75MOL   H26731495   4.880   6.001   0.542 -1.3396  1.0821  1.7083
   75MOL   H26831496   4.891   5.858   0.622 -0.3881 -0.4830 -1.3166
   75MOL   H26931497   5.049   5.777   0.428 -0.5683 -1.5322 -0.9316
   75MOL   H27031498   5.031   5.924   0.348  1.4050 -0.6911  0.4246
   75MOL   H27131499   4.994   5.767   0.270  0.7391  1.5745 -0.8434
   75MOL   H27231500   4.795   5.642   0.315  0.1827  3.0362 -1.6278
   75MOL   H27331501   4.812   5.632   0.499  1.3463 -2.3327 -0.9942
   75MOL   H27431502   4.675   5.701   0.434  0.4160  0.6585  1.3287
   75MOL   C27531503   4.543   5.849   0.182 -0.0580  0.3319 -1.3590
   75MOL   C27631504   4.405   5.790   0.209  0.2950  1.2276  0.0893
   75MOL   C27731505   4.336   5.758   0.070  0.5177 -0.2011  0.0588
   75MOL   C27831506   4.222   5.861   0.018 -0.0177  0.5609 -0.0183
   75MOL   C27931507   4.200   5.824   7.641  0.4093  0.1302  0.2746
   75MOL   C28031508   4.091   5.841   0.098 -0.1438 -0.3060  0.1188
   75MOL   C28131509   4.274   6.007   0.026  0.2092 -0.0529 -0.4886
   75MOL   H28231510   4.536   5.927   0.107 -1.7231  2.9002  1.3565
   75MOL   H28331511   4.601   5.764   0.146 -0.1334 -0.4617  0.3323
   75MOL   H28431512   4.346   5.865   0.262 -1.6139 -0.2441  0.1012
   75MOL   H28531513   4.291   5.659   0.080 -1.0683  0.6527  1.6559
   75MOL   H28631514   4.413   5.739   7.761  0.3537  3.1376 -1.0696
   75MOL   H28731515   4.291   5.844   7.584  0.1144  1.6203  0.3319
   75MOL   H28831516   4.180   5.718   7.620  0.7494  0.3040 -0.9761
   75MOL   H28931517   4.125   5.888   7.595 -0.3764  1.5130  3.3172
   75MOL   H29031518   4.051   5.741   0.084 -3.4392  0.8871  0.3392
   75MOL   H29131519   4.016   5.907   0.053  2.7748  1.0123 -2.9653
   75MOL   H29231520   4.117   5.876   0.199 -0.8203 -2.6092  1.1233
   75MOL   H29331521   4.271   6.047   0.128  0.2172  0.4508 -0.6835
   75MOL   H29431522   4.211   6.078   7.738 -2.2724 -0.1275  2.1434
   75MOL   H29531523   4.374   6.027   7.755  0.9019 -0.2182  1.2336
   75MOL   C29631524   4.416   5.658   0.306  0.2494  0.0526 -0.4999
   75MOL   C29731525   4.290   5.590   0.359 -0.5029  0.2124  0.6615
   75MOL   C29831526   4.222   5.674   0.483 -0.2308 -0.0715  0.1744
   75MOL   C29931527   4.084   5.640   0.527 -0.0943  0.2466 -0.4382
   75MOL   C30031528   4.073   5.511   0.606  0.2420  0.4937  0.0513
   75MOL   C30131529   4.065   5.753   0.635  0.1282 -0.2632  0.1160
   75MOL   C30231530   3.986   5.653   0.410 -0.0277 -0.0107  0.0330
   75MOL   H30331531   4.476   5.674   0.395 -0.4108  0.5230 -0.1367
   75MOL   H30431532   4.469   5.581   0.249  1.8865  1.8448 -1.4510
   75MOL   H30531533   4.218   5.601   0.277  1.0269 -0.0143 -0.7375
   75MOL   H30631534   4.247   5.777   0.459  1.3438 -0.7921 -1.3339
   75MOL   H30731535   4.285   5.652   0.570 -1.6750 -3.6407  0.4107
   75MOL   H30831536   3.980   5.521   0.663 -0.7107 -2.2921 -0.9162
   75MOL   H30931537   4.061   5.423   0.543 -0.6373 -0.2186  1.1890
   75MOL   H31031538   4.163   5.508   0.667  1.1218 -0.1438 -1.2592
   75MOL   H31131539   4.073   5.853   0.591 -2.6624  0.6186  1.4487
   75MOL   H31231540   3.970   5.744   0.688 -0.5225  0.7766 -0.8415
   75MOL   H31331541   4.139   5.747   0.714  0.9653  2.6638 -0.3905
   75MOL   H31431542   3.886   5.655   0.452  0.5850 -1.5582  1.6458
   75MOL   H31531543   4.017   5.734   0.344  2.1675 -1.8858 -1.3356
   75MOL   H31631544   3.989   5.564   0.347 -0.4275  0.6954 -1.0048
   75MOL   C31731545   4.300   5.433   0.388 -0.4223 -0.5449 -0.4059
   75MOL   C31831546   4.392   5.338   0.301 -0.4495 -0.1411 -0.3513
   75MOL   C31931547   4.360   5.347   0.150 -0.6956 -0.2021  0.0723
   75MOL   C32031548   4.234   5.281   0.081 -0.1648 -0.0373  0.3111
   75MOL   C32131549   4.103   5.334   0.134  0.6736 -0.0597 -0.7572
   75MOL   C32231550   4.232   5.128   0.100  0.3774 -0.2010 -0.7730
   75MOL   C32331551   4.236   5.311   7.691  0.4282 -0.2040 -0.1184
   75MOL   H32431552   4.314   5.410   0.493  1.1571 -0.9608 -0.6992
   75MOL   H32531553   4.200   5.391   0.388 -0.3902 -0.6536  1.3217
   75MOL   H32631554   4.355   5.236   0.311 -1.9687  0.3952 -0.3086
   75MOL   H32731555   4.441   5.303   0.092 -0.1854  0.4188  0.3133
   75MOL   H32831556   4.359   5.452   0.119 -0.3500 -0.9932 -2.7347
   75MOL   H32931557   4.091   5.442   0.126  1.1809  0.1284  0.9334
   75MOL   H33031558   4.095   5.310   0.240  1.5120 -0.5060 -0.7848
   75MOL   H33131559   4.016   5.296   0.082  0.7829  0.1597 -1.1034
   75MOL   H33231560   4.153   5.072   0.050  1.4468 -3.5521  1.0890
   75MOL   H33331561   4.326   5.092   0.057 -0.5916 -3.0586 -0.6367
   75MOL   H33431562   4.229   5.098   0.205 -0.0140  2.8162  0.1169
   75MOL   H33531563   4.319   5.268   7.634  0.3835  2.8322 -2.5630
   75MOL   H33631564   4.230   5.419   7.686 -1.4467 -0.3734 -2.3077
   75MOL   H33731565   4.144   5.266   7.655  0.7675 -1.2080  0.2471
   75MOL   C33831566   4.545   5.350   0.333  0.8679  0.4520  0.3722
   75MOL   C33931567   4.620   5.227   0.383  0.5769 -0.0633 -0.6237
   75MOL   C34031568   4.600   5.195   0.538 -0.6626 -0.4021  0.5098
   75MOL   C34131569   4.529   5.064   0.585  0.3996 -0.2120 -0.2387
   75MOL   C34231570   4.621   4.946   0.552  0.6786 -0.5309 -0.5687
   75MOL   C34331571   4.515   5.069   0.739  0.0929  0.8371  0.1182
   75MOL   C34431572   4.393   5.034   0.524 -0.1783 -0.1856  0.3478
   75MOL   H34531573   4.572   5.435   0.395  0.1590  0.1356  1.1185
   75MOL   H34631574   4.599   5.376   0.241  1.0983  1.6897  0.8462
   75MOL   H34731575   4.575   5.139   0.337 -0.0932 -0.8855  1.5464
   75MOL   H34831576   4.542   5.280   0.575  1.7252  0.6606  1.8902
   75MOL   H34931577   4.700   5.191   0.581  1.0187 -0.2865 -3.1817
   75MOL   H35031578   4.723   4.966   0.588  0.6842  1.0561 -1.4109
   75MOL   H35131579   4.585   4.853   0.594  0.5866  0.3944  1.4682
   75MOL   H35231580   4.632   4.930   0.445  0.1400  1.8284 -1.0104
   75MOL   H35331581   4.617   5.081   0.776  0.0148  1.3228  0.1796
   75MOL   H35431582   4.457   5.158   0.765 -1.4904 -0.4009  0.9218
   75MOL   H35531583   4.475   4.976   0.779  1.0584  1.0567  1.6375
   75MOL   H35631584   4.338   4.954   0.573 -3.7315  1.1352 -1.3455
   75MOL   H35731585   4.320   5.115   0.517  0.8554  0.8714  1.3731
   75MOL   H35831586   4.409   5.000   0.422  0.6595 -1.5576  0.9205
   75MOL   C35931587   4.775   5.230   0.351 -0.1954  0.1634  0.5595
   75MOL   C36031588   4.821   5.191   0.216  0.5561 -0.5337  0.0205
   75MOL   C36131589   4.803   5.035   0.200 -0.1252 -0.0176 -0.0243
   75MOL   C36231590   4.791   4.976   0.056 -0.2376  1.2316 -0.1282
   75MOL   C36331591   4.766   4.828   0.072  0.1688  0.2727 -0.2368
   75MOL   C36431592   4.921   4.988   7.738  0.3609  0.0175 -0.0121
   75MOL   C36531593   4.679   5.043   7.748  0.2471  0.3280  0.8026
   75MOL   H36631594   4.841   5.180   0.422 -0.0082 -2.9160 -1.6978
   75MOL   H36731595   4.792   5.337   0.360  1.6673 -0.0505 -0.2197
   75MOL   H36831596   4.752   5.241   0.149  1.7880  0.4310 -0.5652
   75MOL   H36931597   4.890   4.989   0.247 -1.7295 -0.0220  3.0365
   75MOL   H37031598   4.722   4.996   0.260 -0.9613  0.8802 -0.5562
   75MOL   H37131599   4.838   4.773   0.132  1.2407  2.0169  0.0983
   75MOL   H37231600   4.670   4.824   0.125 -0.3326  3.5091 -0.8047
   75MOL   H37331601   4.752   4.790   7.737  0.3255  1.5811 -0.7642
   75MOL   H37431602   4.934   5.090   7.701  0.5435  0.2990  0.8319
   75MOL   H37531603   4.912   4.915   7.657  4.3738 -1.3457  0.6606
   75MOL   H37631604   5.006   4.956   0.032  0.2683  0.1114  0.1710
   75MOL   H37731605   4.593   5.038   0.048  0.4702  1.5213  1.1929
   75MOL   H37831606   4.655   5.000   7.651 -0.1985 -0.2982  1.1913
   75MOL   H37931607   4.696   5.149   7.728 -0.5033  0.0305 -1.6592
   75MOL   C38031608   4.963   5.244   0.193  0.4782 -0.6561  0.0305
   75MOL   C38131609   4.983   5.397   0.169  0.7139  0.2271 -0.8099
   75MOL   C38231610   5.004   5.417   0.011 -0.9738 -0.2024  0.3310
   75MOL   C38331611   4.901   5.498   7.692  0.1581 -0.9390 -0.4370
   75MOL   C38431612   4.761   5.445   7.710  0.0619  0.0727  0.4406
   75MOL   C38531613   4.956   5.485   7.548 -0.2715 -0.2888 -0.4309
   75MOL   C38631614   4.906   5.642   7.736 -0.3634  0.3071  0.4915
   75MOL   H38731615   5.014   5.185   0.117 -1.3089  0.2343 -1.9182
   75MOL   H38831616   5.022   5.200   0.273 -0.1215 -0.4430  0.5882
   75MOL   H38931617   4.889   5.445   0.195 -0.6993 -1.5439 -2.3874
   75MOL   H39031618   5.095   5.474   7.757  0.4887 -1.8529  2.1530
   75MOL   H39131619   5.024   5.326   7.721  2.4236  1.8668 -2.0531
   75MOL   H39231620   4.688   5.513   7.666 -0.3203 -0.4537  0.2550
   75MOL   H39331621   4.751   5.348   7.661 -1.2407 -0.4994  1.8095
   75MOL   H39431622   4.729   5.428   0.047 -0.6870 -0.6493  0.0936
   75MOL   H39531623   4.977   5.382   7.520  1.1815 -0.3477  0.7866
   75MOL   H39631624   5.054   5.532   7.537  0.1164 -0.4742  1.8808
   75MOL   H39731625   4.892   5.536   7.476 -1.2612 -0.6829  0.1586
   75MOL   H39831626   4.854   5.694   7.655  2.0091  1.5655 -0.2686
   75MOL   H39931627   5.001   5.693   7.723 -0.1818 -0.5172 -1.5568
   75MOL   H40031628   4.866   5.661   0.070 -0.7364 -0.3510  0.4697
   75MOL   C40131629   5.100   5.447   0.254 -0.5838  0.1421  0.1287
   75MOL   C40231630   5.084   5.445   0.411 -0.5348  0.0845  0.0388
   75MOL   C40331631   5.209   5.522   0.469  0.4724  0.1353 -0.1181
   75MOL   C40431632   5.223   5.537   0.622  0.2001 -0.5321  0.2308
   75MOL   C40531633   5.106   5.627   0.680 -0.2664  0.1948  0.0750
   75MOL   C40631634   5.358   5.611   0.653  0.2792  0.2468  0.7509
   75MOL   C40731635   5.211   5.402   0.692  1.0254 -0.0267 -0.1828
   75MOL   H40831636   5.189   5.389   0.231 -0.9079  0.0221 -0.8537
   75MOL   H40931637   5.109   5.554   0.235  2.3559 -0.0125  0.3682
   75MOL   H41031638   4.991   5.486   0.449 -1.1559 -0.3188 -1.0291
   75MOL   H41131639   5.206   5.620   0.421  2.3862  0.8591  1.1996
   75MOL   H41231640   5.298   5.479   0.423  0.0674 -1.0021  0.1642
   75MOL   H41331641   5.114   5.627   0.789  0.0985  0.6611  0.0499
   75MOL   H41431642   5.004   5.592   0.666  0.2990 -2.6774  2.5877
   75MOL   H41531643   5.121   5.731   0.653 -0.2455  0.5337  1.3726
   75MOL   H41631644   5.369   5.700   0.592  1.4522  0.9677  1.9651
   75MOL   H41731645   5.441   5.545   0.625  0.5623 -0.0904  2.2928
   75MOL   H41831646   5.360   5.633   0.760  2.0785 -0.0131  0.7994
   75MOL   H41931647   5.209   5.414   0.800 -0.7697 -1.1105 -0.0804
   75MOL   H42031648   5.127   5.336   0.670 -1.2885  2.0229  2.1663
   75MOL   H42131649   5.305   5.348   0.679  0.5084 -1.1202  0.5489
   75MOL   H42231650   5.086   5.342   0.447 -2.0992  0.3100  0.8159
   76MOL     C131651   2.617   5.218   1.878 -0.1378 -0.5976  0.3783
   76MOL     C231652   2.534   5.098   1.917 -0.7204  0.1580 -0.8890
   76MOL     C331653   2.493   5.020   1.790  0.1522  0.2021 -0.5126
   76MOL     C431654   2.499   4.866   1.803  0.0585 -0.5757  0.1082
   76MOL     C531655   2.424   4.806   1.929  0.3873  0.4636  0.4499
   76MOL     C631656   2.425   4.808   1.684 -0.7458  0.2741  0.0033
   76MOL     C731657   2.645   4.814   1.792  0.3173  0.1536  0.5659
   76MOL     H831658   2.627   5.299   1.950  3.0599 -1.1150  0.6006
   76MOL     H931659   2.723   5.191   1.871  0.0192 -0.0834  0.7489
   76MOL    H1031660   2.590   5.029   1.979 -2.5487 -0.9692 -0.4448
   76MOL    H1131661   2.557   5.051   1.708  0.3243  1.1562 -0.0294
   76MOL    H1231662   2.390   5.039   1.762  0.1018 -0.4592 -0.7683
   76MOL    H1331663   2.427   4.698   1.914  1.1183  0.5534 -0.1238
   76MOL    H1431664   2.319   4.835   1.934  0.0714 -0.2865 -1.3553
   76MOL    H1531665   2.471   4.825   2.025  0.9053 -0.4325  0.3850
   76MOL    H1631666   2.317   4.796   1.692 -0.9638  2.6140  1.1033
   76MOL    H1731667   2.443   4.867   1.594  1.4484 -1.3891 -0.6719
   76MOL    H1831668   2.456   4.706   1.665  1.4164  0.9316 -0.1633
   76MOL    H1931669   2.704   4.867   1.865 -0.1412  2.9412 -1.0154
   76MOL    H2031670   2.688   4.829   1.693 -0.7146 -1.9990 -0.2593
   76MOL    H2131671   2.648   4.705   1.799  1.5435  0.0385 -1.4834
   76MOL    H2231672   2.570   5.251   1.786  1.4852  1.4567  0.2444
   76MOL    C2331673   2.415   5.141   1.996  0.5194  0.0041 -0.8926
   76MOL    C2431674   2.442   5.205   2.133  0.2402 -0.2073 -0.1760
   76MOL    C2531675   2.462   5.092   2.238  0.0760 -0.3735  0.2364
   76MOL    C2631676   2.581   5.091   2.329 -0.0282  0.2087 -0.1752
   76MOL    C2731677   2.714   5.060   2.259 -0.2929 -0.3338 -0.3546
   76MOL    C2831678   2.600   5.219   2.401 -0.1365 -0.4833  0.4467
   76MOL    C2931679   2.553   4.980   2.435  0.2944  0.3457  0.2698
   76MOL    H3031680   2.356   5.217   1.945 -3.3862 -0.6996  2.2976
   76MOL    H3131681   2.338   5.065   2.012  1.5784 -1.0799 -0.8782
   76MOL    H3231682   2.529   5.270   2.127  0.4577 -0.5472 -0.6904
   76MOL    H3331683   2.453   4.996   2.187 -0.0515  1.3341 -3.0517
   76MOL    H3431684   2.372   5.082   2.299 -0.8026 -1.1620 -1.1739
   76MOL    H3531685   2.796   5.044   2.328  0.2931  0.8934 -0.7575
   76MOL    H3631686   2.710   4.965   2.206  1.3986 -0.2908 -0.5880
   76MOL    H3731687   2.741   5.128   2.178 -0.4102  0.6305  0.4135
   76MOL    H3831688   2.620   5.307   2.340 -0.6251 -0.2268  0.6455
   76MOL    H3931689   2.505   5.248   2.448 -0.8159 -0.0334 -1.1807
   76MOL    H4031690   2.686   5.220   2.468  1.1700  0.6893 -1.2236
   76MOL    H4131691   2.634   4.947   2.500  0.2703  1.5257  0.9098
   76MOL    H4231692   2.536   4.891   2.374  0.4124  1.6057 -1.6588
   76MOL    H4331693   2.465   5.006   2.494  0.1953 -0.1832  0.3549
   76MOL    C4431694   2.329   5.301   2.187  0.0965 -0.7702  0.2831
   76MOL    C4531695   2.286   5.429   2.104 -0.2399  0.0440  0.0179
   76MOL    C4631696   2.397   5.532   2.107  0.6388 -0.3545 -0.0771
   76MOL    C4731697   2.420   5.645   1.999 -0.5625  0.2401 -0.0863
   76MOL    C4831698   2.455   5.560   1.871  0.0209 -0.0664 -0.2479
   76MOL    C4931699   2.544   5.728   2.037 -0.3596  0.2400 -0.0143
   76MOL    C5031700   2.299   5.738   1.991  0.1883  0.0681 -0.6480
   76MOL    H5131701   2.236   5.243   2.192 -0.2728 -0.2367 -0.3042
   76MOL    H5231702   2.345   5.325   2.292 -0.6530 -0.0246  0.2306
   76MOL    H5331703   2.270   5.405   1.999  0.8783  1.3540 -0.4648
   76MOL    H5431704   2.489   5.474   2.105  0.0644 -1.3202  0.7202
   76MOL    H5531705   2.402   5.567   2.210  0.0616 -2.4047  0.6756
   76MOL    H5631706   2.362   5.522   1.828  0.1233  0.9650 -1.4129
   76MOL    H5731707   2.522   5.479   1.896 -1.1546 -0.8761  0.3071
   76MOL    H5831708   2.502   5.617   1.790 -1.3095 -0.6357 -1.4506
   76MOL    H5931709   2.520   5.774   2.133 -0.7901  0.7929 -0.3800
   76MOL    H6031710   2.634   5.668   2.050 -0.7073 -0.7529 -1.9998
   76MOL    H6131711   2.549   5.816   1.973 -0.4953  1.0594  1.0857
   76MOL    H6231712   2.202   5.696   1.962 -0.4838  1.2282 -0.1166
   76MOL    H6331713   2.269   5.782   2.086 -1.3443 -0.1497 -1.0110
   76MOL    H6431714   2.317   5.815   1.916 -0.1479  1.7908  1.0102
   76MOL    C6531715   2.159   5.492   2.165  0.5683  0.0359 -0.2913
   76MOL    C6631716   2.017   5.442   2.120  0.1099  0.3427  0.3194
   76MOL    C6731717   1.987   5.477   1.972  0.0784  0.2226 -0.0396
   76MOL    C6831718   1.934   5.361   1.887  0.5460  0.5046  0.1294
   76MOL    C6931719   1.911   5.405   1.738  0.4103  0.1698  0.0350
   76MOL    C7031720   2.040   5.242   1.882 -0.4758  0.3863 -0.2240
   76MOL    C7131721   1.790   5.310   1.919  0.0312  0.5910 -0.6620
   76MOL    H7231722   2.158   5.462   2.270 -1.3611 -0.2986 -0.3789
   76MOL    H7331723   2.155   5.600   2.154 -1.5572 -0.1517 -1.9328
   76MOL    H7431724   2.005   5.334   2.132 -1.5559  0.5384  0.5794
   76MOL    H7531725   2.079   5.510   1.925 -0.2871 -1.2196 -1.8432
   76MOL    H7631726   1.908   5.552   1.970 -0.3223 -0.0492  2.7907
   76MOL    H7731727   1.846   5.492   1.737 -1.4963 -1.2188  0.1260
   76MOL    H7831728   2.005   5.440   1.695 -0.2008 -0.6683 -2.0387
   76MOL    H7931729   1.853   5.335   1.677 -1.3873  0.2323  1.6049
   76MOL    H8031730   2.143   5.270   1.908 -0.5836  0.9411 -0.4015
   76MOL    H8131731   2.046   5.200   1.782 -0.8284  2.6710 -1.2232
   76MOL    H8231732   2.019   5.153   1.942 -2.0381  0.6354 -0.3895
   76MOL    H8331733   1.800   5.269   2.020  2.3438  0.2109 -1.0247
   76MOL    H8431734   1.767   5.223   1.857  0.5159 -0.0377  0.0306
   76MOL    H8531735   1.708   5.382   1.927 -0.4800 -0.0281 -0.2348
   76MOL    C8631736   1.902   5.503   2.210 -0.2660  0.5263  0.4040
   76MOL    C8731737   1.876   5.441   2.347  0.4276  0.1956 -0.0305
   76MOL    C8831738   1.824   5.293   2.330  0.0787  0.5235  0.6505
   76MOL    C8931739   1.891   5.179   2.422  0.1651 -0.0999  0.4086
   76MOL    C9031740   1.823   5.050   2.389 -0.4356  0.0034  0.9339
   76MOL    C9131741   1.873   5.221   2.565 -0.6425 -0.4785 -0.6018
   76MOL    C9231742   2.046   5.157   2.402  0.0739  0.3495  0.3908
   76MOL    H9331743   1.813   5.506   2.147  0.1077 -1.7155 -0.2885
   76MOL    H9431744   1.927   5.608   2.228 -0.0858  0.3573  1.1650
   76MOL    H9531745   1.973   5.427   2.395 -0.4971 -1.3725  1.4502
   76MOL    H9631746   1.836   5.250   2.230 -0.7404 -1.2447  1.2867
   76MOL    H9731747   1.716   5.288   2.344 -0.0117 -0.0135 -0.2010
   76MOL    H9831748   1.843   5.026   2.285 -0.4106  1.4657  0.5925
   76MOL    H9931749   1.717   5.056   2.414 -0.4412  0.6573  0.7519
   76MOL   H10031750   1.879   4.967   2.433  2.3607  1.0168 -0.5591
   76MOL   H10131751   1.916   5.158   2.642 -1.3816  1.5316  1.5132
   76MOL   H10231752   1.893   5.327   2.579  1.3122 -1.2077  2.6358
   76MOL   H10331753   1.765   5.229   2.579 -0.6000 -0.1948 -0.4344
   76MOL   H10431754   2.079   5.089   2.481  0.1481 -0.1259 -0.0436
   76MOL   H10531755   2.058   5.116   2.302  3.4231  0.2279  0.7879
   76MOL   H10631756   2.102   5.249   2.419 -0.5712  1.1567 -1.7130
   76MOL   C10731757   1.795   5.538   2.439  0.3690 -0.7239  0.6353
   76MOL   C10831758   1.689   5.634   2.375 -0.2739  0.4245 -0.0650
   76MOL   C10931759   1.590   5.554   2.283 -0.0320 -0.2456 -0.1533
   76MOL   C11031760   1.504   5.615   2.170  0.3895  0.4548 -0.5250
   76MOL   C11131761   1.465   5.495   2.070 -0.5294 -0.3488  0.1611
   76MOL   C11231762   1.583   5.722   2.087 -0.4441 -0.4742  0.3557
   76MOL   C11331763   1.366   5.673   2.219  0.2479 -0.0342  0.6598
   76MOL   H11431764   1.864   5.600   2.497  0.3437 -1.8434  1.9093
   76MOL   H11531765   1.738   5.485   2.515 -1.4096 -0.0444 -0.2055
   76MOL   H11631766   1.733   5.702   2.302 -0.3028 -1.1944 -1.6346
   76MOL   H11731767   1.626   5.462   2.236 -3.2813 -1.9292  0.5640
   76MOL   H11831768   1.523   5.507   2.354  0.9695 -1.7151 -0.1604
   76MOL   H11931769   1.431   5.520   1.969 -1.6863  0.0649  0.6460
   76MOL   H12031770   1.542   5.418   2.058  2.0745  2.3603 -1.1349
   76MOL   H12131771   1.376   5.446   2.110 -0.7475  1.0998  1.4818
   76MOL   H12231772   1.531   5.776   2.008  0.5938 -1.0089 -0.7022
   76MOL   H12331773   1.662   5.671   2.033 -0.4875 -0.0812 -0.0764
   76MOL   H12431774   1.637   5.800   2.140  0.7221 -0.6051 -0.6221
   76MOL   H12531775   1.307   5.608   2.284 -2.2941  0.5154 -1.0354
   76MOL   H12631776   1.297   5.681   2.135 -1.9164 -2.0910  2.1664
   76MOL   H12731777   1.381   5.773   2.261 -1.2331  0.6750 -0.4442
   76MOL   C12831778   1.619   5.712   2.490 -0.7098 -0.4440  0.4590
   76MOL   C12931779   1.684   5.850   2.524 -0.1826  0.6740  0.0906
   76MOL   C13031780   1.644   5.960   2.417 -1.1882  0.1056  0.4740
   76MOL   C13131781   1.761   6.049   2.371  0.5479  0.2443  0.3812
   76MOL   C13231782   1.695   6.154   2.281 -0.4762 -0.1437  0.5581
   76MOL   C13331783   1.872   5.976   2.291  0.4815 -0.0303 -0.4273
   76MOL   C13431784   1.828   6.119   2.489 -0.2216 -0.2724  0.0071
   76MOL   H13531785   1.608   5.645   2.576 -2.2269 -1.8514 -0.7808
   76MOL   H13631786   1.517   5.732   2.456  0.1097  1.0708 -1.1484
   76MOL   H13731787   1.791   5.834   2.523 -0.2603  0.1521 -0.6569
   76MOL   H13831788   1.602   5.912   2.329  2.0183 -0.9055 -0.5860
   76MOL   H13931789   1.556   6.010   2.459 -1.1587 -1.2076  2.1689
   76MOL   H14031790   1.616   6.212   2.327  0.0171 -0.2797  1.5927
   76MOL   H14131791   1.661   6.117   2.184  0.5036  0.1514  0.0913
   76MOL   H14231792   1.767   6.228   2.245 -1.2981 -0.4532 -1.8727
   76MOL   H14331793   1.928   5.901   2.346  2.6705 -0.0140 -2.5775
   76MOL   H14431794   1.942   6.046   2.246  2.1164 -2.1173 -1.2373
   76MOL   H14531795   1.821   5.931   2.205  1.9759  2.0841 -2.4782
   76MOL   H14631796   1.916   6.177   2.461  1.2450 -2.2168  0.5393
   76MOL   H14731797   1.759   6.193   2.531  1.6767  1.2324  0.5498
   76MOL   H14831798   1.871   6.051   2.562 -1.6823 -1.4802 -0.2488
   76MOL   C14931799   1.646   5.900   2.669 -0.0717 -0.3022  0.3725
   76MOL   C15031800   1.698   5.822   2.793 -0.8707 -0.3884  0.1650
   76MOL   C15131801   1.851   5.835   2.821  0.0108  0.2798  0.2235
   76MOL   C15231802   1.924   5.706   2.871  1.0308  0.0675 -0.0295
   76MOL   C15331803   2.066   5.747   2.917  0.2372 -0.3236  0.3766
   76MOL   C15431804   1.936   5.610   2.745  0.0781 -0.1306  0.5650
   76MOL   C15531805   1.844   5.639   2.989 -0.1646  0.0790  0.2216
   76MOL   H15631806   1.538   5.912   2.678  0.0167  0.8163 -0.0586
   76MOL   H15731807   1.672   6.005   2.666 -2.0497  0.1453 -2.2255
   76MOL   H15831808   1.686   5.715   2.777 -3.8440  0.1305 -1.5590
   76MOL   H15931809   1.861   5.908   2.901 -2.8734  1.5326 -0.4986
   76MOL   H16031810   1.898   5.874   2.730 -0.2466  1.3483  0.5375
   76MOL   H16131811   2.112   5.805   2.838 -3.1409 -1.0353 -2.2178
   76MOL   H16231812   2.068   5.782   3.021  0.9362  2.3081 -0.5010
   76MOL   H16331813   2.144   5.672   2.930  0.8579  0.4230  1.0351
   76MOL   H16431814   1.999   5.525   2.773  0.4723  0.4827  1.5515
   76MOL   H16531815   1.990   5.653   2.661 -2.3594  1.9430  0.0003
   76MOL   H16631816   1.837   5.573   2.716  1.3627 -1.5567 -2.2057
   76MOL   H16731817   1.749   5.595   2.959  0.8453 -0.1320 -2.8431
   76MOL   H16831818   1.903   5.552   3.018 -1.9092 -1.1568  0.1325
   76MOL   H16931819   1.829   5.701   3.077 -0.1820 -0.2923  0.4831
   76MOL   C17031820   1.621   5.876   2.916 -0.4153  1.0437  0.5215
   76MOL   C17131821   1.460   5.847   2.928 -0.8381  0.9806 -0.1374
   76MOL   C17231822   1.428   5.877   3.079  0.3036  0.5843  0.2567
   76MOL   C17331823   1.369   6.015   3.111  0.6601 -0.3845  0.1771
   76MOL   C17431824   1.467   6.127   3.077 -0.3855 -0.1253  0.2511
   76MOL   C17531825   1.320   6.021   3.263  0.2291 -0.1142 -0.3956
   76MOL   C17631826   1.235   6.043   3.041 -0.2411  0.1671 -0.4010
   76MOL   H17731827   1.630   5.984   2.926  2.7738  0.9088 -0.3603
   76MOL   H17831828   1.669   5.835   3.004  0.9418  1.4201 -0.0374
   76MOL   H17931829   1.398   5.911   2.866 -2.8430 -0.4857  0.2929
   76MOL   H18031830   1.345   5.815   3.110 -0.8566  1.7191 -0.5296
   76MOL   H18131831   1.511   5.837   3.137 -1.8552 -1.9352  1.6918
   76MOL   H18231832   1.419   6.223   3.095  3.0538  2.0998 -1.9197
   76MOL   H18331833   1.553   6.127   3.144  0.7878 -1.4991 -1.2123
   76MOL   H18431834   1.494   6.121   2.971  0.4335  1.6451  0.3463
   76MOL   H18531835   1.276   6.120   3.278 -0.0714 -0.2097 -0.6580
   76MOL   H18631836   1.250   5.948   3.302 -0.2858  0.9204  0.6679
   76MOL   H18731837   1.401   6.014   3.337 -1.2673  1.0532  1.4134
   76MOL   H18831838   1.160   5.964   3.052 -1.8691  1.2419 -3.2393
   76MOL   H18931839   1.187   6.137   3.068  2.0784  0.9414  1.1771
   76MOL   H19031840   1.243   6.062   2.934  1.1660  3.1387  0.1856
   76MOL   C19131841   1.427   5.697   2.891 -0.0074 -1.1388 -0.2630
   76MOL   C19231842   1.282   5.644   2.888  0.1489 -0.2016 -0.1724
   76MOL   C19331843   1.271   5.494   2.851  0.2570 -0.1017  0.2420
   76MOL   C19431844   1.242   5.391   2.957  0.0787  0.7919 -0.3947
   76MOL   C19531845   1.101   5.410   3.005  0.7016  0.5086  0.3982
   76MOL   C19631846   1.331   5.395   3.075  0.1245 -0.1227  0.2796
   76MOL   C19731847   1.243   5.251   2.885 -0.0017  0.0341 -0.1852
   76MOL   H19831848   1.463   5.682   2.789  2.8267  0.2036  0.4893
   76MOL   H19931849   1.485   5.627   2.951 -0.3138 -0.9985  0.1996
   76MOL   H20031850   1.251   5.663   2.991  0.7846 -0.1346  0.0128
   76MOL   H20131851   1.369   5.467   2.813 -0.1275  0.2772 -1.0615
   76MOL   H20231852   1.203   5.483   2.766 -0.0576  1.6833  0.2371
   76MOL   H20331853   1.020   5.426   2.935  1.0413 -0.3300 -0.1903
   76MOL   H20431854   1.068   5.322   3.060  0.0764  0.1423 -0.5717
   76MOL   H20531855   1.097   5.493   3.077 -2.3616  0.8671 -0.1402
   76MOL   H20631856   1.310   5.476   3.145 -1.1924  2.5970 -3.1249
   76MOL   H20731857   1.332   5.305   3.138  0.5593  0.6420  1.3846
   76MOL   H20831858   1.435   5.392   3.043 -0.0397  1.6423 -0.4503
   76MOL   H20931859   1.345   5.230   2.852 -0.4567  0.1964 -1.7449
   76MOL   H21031860   1.212   5.174   2.955  2.3176 -0.2276  0.5953
   76MOL   H21131861   1.177   5.234   2.800  1.0278 -1.7513 -0.6457
   76MOL   C21231862   1.193   5.746   2.801 -0.2178  0.5688 -0.3450
   76MOL   C21331863   1.039   5.716   2.792 -0.7940  0.3763 -0.0310
   76MOL   C21431864   0.972   5.800   2.672  0.0162  0.4094  0.2001
   76MOL   C21531865   0.959   5.730   2.531  0.3271  0.1180  0.6317
   76MOL   C21631866   0.882   5.593   2.531 -0.2154  0.2900  0.0570
   76MOL   C21731867   0.865   5.817   2.441  0.7239 -0.9109 -0.2106
   76MOL   C21831868   1.095   5.704   2.476  0.2400  0.0723 -0.3575
   76MOL   H21931869   1.203   5.850   2.832 -1.3732  1.1381 -1.7983
   76MOL   H22031870   1.225   5.720   2.700 -1.3232 -0.9155 -0.3430
   76MOL   H22131871   1.029   5.610   2.770  0.2366  0.3970 -0.6405
   76MOL   H22231872   1.027   5.894   2.666 -0.1703  0.4021 -1.9638
   76MOL   H22331873   0.873   5.841   2.694  0.4626  0.2704  2.6936
   76MOL   H22431874   0.909   5.522   2.453  0.5345  0.0316  0.5502
   76MOL   H22531875   0.774   5.604   2.538 -0.4209 -1.4298 -0.0578
   76MOL   H22631876   0.901   5.534   2.621  0.2649 -0.2925 -0.4281
   76MOL   H22731877   0.843   5.763   2.350 -0.6912 -1.4876  0.4643
   76MOL   H22831878   0.774   5.831   2.499  1.8088 -1.6731  1.7215
   76MOL   H22931879   0.906   5.913   2.409  1.3225 -1.6463 -1.7040
   76MOL   H23031880   1.095   5.677   2.371 -1.4806  1.8431 -0.8389
   76MOL   H23131881   1.139   5.621   2.532 -0.0814 -0.5159 -0.9793
   76MOL   H23231882   1.160   5.791   2.489  1.9703 -1.1922 -0.3535
   76MOL   C23331883   0.969   5.757   2.929  0.2161 -0.3062 -0.6969
   76MOL   C23431884   0.810   5.734   2.940 -0.0648  0.4926 -0.2969
   76MOL   C23531885   0.779   5.586   2.924  0.3661 -0.5846 -0.5144
   76MOL   C23631886   0.635   5.537   2.908 -0.6170  0.6460 -0.2033
   76MOL   C23731887   0.563   5.611   2.797 -0.8463  0.7399  0.1572
   76MOL   C23831888   0.644   5.389   2.864  0.1168  0.4918  0.6473
   76MOL   C23931889   0.553   5.535   3.046  0.4395  0.1897  0.3324
   76MOL   H24031890   0.987   5.863   2.944 -2.6266  0.7573 -4.2370
   76MOL   H24131891   1.011   5.687   3.001  0.3869  1.2617  0.7433
   76MOL   H24231892   0.753   5.788   2.865  0.9037  0.9870 -0.6814
   76MOL   H24331893   0.823   5.561   2.828  0.6992  1.6914 -0.9778
   76MOL   H24431894   0.833   5.533   3.002 -1.0274 -0.2201  0.7249
   76MOL   H24531895   0.552   5.716   2.826 -0.2829  0.7351  0.4150
   76MOL   H24631896   0.460   5.587   2.770  0.1476  0.3083 -3.5433
   76MOL   H24731897   0.628   5.616   2.709 -3.2987  0.6858 -1.6984
   76MOL   H24831898   0.705   5.373   2.776 -0.0443  0.9676  0.4464
   76MOL   H24931899   0.688   5.332   2.946  2.8975  0.8880 -0.5375
   76MOL   H25031900   0.546   5.345   2.843  1.7502 -1.8508 -2.3949
   76MOL   H25131901   0.499   5.627   3.069  0.1392 -0.3505  1.8307
   76MOL   H25231902   0.475   5.459   3.049  2.1132 -1.5286  0.5952
   76MOL   H25331903   0.619   5.530   3.132  0.3540 -0.9568  0.3343
   76MOL   C25431904   0.746   5.796   3.069 -0.1262  0.0762  0.4715
   76MOL   C25531905   0.754   5.950   3.087  0.8722  0.2354  0.3528
   76MOL   C25631906   0.722   5.991   3.229  0.3825 -0.5468  0.0203
   76MOL   C25731907   0.832   6.017   3.331 -0.1157  0.2001 -0.3647
   76MOL   C25831908   0.923   5.896   3.343  0.1590  0.5812 -0.3559
   76MOL   C25931909   0.765   6.041   3.465 -0.0054  0.2359  0.1398
   76MOL   C26031910   0.923   6.135   3.296 -1.0003 -0.4377  0.0180
   76MOL   H26131911   0.794   5.736   3.147 -2.1566 -0.9799  0.9445
   76MOL   H26231912   0.640   5.775   3.082 -0.1921  1.4726  2.3746
   76MOL   H26331913   0.854   5.989   3.067  1.6220 -0.9015  1.7811
   76MOL   H26431914   0.665   6.083   3.240  1.6447  0.2795 -0.2256
   76MOL   H26531915   0.650   5.923   3.276 -1.6098  0.8600 -0.9326
   76MOL   H26631916   0.871   5.808   3.379  0.9906  0.9224  1.8076
   76MOL   H26731917   0.990   5.907   3.429 -0.1545 -1.4622  0.1604
   76MOL   H26831918   0.980   5.865   3.256  1.2126 -0.0954  0.5632
   76MOL   H26931919   0.698   5.962   3.500 -0.2052  0.6303  0.6595
   76MOL   H27031920   0.699   6.128   3.460 -0.4418 -0.1909 -1.8287
   76MOL   H27131921   0.839   6.050   3.545  0.3463 -1.3160  0.0098
   76MOL   H27231922   0.995   6.116   3.217  1.4670  0.6756  1.9294
   76MOL   H27331923   0.857   6.218   3.272 -1.5551 -1.0403 -0.5615
   76MOL   H27431924   0.978   6.168   3.384 -0.7974 -3.5478  1.1212
   76MOL   C27531925   0.676   6.022   2.973 -0.8127 -0.1010  0.1890
   76MOL   C27631926   0.657   6.174   2.995 -0.0971  0.0665 -0.2676
   76MOL   C27731927   0.699   6.252   2.868 -0.2116 -0.2229 -0.0781
   76MOL   C27831928   0.848   6.299   2.852 -0.3187 -0.6093  0.1948
   76MOL   C27931929   0.950   6.190   2.867 -0.1859 -0.1367  0.2400
   76MOL   C28031930   0.855   6.359   2.709  0.2549  0.0431 -0.2941
   76MOL   C28131931   0.880   6.422   2.946  0.4427 -0.2869  0.2346
   76MOL   H28231932   0.732   6.001   2.882 -1.0399 -0.7567  0.1938
   76MOL   H28331933   0.583   5.966   2.958 -0.8786 -0.0693  0.4825
   76MOL   H28431934   0.736   6.195   3.067  0.1324  0.8150 -0.7389
   76MOL   H28531935   0.636   6.339   2.851  0.6636  0.4085 -0.1350
   76MOL   H28631936   0.680   6.183   2.786  1.4166 -1.1945  0.3377
   76MOL   H28731937   1.049   6.234   2.859  0.3054 -1.3460 -0.4378
   76MOL   H28831938   0.947   6.160   2.971  2.0650  0.1659  0.4198
   76MOL   H28931939   0.946   6.105   2.799 -0.3068  1.4208 -1.7438
   76MOL   H29031940   0.787   6.444   2.705 -3.0637 -2.4722  0.5024
   76MOL   H29131941   0.836   6.281   2.635 -1.0306 -0.9572  1.0801
   76MOL   H29231942   0.953   6.404   2.690  0.9521 -0.5188  1.8009
   76MOL   H29331943   0.982   6.459   2.938  0.0916  0.6128 -0.1510
   76MOL   H29431944   0.873   6.387   3.049 -2.4252 -0.0856  0.1470
   76MOL   H29531945   0.809   6.501   2.923 -0.0806 -0.6571  0.5576
   76MOL   C29631946   0.505   6.207   3.031 -0.6428 -0.6170 -0.2977
   76MOL   C29731947   0.485   6.318   3.141 -0.0424  0.1341 -0.0835
   76MOL   C29831948   0.332   6.325   3.160 -0.0872 -0.2548 -0.2285
   76MOL   C29931949   0.271   6.240   3.279  0.2767  0.6308 -0.5769
   76MOL   C30031950   0.331   6.292   3.413 -0.0038  0.7884  0.3606
   76MOL   C30131951   0.121   6.263   3.283 -0.2741 -0.1187  0.0315
   76MOL   C30231952   0.294   6.086   3.263  0.1484  0.3258 -0.1253
   76MOL   H30331953   0.457   6.114   3.062 -1.6813  0.1130  0.3032
   76MOL   H30431954   0.450   6.238   2.943  0.0465 -1.3892 -1.0109
   76MOL   H30531955   0.541   6.287   3.229 -2.8221 -0.8918  1.4067
   76MOL   H30631956   0.286   6.313   3.062 -0.4538  0.8240 -0.1954
   76MOL   H30731957   0.306   6.428   3.184 -1.0611  0.2161 -3.1037
   76MOL   H30831958   0.283   6.242   3.497  0.7655  0.2661  0.4890
   76MOL   H30931959   0.439   6.290   3.421  0.2295 -0.6512 -2.8270
   76MOL   H31031960   0.301   6.397   3.417 -1.3203  0.3723  3.4194
   76MOL   H31131961   0.093   6.369   3.281 -1.3529 -0.3107  3.0478
   76MOL   H31231962   0.060   6.211   3.209  0.5103  1.2620 -1.6110
   76MOL   H31331963   0.081   6.226   3.377 -0.9388 -2.6545 -1.1923
   76MOL   H31431964   0.399   6.059   3.264 -0.2907 -1.5738  3.8742
   76MOL   H31531965   0.262   6.021   3.345 -2.0370 -1.7388 -2.5093
   76MOL   H31631966   0.269   6.054   3.162  0.9852 -0.0186 -0.2249
   76MOL   C31731967   0.554   6.456   3.109  0.1916  0.3607  0.1670
   76MOL   C31831968   0.573   6.555   3.225 -0.5228 -0.5871  0.2119
   76MOL   C31931969   0.694   6.505   3.308 -0.5735  0.2155 -0.5918
   76MOL   C32031970   0.717   6.534   3.457  0.2769 -0.6044 -0.3799
   76MOL   C32131971   0.620   6.462   3.552 -0.0705  0.6074  0.0037
   76MOL   C32231972   0.696   6.686   3.494  0.1044 -0.0261  0.6832
   76MOL   C32331973   0.860   6.489   3.490  0.0537  0.7804  0.5244
   76MOL   H32431974   0.654   6.440   3.070 -0.4087  0.9372 -1.6808
   76MOL   H32531975   0.493   6.506   3.033  0.1805  1.6232  0.9943
   76MOL   H32631976   0.483   6.556   3.286 -0.6949 -0.0174 -0.0481
   76MOL   H32731977   0.778   6.549   3.253  2.1817 -2.3498  1.4264
   76MOL   H32831978   0.717   6.399   3.295  1.0613  0.5322 -0.4254
   76MOL   H32931979   0.642   6.355   3.543 -1.5443  0.2873 -0.0912
   76MOL   H33031980   0.512   6.477   3.540 -0.4149 -1.5338  0.0974
   76MOL   H33131981   0.638   6.481   3.657  0.9946  0.3240 -0.1257
   76MOL   H33231982   0.592   6.715   3.479 -0.1384 -1.6384 -0.9126
   76MOL   H33331983   0.717   6.705   3.600  3.9272 -0.1504  0.0155
   76MOL   H33431984   0.760   6.756   3.442  1.5546 -0.5868  1.6574
   76MOL   H33531985   0.893   6.394   3.450 -1.5862 -0.0130  1.0127
   76MOL   H33631986   0.880   6.486   3.597 -0.6361  0.4497  0.6448
   76MOL   H33731987   0.929   6.568   3.460 -1.2548  1.8194  0.2021
   76MOL   C33831988   0.594   6.697   3.160  0.6159 -0.1244  0.2602
   76MOL   C33931989   0.474   6.782   3.106 -0.8859  0.2533  0.2931
   76MOL   C34031990   0.533   6.905   3.028  0.1112  0.4510 -0.4511
   76MOL   C34131991   0.551   6.883   2.882  0.2727  0.5022  0.3996
   76MOL   C34231992   0.653   6.771   2.846  0.4503 -0.3043 -0.2802
   76MOL   C34331993   0.422   6.857   2.804 -0.0762  0.3677  1.2306
   76MOL   C34431994   0.612   7.012   2.830  0.2775 -0.1200  0.3352
   76MOL   H34531995   0.667   6.671   3.083 -1.2715  1.4792 -2.1400
   76MOL   H34631996   0.647   6.753   3.237 -1.4965 -1.2805  2.6103
   76MOL   H34731997   0.424   6.719   3.033  0.3376 -2.2650  1.5246
   76MOL   H34831998   0.623   6.945   3.075  1.7875 -1.2431 -2.1075
   76MOL   H34931999   0.462   6.987   3.037  1.0689  1.2782 -0.3065
   76MOL   H35032000   0.741   6.770   2.910 -0.4818  0.7877  1.0401
   76MOL   H35132001   0.601   6.675   2.851 -0.7800  0.2939 -1.2424
   76MOL   H35232002   0.692   6.772   2.744 -0.1780  2.0877 -0.5144
   76MOL   H35332003   0.448   6.814   2.708 -2.1147  1.6430  0.0761
   76MOL   H35432004   0.368   6.776   2.852 -1.8847  1.3971  0.9650
   76MOL   H35532005   0.349   6.938   2.796 -1.3769 -0.6095  3.0071
   76MOL   H35632006   0.712   7.018   2.873  0.0869 -1.1236  0.9570
   76MOL   H35732007   0.612   7.017   2.722 -0.6709 -2.2600  0.1976
   76MOL   H35832008   0.552   7.097   2.859 -3.2389 -2.1173 -0.7851
   76MOL   C35932009   0.376   6.810   3.219  0.5628 -0.3239 -0.3544
   76MOL   C36032010   0.232   6.855   3.178 -0.1613  0.2375  0.0494
   76MOL   C36132011   0.157   6.943   3.283  0.3307  0.0378 -0.2694
   76MOL   C36232012   0.122   7.094   3.253 -0.0565 -0.5779  0.2644
   76MOL   C36332013   0.255   7.170   3.246  0.9707 -0.1290  0.3296
   76MOL   C36432014   0.046   7.148   3.377 -0.2996  0.0141 -0.5776
   76MOL   C36532015   0.040   7.115   3.128  0.3378 -0.6431  0.1195
   76MOL   H36632016   0.417   6.889   3.282  0.9985 -1.5354  0.8931
   76MOL   H36732017   0.363   6.733   3.295 -1.2047  1.7698  1.5199
   76MOL   H36832018   0.239   6.915   3.087  0.5916 -1.6972 -1.2047
   76MOL   H36932019   0.074   6.883   3.320 -0.6820  0.7246 -1.3817
   76MOL   H37032020   0.213   6.946   3.376  1.4426 -2.4369 -0.8302
   76MOL   H37132021   0.302   7.122   3.160 -1.0872 -1.0718 -0.2994
   76MOL   H37232022   0.250   7.278   3.235 -1.1480 -0.0976  1.3281
   76MOL   H37332023   0.314   7.150   3.335  0.4712  1.1180  0.9529
   76MOL   H37432024   0.086   7.125   3.476  0.5073 -0.2992 -0.9769
   76MOL   H37532025   7.708   7.114   3.383 -0.0695 -0.5703  0.1877
   76MOL   H37632026   0.030   7.256   3.382  0.4880  0.1177 -0.2650
   76MOL   H37732027   7.712   7.069   3.157  0.1898  0.5320  1.5540
   76MOL   H37832028   0.079   7.062   3.040  0.8975  0.0609 -0.0632
   76MOL   H37932029   0.024   7.219   3.103  1.5934 -1.2192 -3.4236
   76MOL   C38032030   0.148   6.731   3.131 -0.9045  0.3789  0.8972
   76MOL   C38132031   0.011   6.765   3.060  0.1128 -0.0516 -0.5541
   76MOL   C38232032   7.671   6.657   3.087 -0.1985 -0.5355 -0.2616
   76MOL   C38332033   7.525   6.707   3.134 -0.2386  0.1592  0.3905
   76MOL   C38432034   7.474   6.821   3.034 -0.5537  0.3188 -0.3810
   76MOL   C38532035   7.539   6.770   3.267 -0.2994  0.3869  0.2312
   76MOL   C38632036   7.427   6.589   3.118 -0.5385  0.1746 -0.1973
   76MOL   H38732037   0.111   6.677   3.218 -4.0543  1.7546  0.5165
   76MOL   H38832038   0.210   6.667   3.069  0.4278 -1.6279  4.1585
   76MOL   H38932039   7.754   6.853   3.120  0.2276 -1.4628  1.6291
   76MOL   H39032040   7.671   6.591   3.000 -0.8844 -1.8844  0.7508
   76MOL   H39132041   7.709   6.588   3.161 -0.6023 -0.5074 -0.0254
   76MOL   H39232042   7.475   6.771   2.938 -1.0610  0.0504 -0.2470
   76MOL   H39332043   7.368   6.845   3.048 -0.3478  0.0897  1.7401
   76MOL   H39432044   7.536   6.910   3.039  0.6713 -0.5613  0.4124
   76MOL   H39532045   7.584   6.869   3.258  0.2067  0.0552 -0.9913
   76MOL   H39632046   7.609   6.709   3.323 -0.9764 -1.7016 -1.1615
   76MOL   H39732047   7.444   6.781   3.320 -0.0984 -0.6082  0.7949
   76MOL   H39832048   7.415   6.559   3.014  1.8357 -1.4899 -0.0556
   76MOL   H39932049   7.333   6.621   3.163 -0.3549  0.7769 -0.2411
   76MOL   H40032050   7.466   6.505   3.176  0.6096  0.6859 -0.1999
   76MOL   C40132051   0.023   6.804   2.905 -0.0495 -0.2706  0.9688
   76MOL   C40232052   0.052   6.691   2.796 -0.1812 -0.3231 -0.0175
   76MOL   C40332053   0.102   6.746   2.658 -0.3205 -0.5643  0.5473
   76MOL   C40432054   0.155   6.631   2.571 -0.3935 -0.5005  0.2716
   76MOL   C40532055   0.047   6.528   2.541 -0.9667 -0.5080 -0.5070
   76MOL   C40632056   0.282   6.559   2.630  0.7093 -0.6680  0.5179
   76MOL   C40732057   0.192   6.685   2.426  0.2136 -0.2123  0.6747
   76MOL   H40832058   7.701   6.859   2.871  1.3321  0.2308 -2.0143
   76MOL   H40932059   0.098   6.883   2.901 -0.3912 -0.0305 -1.4564
   76MOL   H41032060   0.115   6.618   2.846 -0.7120 -2.8387 -2.8151
   76MOL   H41132061   0.181   6.820   2.670  0.6094 -1.6542  1.2009
   76MOL   H41232062   0.022   6.795   2.602  2.6770  1.9478 -1.7562
   76MOL   H41332063   7.723   6.585   2.521  0.9688  2.6771 -0.4624
   76MOL   H41432064   0.029   6.458   2.623 -2.2851 -1.9841 -2.0373
   76MOL   H41532065   0.049   6.469   2.449  0.5177 -0.0972 -0.7447
   76MOL   H41632066   0.253   6.528   2.730 -0.6815 -0.8379  0.0736
   76MOL   H41732067   0.367   6.627   2.635 -0.3878  0.9782 -1.8038
   76MOL   H41832068   0.310   6.468   2.579  1.4499  1.0568 -2.2686
   76MOL   H41932069   0.283   6.744   2.437  0.3995 -0.4327  0.3266
   76MOL   H42032070   0.195   6.599   2.359  0.0230 -0.3432  0.8343
   76MOL   H42132071   0.113   6.755   2.399  0.6301 -0.2550 -0.6885
   76MOL   H42232072   7.723   6.638   2.786 -0.9619  1.3206 -1.5529
   77MOL     C132073   4.325   2.336   2.038  0.2297 -0.0702 -0.8511
   77MOL     C232074   4.210   2.339   1.930  0.2794  0.4888 -0.2018
   77MOL     C332075   4.101   2.230   1.963 -0.3336 -0.3573 -0.2795
   77MOL     C432076   3.987   2.270   2.055 -0.1815  0.3618  0.1383
   77MOL     C532077   3.933   2.413   2.019  0.0256  0.4350  0.3955
   77MOL     C632078   3.865   2.170   2.036  0.4282 -0.7851 -0.2733
   77MOL     C732079   4.020   2.262   2.207 -0.5895  0.1868  0.1360
   77MOL     H832080   4.414   2.389   2.003  1.0197 -2.1630 -2.1055
   77MOL     H932081   4.301   2.363   2.141 -0.6111 -1.5142 -0.6565
   77MOL    H1032082   4.166   2.437   1.912  1.6382  1.0151 -0.6904
   77MOL    H1132083   4.139   2.134   2.000 -1.9374 -1.2300 -0.8520
   77MOL    H1232084   4.064   2.183   1.872 -1.7871  0.5598 -0.1653
   77MOL    H1332085   4.009   2.488   2.043 -2.0018  3.5344 -2.4175
   77MOL    H1432086   3.832   2.436   2.053 -0.4998  3.3415 -2.8737
   77MOL    H1532087   3.915   2.427   1.912  0.5750 -0.8283  0.1216
   77MOL    H1632088   3.851   2.151   1.930 -1.4512 -0.3816 -0.1129
   77MOL    H1732089   3.890   2.069   2.070 -0.1611 -0.4701  1.1450
   77MOL    H1832090   3.766   2.198   2.072 -0.8846 -1.5568 -3.1385
   77MOL    H1932091   4.098   2.330   2.244  1.2026 -0.3301 -2.5129
   77MOL    H2032092   4.051   2.160   2.229 -1.9337 -0.0255  1.1023
   77MOL    H2132093   3.932   2.271   2.270 -1.3436  0.0500 -0.8745
   77MOL    H2232094   4.372   2.239   2.054  3.5742  1.6500  0.3279
   77MOL    C2332095   4.264   2.308   1.784  0.2297 -0.3352 -0.8223
   77MOL    C2432096   4.175   2.335   1.668  0.1519  0.2378 -0.0979
   77MOL    C2532097   4.218   2.272   1.534  0.6813  0.8320  0.2859
   77MOL    C2632098   4.201   2.113   1.513 -0.4985  0.5553  0.6595
   77MOL    C2732099   4.281   2.026   1.613 -0.1690 -0.2925  0.3357
   77MOL    C2832100   4.057   2.061   1.509  0.0299 -0.0116  0.5374
   77MOL    C2932101   4.271   2.087   1.381 -0.3568  0.2641  0.1378
   77MOL    H3032102   4.354   2.367   1.767  1.2465 -1.7579 -0.5084
   77MOL    H3132103   4.311   2.210   1.781  0.6885 -0.1064 -1.1207
   77MOL    H3232104   4.076   2.293   1.687  0.6712 -1.1160 -0.3301
   77MOL    H3332105   4.325   2.289   1.525  0.8036 -0.6270 -1.0399
   77MOL    H3432106   4.160   2.315   1.453 -1.1579  0.1464  1.2143
   77MOL    H3532107   4.232   2.022   1.710 -0.3320 -0.2242  0.2554
   77MOL    H3632108   4.289   1.926   1.570 -0.6496  0.4881 -1.6316
   77MOL    H3732109   4.381   2.069   1.620  0.9535 -2.6078 -1.1253
   77MOL    H3832110   4.049   1.958   1.474  1.3604 -0.1872  0.7521
   77MOL    H3932111   4.022   2.053   1.612  3.9612 -1.0630  1.8679
   77MOL    H4032112   3.986   2.124   1.455 -0.4522 -1.0258 -0.0144
   77MOL    H4132113   4.376   2.114   1.370 -0.0162 -0.0808  2.3303
   77MOL    H4232114   4.226   2.143   1.299  0.4697  1.6851  0.6342
   77MOL    H4332115   4.271   1.979   1.365 -2.1695  0.4226 -1.1500
   77MOL    C4432116   4.151   2.486   1.643  0.0522  0.0185 -0.0290
   77MOL    C4532117   4.035   2.532   1.550  0.5173  0.4072 -0.0408
   77MOL    C4632118   4.067   2.680   1.496  0.1925 -0.7337  0.7101
   77MOL    C4732119   4.141   2.702   1.356  0.1421  1.1566 -0.0411
   77MOL    C4832120   4.145   2.855   1.330  0.1479  0.1289 -0.4613
   77MOL    C4932121   4.049   2.660   1.235  0.0549 -0.0938  0.1293
   77MOL    C5032122   4.282   2.645   1.341 -1.1762  0.2525 -0.2387
   77MOL    H5132123   4.150   2.542   1.736 -1.1874  1.1828 -0.7358
   77MOL    H5232124   4.241   2.522   1.593  0.7659 -0.7986  0.6427
   77MOL    H5332125   4.013   2.460   1.472 -3.4614  0.6000  0.7854
   77MOL    H5432126   4.111   2.738   1.577 -0.3188  0.1554  0.3623
   77MOL    H5532127   3.970   2.727   1.479 -0.3859 -1.0223  3.0005
   77MOL    H5632128   4.053   2.909   1.351 -0.9817 -1.2360 -1.7805
   77MOL    H5732129   4.181   2.884   1.232  2.5434 -0.2112  0.2856
   77MOL    H5832130   4.211   2.894   1.408 -3.0584  0.0153  2.4481
   77MOL    H5932131   4.028   2.554   1.235  0.3590 -0.1550  0.0357
   77MOL    H6032132   3.952   2.707   1.222 -0.5775 -2.0433 -2.4503
   77MOL    H6132133   4.105   2.676   1.143 -1.1111  0.4492 -0.4981
   77MOL    H6232134   4.321   2.678   1.245 -1.4386 -0.4526 -0.5924
   77MOL    H6332135   4.341   2.689   1.421 -2.5264  2.2098 -0.2854
   77MOL    H6432136   4.281   2.536   1.340 -2.7705  0.2635 -1.9459
   77MOL    C6532137   3.908   2.531   1.638 -0.1030  0.0292  0.0660
   77MOL    C6632138   3.771   2.508   1.560 -0.0518 -0.0253  0.3876
   77MOL    C6732139   3.642   2.541   1.658  0.0593 -0.1199  0.2447
   77MOL    C6832140   3.633   2.679   1.729 -0.5281  0.3217 -0.1536
   77MOL    C6932141   3.484   2.716   1.755 -0.4587  0.6754  0.1931
   77MOL    C7032142   3.703   2.671   1.866  0.3656  0.5796 -0.4673
   77MOL    C7132143   3.699   2.794   1.650 -0.2366  0.0373  0.2801
   77MOL    H7232144   3.916   2.450   1.711 -0.2073  1.3830  1.6060
   77MOL    H7332145   3.906   2.622   1.698  0.1650  1.0522 -1.4538
   77MOL    H7432146   3.762   2.582   1.481 -2.8601  0.2374  0.9087
   77MOL    H7532147   3.637   2.463   1.735 -0.1105  0.2067  0.5664
   77MOL    H7632148   3.549   2.539   1.602  0.7012  2.7121 -1.0207
   77MOL    H7732149   3.435   2.635   1.810  1.5223  0.0046  1.0006
   77MOL    H7832150   3.478   2.804   1.819 -0.2860  2.2557 -1.9236
   77MOL    H7932151   3.438   2.740   1.659  1.5090 -0.5580 -1.0866
   77MOL    H8032152   3.667   2.587   1.926  1.5704 -0.8853 -1.7666
   77MOL    H8132153   3.685   2.759   1.928  1.2120 -0.4155  1.2440
   77MOL    H8232154   3.812   2.673   1.868  0.3641  1.0854 -0.7648
   77MOL    H8332155   3.662   2.885   1.698  4.3555  1.5970  1.2062
   77MOL    H8432156   3.669   2.796   1.546 -0.1013  1.2824  0.2493
   77MOL    H8532157   3.808   2.796   1.648 -0.2360  0.3645  0.4770
   77MOL    C8632158   3.748   2.364   1.509 -0.0297  0.5175 -0.9415
   77MOL    C8732159   3.653   2.353   1.392 -0.5984  0.1828  0.0905
   77MOL    C8832160   3.584   2.214   1.380 -0.2236 -0.0285 -0.4420
   77MOL    C8932161   3.486   2.153   1.489 -0.1303 -0.4315  0.0965
   77MOL    C9032162   3.565   2.054   1.574  0.3083 -0.9556 -0.4122
   77MOL    C9132163   3.376   2.083   1.409 -0.1467 -0.0329  0.1187
   77MOL    C9232164   3.423   2.258   1.586 -0.4854 -0.3519 -0.0570
   77MOL    H9332165   3.716   2.305   1.595  0.0018  3.6175  1.3202
   77MOL    H9432166   3.844   2.321   1.481  0.9790  1.6808  0.5953
   77MOL    H9532167   3.575   2.419   1.430  1.6738  2.4551  1.0428
   77MOL    H9632168   3.669   2.150   1.353 -0.8246 -1.3404  0.7536
   77MOL    H9732169   3.536   2.234   1.284  0.9037  3.3208 -0.3591
   77MOL    H9832170   3.663   2.091   1.606  0.7889 -3.1386  0.7323
   77MOL    H9932171   3.590   1.963   1.520 -1.2034 -2.3956  1.2844
   77MOL   H10032172   3.516   2.024   1.667  1.8891 -0.7909  0.4980
   77MOL   H10132173   3.324   2.157   1.348  0.6274  1.1025  0.8011
   77MOL   H10232174   3.410   2.013   1.334 -0.7247 -0.0566 -0.1269
   77MOL   H10332175   3.301   2.036   1.473  0.6605 -0.4697  0.7505
   77MOL   H10432176   3.486   2.285   1.671 -4.1235  0.1980  2.5819
   77MOL   H10532177   3.381   2.350   1.545  0.8136  0.9891  1.5500
   77MOL   H10632178   3.322   2.227   1.615 -0.6772  1.2487  1.0636
   77MOL   C10732179   3.723   2.406   1.268 -0.5629  0.3280  0.4203
   77MOL   C10832180   3.620   2.482   1.179  0.8877 -0.9084  0.3331
   77MOL   C10932181   3.604   2.630   1.219  0.3860  0.0061  0.1041
   77MOL   C11032182   3.456   2.695   1.212 -0.5068 -0.2227 -0.1258
   77MOL   C11132183   3.465   2.825   1.287 -0.9388  0.1098  0.0848
   77MOL   C11232184   3.350   2.609   1.269 -0.5805  0.5143  0.6886
   77MOL   C11332185   3.421   2.740   1.068  0.4358 -0.1484  0.9234
   77MOL   H11432186   3.769   2.327   1.209  1.8307  1.2206  1.0354
   77MOL   H11532187   3.804   2.477   1.282 -0.8003  0.5006  0.9580
   77MOL   H11632188   3.518   2.442   1.183  0.0742  1.2515  1.9396
   77MOL   H11732189   3.647   2.655   1.316  0.3986 -0.5091  0.2291
   77MOL   H11832190   3.669   2.689   1.154 -1.2813  0.8063 -0.8775
   77MOL   H11932191   3.380   2.894   1.283  0.1619  1.4454 -0.9813
   77MOL   H12032192   3.477   2.808   1.394 -1.0391 -2.1804 -0.2618
   77MOL   H12132193   3.550   2.890   1.263 -1.1048  0.1279 -0.4578
   77MOL   H12232194   3.318   2.540   1.191  0.0677  1.5258 -0.4864
   77MOL   H12332195   3.264   2.674   1.288 -1.2563 -0.0501 -0.3757
   77MOL   H12432196   3.385   2.561   1.361 -0.1876  0.3906  0.4729
   77MOL   H12532197   3.449   2.657   1.003  2.6901  0.2648  1.3222
   77MOL   H12632198   3.482   2.826   1.041 -0.5405  0.5185  0.7956
   77MOL   H12732199   3.316   2.763   1.052  0.9372 -0.0505 -2.6055
   77MOL   C12832200   3.671   2.460   1.029 -0.3175  0.5552 -0.6341
   77MOL   C12932201   3.626   2.321   0.968 -0.1808  0.0736 -0.1607
   77MOL   C13032202   3.499   2.329   0.869 -0.6632  0.3452  0.3652
   77MOL   C13132203   3.381   2.235   0.910 -0.4664  0.1791 -0.0621
   77MOL   C13232204   3.330   2.285   1.040  0.9882 -0.0119 -0.6605
   77MOL   C13332205   3.422   2.090   0.914 -0.1666  0.1699 -0.4783
   77MOL   C13432206   3.277   2.256   0.800 -1.1877  0.4143 -0.4972
   77MOL   H13532207   3.778   2.475   1.013  0.1547 -0.5198  1.3118
   77MOL   H13632208   3.637   2.545   0.970 -0.3187  0.4818 -0.7396
   77MOL   H13732209   3.598   2.260   1.054 -0.1691  1.0624  0.5477
   77MOL   H13832210   3.463   2.432   0.871  1.0635  0.9921 -0.8166
   77MOL   H13932211   3.530   2.315   0.766 -0.8002 -2.9987  0.7408
   77MOL   H14032212   3.341   2.393   1.037  2.2544 -0.0235  1.9657
   77MOL   H14132213   3.391   2.264   1.128  0.7833 -2.4643 -1.0646
   77MOL   H14232214   3.225   2.265   1.057  1.2997  0.0127  1.4255
   77MOL   H14332215   3.502   2.055   0.979 -1.1336 -0.6893  0.2619
   77MOL   H14432216   3.466   2.062   0.818  2.6745  0.3409  0.7354
   77MOL   H14532217   3.340   2.026   0.944 -0.1594 -0.0444 -0.9052
   77MOL   H14632218   3.335   2.251   0.707  1.4409  1.1741  1.0330
   77MOL   H14732219   3.193   2.187   0.799 -1.5104  0.8075 -0.3364
   77MOL   H14832220   3.247   2.360   0.795 -0.3535  0.6885  0.1780
   77MOL   C14932221   3.737   2.228   0.916  0.7991 -0.1833 -0.0438
   77MOL   C15032222   3.844   2.287   0.812  1.2118  0.1396  0.1081
   77MOL   C15132223   3.979   2.211   0.825 -0.0512 -0.2460 -0.1467
   77MOL   C15232224   4.080   2.273   0.919  0.6967 -0.5160  0.2838
   77MOL   C15332225   4.040   2.270   1.068  0.1983 -0.9370 -0.9493
   77MOL   C15432226   4.108   2.424   0.885 -0.3765 -0.0174  0.4205
   77MOL   C15532227   4.203   2.188   0.900 -0.5110  0.1807  0.3242
   77MOL   H15632228   3.703   2.134   0.873  3.8836 -1.6455  0.6120
   77MOL   H15732229   3.784   2.187   1.005  0.0687 -0.6683  0.1250
   77MOL   H15832230   3.868   2.390   0.837  3.5403 -0.0415 -1.2579
   77MOL   H15932231   4.023   2.199   0.726 -2.5711 -3.4022 -0.9686
   77MOL   H16032232   3.960   2.105   0.847  1.8269 -0.8194 -1.1821
   77MOL   H16132233   4.010   2.175   1.111 -0.4822 -0.8237 -1.1594
   77MOL   H16232234   4.111   2.328   1.127  0.0052 -1.2276 -0.4279
   77MOL   H16332235   3.948   2.327   1.083  0.7707 -0.5535  1.2504
   77MOL   H16432236   4.035   2.499   0.914 -0.8501 -0.6634  0.9067
   77MOL   H16532237   4.129   2.433   0.778  2.3323 -1.8865  0.7284
   77MOL   H16632238   4.198   2.465   0.932 -0.2573  0.2382 -0.0155
   77MOL   H16732239   4.191   2.080   0.910 -2.4582  0.2438 -0.9788
   77MOL   H16832240   4.237   2.195   0.796  2.6586 -0.6129  1.2449
   77MOL   H16932241   4.282   2.222   0.967 -0.2625  0.7898 -0.2709
   77MOL   C17032242   3.793   2.283   0.672  0.5091  0.3408  0.2700
   77MOL   C17132243   3.855   2.393   0.582 -0.4853 -0.9544  0.1988
   77MOL   C17232244   3.774   2.529   0.608 -0.2979  0.3156 -0.3172
   77MOL   C17332245   3.837   2.668   0.562 -0.0374 -0.1205 -0.5548
   77MOL   C17432246   3.755   2.781   0.618 -0.2651 -0.0560 -0.4531
   77MOL   C17532247   3.836   2.688   0.411 -0.2194  0.3471  0.4624
   77MOL   C17632248   3.986   2.680   0.608  0.2150  0.8249 -0.4958
   77MOL   H17732249   3.685   2.268   0.666  0.7772 -1.2412 -1.0989
   77MOL   H17832250   3.832   2.186   0.639  3.6674  1.9862 -1.0764
   77MOL   H17932251   3.962   2.408   0.596 -0.6168 -1.1812  1.5357
   77MOL   H18032252   3.678   2.517   0.558 -1.0413 -2.1588  1.5914
   77MOL   H18132253   3.756   2.538   0.715  2.6256  0.4645  0.2257
   77MOL   H18232254   3.749   2.768   0.726  0.7690 -0.5406 -0.4519
   77MOL   H18332255   3.793   2.877   0.583 -1.2202 -0.1884 -1.9058
   77MOL   H18432256   3.653   2.783   0.579 -0.2922 -0.9116 -0.4362
   77MOL   H18532257   3.866   2.792   0.400 -2.4061  0.9476 -0.0322
   77MOL   H18632258   3.904   2.625   0.353  0.6176  0.7568  0.9915
   77MOL   H18732259   3.737   2.672   0.370  0.6614  0.2533 -1.6975
   77MOL   H18832260   4.024   2.778   0.579 -0.4683  1.0037 -0.7978
   77MOL   H18932261   3.999   2.679   0.716 -0.1918  2.3575 -0.4201
   77MOL   H19032262   4.055   2.608   0.565 -0.1743  0.8130 -1.1076
   77MOL   C19132263   3.821   2.346   0.433  0.1994 -0.3875  0.4911
   77MOL   C19232264   3.925   2.268   0.364  0.0524  0.5065  0.6658
   77MOL   C19332265   4.018   2.356   0.274  0.6536  0.3418  0.1832
   77MOL   C19432266   4.167   2.322   0.263  0.0800 -1.1321  0.9231
   77MOL   C19532267   4.193   2.184   0.205 -0.4518  0.4633 -0.2498
   77MOL   C19632268   4.226   2.340   0.403  0.1165  0.1307 -0.3432
   77MOL   C19732269   4.234   2.430   0.175 -0.3011  0.1831  0.7708
   77MOL   H19832270   3.728   2.290   0.427  1.2763 -2.3085  1.2881
   77MOL   H19932271   3.799   2.437   0.377  1.9165 -0.3209 -0.0908
   77MOL   H20032272   3.979   2.221   0.446  1.4736  1.2659  0.1829
   77MOL   H20132273   4.002   2.456   0.314  0.8043  1.0937 -1.5847
   77MOL   H20232274   3.970   2.360   0.176  1.1193 -0.3433 -0.0723
   77MOL   H20332275   4.177   2.104   0.277  1.6110 -0.1898 -0.4971
   77MOL   H20432276   4.129   2.161   0.119 -0.4837  0.8313 -0.3280
   77MOL   H20532277   4.297   2.185   0.172 -0.6285  1.0980 -0.8121
   77MOL   H20632278   4.334   2.343   0.390 -0.0117 -1.1158 -1.8155
   77MOL   H20732279   4.203   2.435   0.452 -1.0336 -0.9795  1.3365
   77MOL   H20832280   4.211   2.260   0.475  1.1455  1.0101  0.8961
   77MOL   H20932281   4.178   2.421   0.081  3.3088 -3.9566 -1.1353
   77MOL   H21032282   4.216   2.531   0.211 -2.7431 -0.1412  0.5865
   77MOL   H21132283   4.338   2.412   0.150 -0.8603 -0.1748 -1.4729
   77MOL   C21232284   3.872   2.142   0.293 -0.2111 -0.1995 -0.7226
   77MOL   C21332285   3.823   2.014   0.368 -0.1884  0.3072 -0.4960
   77MOL   C21432286   3.943   1.938   0.429  0.0573  0.2606  0.4870
   77MOL   C21532287   3.925   1.826   0.549 -0.8288 -0.5406 -0.0015
   77MOL   C21632288   3.792   1.858   0.630  0.2479  0.2153 -0.4309
   77MOL   C21732289   3.922   1.686   0.481 -0.1178 -0.2937  0.0968
   77MOL   C21832290   4.040   1.835   0.650 -0.0543  0.0468  0.0020
   77MOL   H21932291   3.784   2.183   0.244  0.6740  0.9177 -1.4213
   77MOL   H22032292   3.938   2.119   0.209  0.6858 -0.3764  0.0235
   77MOL   H22132293   3.770   2.060   0.451 -1.4660  1.6440 -2.0272
   77MOL   H22232294   4.014   2.008   0.472  0.8154  0.6110 -1.2834
   77MOL   H22332295   3.985   1.894   0.339 -2.4504 -0.5257 -0.3415
   77MOL   H22432296   3.770   1.782   0.704 -2.2625  1.7497  0.4600
   77MOL   H22532297   3.703   1.853   0.568 -0.0669 -0.5622  0.0803
   77MOL   H22632298   3.804   1.959   0.670 -5.2991  1.1706 -0.8331
   77MOL   H22732299   4.014   1.666   0.427 -0.1393 -0.4125  0.1035
   77MOL   H22832300   3.910   1.612   0.560  0.1932 -0.8783 -0.4025
   77MOL   H22932301   3.835   1.672   0.416 -0.8293 -2.8213  1.5307
   77MOL   H23032302   4.041   1.746   0.713  2.1081  0.9060  1.2285
   77MOL   H23132303   4.043   1.920   0.717 -2.6056 -0.9618  1.4607
   77MOL   H23232304   4.134   1.840   0.594 -0.5521 -2.4582 -1.1465
   77MOL   C23332305   3.721   1.922   0.287 -0.0808  0.0404  0.5781
   77MOL   C23432306   3.594   2.000   0.227 -0.1945  0.0782  0.3858
   77MOL   C23532307   3.514   1.899   0.143  0.2267 -0.4716 -0.7959
   77MOL   C23632308   3.532   1.897   7.753 -0.4670  1.1564  0.7180
   77MOL   C23732309   3.452   1.784   7.687  0.2206 -0.7496  0.0012
   77MOL   C23832310   3.474   2.027   7.699  0.9356  0.1688  0.3312
   77MOL   C23932311   3.686   1.867   7.731 -0.0247 -0.1903  0.4454
   77MOL   H24032312   3.688   1.840   0.351  2.3861 -1.4930 -0.0259
   77MOL   H24132313   3.786   1.875   0.213 -2.0843 -2.8188  0.5437
   77MOL   H24232314   3.617   2.088   0.167 -0.2152  0.9809  1.6987
   77MOL   H24332315   3.528   1.797   0.179 -0.6764 -0.1186  0.6293
   77MOL   H24432316   3.406   1.902   0.159  0.6381  1.8304  2.0452
   77MOL   H24532317   3.431   1.803   7.582  0.4547  0.8707  0.2338
   77MOL   H24632318   3.359   1.778   7.743  0.7913 -0.8104  0.9504
   77MOL   H24732319   3.507   1.693   7.709 -0.6992 -1.2033  0.4136
   77MOL   H24832320   3.466   2.025   7.590  0.7441 -1.1071  0.3539
   77MOL   H24932321   3.370   2.027   7.731  0.9892  0.5357  0.5027
   77MOL   H25032322   3.525   2.116   7.736  0.9021 -0.2140  1.3130
   77MOL   H25132323   3.729   1.779   0.012  0.5889 -0.9260 -1.4531
   77MOL   H25232324   3.709   1.872   7.624 -1.8665  1.8981  0.1203
   77MOL   H25332325   3.743   1.956   7.759 -1.1457  0.8397 -0.4497
   77MOL   C25432326   3.507   2.037   0.351 -0.1688  0.1087  0.5885
   77MOL   C25532327   3.375   2.119   0.328 -0.6904 -0.4940 -0.2893
   77MOL   C25632328   3.427   2.265   0.298  0.2330 -1.2106  0.0106
   77MOL   C25732329   3.327   2.379   0.256  0.2901  0.5676 -0.6491
   77MOL   C25832330   3.241   2.430   0.370 -0.0051 -0.6875 -0.4016
   77MOL   C25932331   3.239   2.335   0.143  0.3913  0.1405 -0.1851
   77MOL   C26032332   3.416   2.493   0.207  0.3286  0.3067 -0.5347
   77MOL   H26132333   3.572   2.083   0.425 -0.1624 -0.7176  1.1112
   77MOL   H26232334   3.487   1.942   0.402 -0.4508  0.2399  0.7207
   77MOL   H26332335   3.315   2.074   0.248 -2.4424  1.9350 -0.4011
   77MOL   H26432336   3.481   2.298   0.387 -2.4766  2.7676  0.3021
   77MOL   H26532337   3.512   2.260   0.229  1.2248 -4.3717  1.3931
   77MOL   H26632338   3.195   2.527   0.353 -0.9128 -1.1706 -0.7462
   77MOL   H26732339   3.299   2.438   0.462 -0.3372  0.6878 -0.3046
   77MOL   H26832340   3.157   2.360   0.377 -1.2328  0.6081 -1.7478
   77MOL   H26932341   3.301   2.311   0.056 -0.4077 -3.4160  0.1716
   77MOL   H27032342   3.165   2.404   0.103 -0.0795  0.1047  0.6318
   77MOL   H27132343   3.184   2.249   0.180 -0.5722  0.0665 -1.7289
   77MOL   H27232344   3.490   2.465   0.132  0.2102  1.8715 -1.2636
   77MOL   H27332345   3.351   2.566   0.158 -1.9137 -0.0740  1.7578
   77MOL   H27432346   3.463   2.535   0.296 -0.4746 -1.0639  0.5584
   77MOL   C27532347   3.286   2.102   0.448 -0.2162 -0.3485  0.0737
   77MOL   C27632348   3.242   1.955   0.490 -0.7092  0.3298 -0.1482
   77MOL   C27732349   3.337   1.893   0.601 -0.2675 -0.0231  0.1877
   77MOL   C27832350   3.363   1.738   0.612  0.2983 -0.1987  0.2007
   77MOL   C27932351   3.433   1.685   0.485 -0.8831  0.2500  0.5966
   77MOL   C28032352   3.457   1.708   0.733 -0.2590 -0.3137 -0.2120
   77MOL   C28132353   3.238   1.657   0.641  0.2079  0.4761  0.1412
   77MOL   H28232354   3.330   2.147   0.537  0.4028 -0.9121  0.0557
   77MOL   H28332355   3.198   2.158   0.420  0.1804 -0.4733 -1.4540
   77MOL   H28432356   3.236   1.896   0.398  0.1252  0.9438 -0.5973
   77MOL   H28532357   3.300   1.916   0.701  1.9720  1.3104  0.7519
   77MOL   H28632358   3.438   1.935   0.595  0.1610 -1.1023 -0.2773
   77MOL   H28732359   3.532   1.730   0.489 -1.5343  1.9812 -2.0222
   77MOL   H28832360   3.437   1.578   0.509  1.4232  0.3653  0.9034
   77MOL   H28932361   3.381   1.707   0.392  1.5523  1.5804 -0.4878
   77MOL   H29032362   3.471   1.602   0.751 -0.0396 -0.3956 -0.8300
   77MOL   H29132363   3.408   1.749   0.821  1.3704 -1.8395  1.4453
   77MOL   H29232364   3.552   1.762   0.733  0.0544 -0.8234  2.8296
   77MOL   H29332365   3.260   1.550   0.637  0.6866  0.6092 -0.7578
   77MOL   H29432366   3.162   1.677   0.565  0.0256 -0.5939  0.0286
   77MOL   H29532367   3.197   1.674   0.741  0.7701  0.6896  0.3332
   77MOL   C29632368   3.100   1.952   0.551 -0.0044 -0.1174 -0.3194
   77MOL   C29732369   2.983   1.970   0.453  0.6777  0.4857  0.2596
   77MOL   C29832370   2.853   2.038   0.513  0.3811  0.3303  0.3632
   77MOL   C29932371   2.847   2.203   0.511 -0.1835  0.3127  0.8737
   77MOL   C30032372   2.852   2.260   0.364  0.5244 -0.0931  0.1177
   77MOL   C30132373   2.713   2.232   0.575  0.8258 -0.4750 -0.3577
   77MOL   C30232374   2.959   2.273   0.590 -0.2729  0.2570  0.2656
   77MOL   H30332375   3.097   2.038   0.619 -0.5235  0.2470 -0.7921
   77MOL   H30432376   3.075   1.865   0.612 -1.3759  0.8938  0.6175
   77MOL   H30532377   3.015   2.031   0.369  1.3484 -1.9517 -1.2872
   77MOL   H30632378   2.843   1.999   0.614 -1.3794 -0.4244 -0.0931
   77MOL   H30732379   2.768   2.000   0.457 -0.1521  1.1396  0.6253
   77MOL   H30832380   2.788   2.206   0.294  0.0666  0.9125 -0.2480
   77MOL   H30932381   2.828   2.367   0.364  2.0674  0.2960 -2.0940
   77MOL   H31032382   2.943   2.234   0.309  0.8555 -1.1204  1.1318
   77MOL   H31132383   2.625   2.198   0.521  0.2915 -0.2230  0.3459
   77MOL   H31232384   2.704   2.196   0.678 -1.9165 -0.2270 -0.4793
   77MOL   H31332385   2.703   2.341   0.571  0.0261 -0.4920  1.0046
   77MOL   H31432386   2.967   2.259   0.698 -2.8540 -1.2205  0.3100
   77MOL   H31532387   3.053   2.248   0.540  0.9957  0.3319  2.5574
   77MOL   H31632388   2.943   2.380   0.587  0.9144  0.4846  1.3450
   77MOL   C31732389   2.948   1.831   0.397  0.1947  0.2466  0.1518
   77MOL   C31832390   2.882   1.830   0.259 -0.1884  0.3008  0.5795
   77MOL   C31932391   2.996   1.847   0.153  0.6924  0.5996  0.1167
   77MOL   C32032392   2.962   1.902   0.011 -0.0798  0.3701 -0.2149
   77MOL   C32132393   2.892   1.798   7.679 -0.6866  0.1191  0.0950
   77MOL   C32232394   3.089   1.949   7.705 -0.3133 -0.2848  0.1550
   77MOL   C32332395   2.871   2.032   0.026  1.0408 -0.4619 -0.0881
   77MOL   H32432396   3.033   1.762   0.396  0.1748  0.2218  0.1587
   77MOL   H32532397   2.882   1.779   0.466  1.7433 -0.1088  1.4060
   77MOL   H32632398   2.802   1.905   0.262 -1.4183 -0.9812  0.2846
   77MOL   H32732399   3.049   1.756   0.125 -2.7356 -1.6669  0.7415
   77MOL   H32832400   3.075   1.909   0.194  2.0025 -0.4593 -0.7527
   77MOL   H32932401   2.789   1.777   7.708 -0.9832 -0.9406 -1.6523
   77MOL   H33032402   2.951   1.706   7.681  3.1304  2.4629 -0.6406
   77MOL   H33132403   2.885   1.829   7.575  1.4222  1.2422  0.2637
   77MOL   H33232404   3.073   1.978   7.602 -0.8059 -0.0636  0.2947
   77MOL   H33332405   3.145   2.021   7.765  0.4595 -0.0326 -0.8620
   77MOL   H33432406   3.148   1.860   7.687  0.7424  0.4989 -0.2903
   77MOL   H33532407   2.928   2.091   0.097  0.6408 -0.6156  0.3635
   77MOL   H33632408   2.769   2.010   0.059  0.4450  0.5925 -1.1738
   77MOL   H33732409   2.864   2.093   7.702  1.5634  0.6321  0.6085
   77MOL   C33832410   2.823   1.687   0.241 -0.0171  0.6865  0.5075
   77MOL   C33932411   2.684   1.662   0.305  0.1041  0.9884 -0.0149
   77MOL   C34032412   2.643   1.514   0.315  0.3134  0.0868  0.0313
   77MOL   C34132413   2.677   1.430   0.436  0.0084 -0.5988 -0.9529
   77MOL   C34232414   2.565   1.450   0.544  0.1596 -0.4061 -0.1109
   77MOL   C34332415   2.663   1.286   0.388  0.1197  0.4757 -0.1380
   77MOL   C34432416   2.820   1.449   0.498  0.2873 -0.2887  0.0731
   77MOL   H34532417   2.892   1.612   0.279  0.1196 -0.5151 -1.9682
   77MOL   H34632418   2.819   1.673   0.132 -0.6973 -0.5145  0.6763
   77MOL   H34732419   2.669   1.688   0.409 -0.5780 -0.5411  0.2834
   77MOL   H34832420   2.675   1.461   0.225  1.2676 -1.3529  1.2025
   77MOL   H34932421   2.535   1.504   0.304 -0.1154  2.8045  1.2358
   77MOL   H35032422   2.562   1.378   0.626 -0.2441  0.1207  0.3447
   77MOL   H35132423   2.573   1.546   0.595  0.2552 -0.5456  0.1359
   77MOL   H35232424   2.468   1.436   0.495  1.3758  1.3085 -3.1686
   77MOL   H35332425   2.577   1.251   0.330  1.2860 -0.7414 -1.1971
   77MOL   H35432426   2.751   1.241   0.341 -0.5682 -0.7399 -0.2786
   77MOL   H35532427   2.655   1.223   0.477 -0.1907  1.5754  0.6086
   77MOL   H35632428   2.818   1.398   0.595 -0.1802 -2.4413 -1.0430
   77MOL   H35732429   2.913   1.435   0.444  0.7178  0.7521  0.5359
   77MOL   H35832430   2.836   1.549   0.540  2.3869 -0.5619 -0.0208
   77MOL   C35932431   2.578   1.733   0.216  0.1536 -0.1945  0.0488
   77MOL   C36032432   2.453   1.782   0.288  0.2522  0.1262  0.1642
   77MOL   C36132433   2.356   1.836   0.172 -0.6226 -0.0097  0.2248
   77MOL   C36232434   2.246   1.747   0.107 -0.3055 -0.4653 -0.1018
   77MOL   C36332435   2.190   1.818   7.742  0.1919  0.8925  0.1000
   77MOL   C36432436   2.127   1.744   0.201  0.7124 -0.2584  0.5501
   77MOL   C36532437   2.289   1.606   0.063  0.0288 -0.7664  0.0341
   77MOL   H36632438   2.540   1.675   0.133  0.8315 -2.7465  1.4715
   77MOL   H36732439   2.618   1.822   0.168  0.1138 -1.1457 -1.7764
   77MOL   H36832440   2.398   1.705   0.341  1.5381 -1.6022 -0.9640
   77MOL   H36932441   2.313   1.929   0.208 -0.8338  1.1990 -2.9793
   77MOL   H37032442   2.415   1.890   0.098  0.2333  1.6186  2.0653
   77MOL   H37132443   2.173   1.925   7.756  0.5625  0.8667  0.7327
   77MOL   H37232444   2.267   1.807   7.665 -0.6096 -0.4436 -0.5289
   77MOL   H37332445   2.097   1.771   7.709  0.3619  1.8770 -1.8743
   77MOL   H37432446   2.042   1.688   0.161 -1.4646  2.0827  1.7159
   77MOL   H37532447   2.098   1.846   0.224  2.0998 -0.0711  1.4928
   77MOL   H37632448   2.153   1.692   0.293  3.5656 -1.2096 -0.7569
   77MOL   H37732449   2.332   1.553   0.148 -1.4438 -0.1601  1.1944
   77MOL   H37832450   2.363   1.614   7.750  0.0609 -1.4426 -0.0081
   77MOL   H37932451   2.211   1.538   0.030 -0.6453  0.3982 -0.7996
   77MOL   C38032452   2.480   1.892   0.391  0.1403  0.2748 -0.1146
   77MOL   C38132453   2.361   1.914   0.487 -0.0240 -0.3608  0.1745
   77MOL   C38232454   2.339   2.066   0.533  0.2597  0.0562  0.1255
   77MOL   C38332455   2.202   2.136   0.518 -0.2740 -0.0793  0.9664
   77MOL   C38432456   2.176   2.156   0.366  0.5130  0.1918  0.2003
   77MOL   C38532457   2.212   2.275   0.587  0.0047  0.1012  1.1789
   77MOL   C38632458   2.099   2.059   0.597  0.5521 -0.0251 -0.4169
   77MOL   H38732459   2.506   1.981   0.334  0.3243 -0.9859 -2.0195
   77MOL   H38832460   2.569   1.862   0.446  0.0922  2.9611  1.5211
   77MOL   H38932461   2.278   1.877   0.426 -1.0542 -0.5502  1.6776
   77MOL   H39032462   2.372   2.094   0.633  1.2721  2.0424 -0.7273
   77MOL   H39132463   2.411   2.129   0.481  0.0617  1.7577  1.8789
   77MOL   H39232464   2.110   2.242   0.354  0.3958  0.2817  1.4267
   77MOL   H39332465   2.264   2.177   0.305  0.3047  0.5569  0.0248
   77MOL   H39432466   2.122   2.073   0.322 -0.4756  0.9784 -0.1035
   77MOL   H39532467   2.119   2.324   0.616 -0.0739 -0.0561  1.1888
   77MOL   H39632468   2.264   2.341   0.517 -1.5138 -1.6523 -1.6808
   77MOL   H39732469   2.271   2.276   0.679 -1.8511 -1.5641  2.4178
   77MOL   H39832470   2.131   2.034   0.698  1.2309  1.8732 -0.1420
   77MOL   H39932471   2.070   1.972   0.538  2.1034 -1.2832  0.6245
   77MOL   H40032472   2.007   2.117   0.599  0.7528  0.2604  1.1224
   77MOL   C40132473   2.370   1.823   0.610  0.7354  0.1464  0.6745
   77MOL   C40232474   2.235   1.761   0.644  0.4774 -0.1201 -0.4267
   77MOL   C40332475   2.232   1.666   0.765  0.3045  0.0267 -0.4154
   77MOL   C40432476   2.087   1.645   0.818 -0.0962 -0.1113 -0.5888
   77MOL   C40532477   2.023   1.774   0.883 -0.0124 -0.4253  0.3366
   77MOL   C40632478   2.103   1.548   0.939 -0.3914 -0.0924  0.7938
   77MOL   C40732479   1.992   1.589   0.714  0.1818 -0.0921 -0.9756
   77MOL   H40832480   2.440   1.740   0.604 -1.9928 -2.3071  1.1711
   77MOL   H40932481   2.391   1.886   0.697  1.7224  0.6860  0.0451
   77MOL   H41032482   2.164   1.837   0.674  0.6471 -0.0342 -0.2436
   77MOL   H41132483   2.293   1.714   0.842 -0.0949 -1.0912  0.6120
   77MOL   H41232484   2.292   1.577   0.746 -0.6249 -0.3107 -1.8644
   77MOL   H41332485   1.984   1.846   0.812 -0.2781 -0.5242  0.3799
   77MOL   H41432486   2.093   1.831   0.945 -1.0296  0.2286  0.8947
   77MOL   H41532487   1.935   1.738   0.937  0.0710  0.9967  1.4568
   77MOL   H41632488   2.149   1.459   0.895  2.2195  1.1256  0.9549
   77MOL   H41732489   2.006   1.521   0.982 -0.1800 -1.1781  0.6163
   77MOL   H41832490   2.170   1.589   1.015 -2.1665  0.4663  2.1170
   77MOL   H41932491   1.974   1.643   0.621  0.8811  0.1800 -0.9519
   77MOL   H42032492   2.036   1.493   0.689  1.0486  0.1091 -0.2390
   77MOL   H42132493   1.895   1.555   0.750  0.8927 -3.1419 -1.8118
   77MOL   H42232494   2.195   1.709   0.556 -0.9927 -0.9966  0.7512
   78MOL     C132495   1.749   4.605   2.597  0.2059  0.2549 -0.7179
   78MOL     C232496   1.841   4.521   2.504 -0.1441  0.1272 -0.1199
   78MOL     C332497   1.961   4.602   2.438 -0.4999  0.0480 -0.0137
   78MOL     C432498   2.091   4.652   2.514  0.9449 -0.1638 -0.1910
   78MOL     C532499   2.183   4.731   2.421  0.3098 -1.3143 -0.5383
   78MOL     C632500   2.060   4.751   2.632 -0.0667  0.5335 -0.1527
   78MOL     C732501   2.165   4.529   2.570 -0.1774  0.0142  0.0729
   78MOL     H832502   1.688   4.686   2.557  0.1609  0.7587  0.3495
   78MOL     H932503   1.682   4.534   2.646  1.3349  0.5188  1.2476
   78MOL    H1032504   1.886   4.445   2.569  1.3462  0.2168 -1.0280
   78MOL    H1132505   1.922   4.697   2.402 -0.2848  0.5973  1.1917
   78MOL    H1232506   2.004   4.545   2.356  0.9549  1.5954 -0.3592
   78MOL    H1332507   2.226   4.674   2.339 -0.6286 -0.2880 -1.7681
   78MOL    H1432508   2.270   4.782   2.463 -1.1346  0.0663  0.8449
   78MOL    H1532509   2.123   4.802   2.362 -0.9043 -1.7404  0.1639
   78MOL    H1632510   2.153   4.793   2.671  0.5854  0.0797 -1.1896
   78MOL    H1732511   1.996   4.835   2.606 -1.2033 -0.9039 -2.1525
   78MOL    H1832512   2.015   4.691   2.711 -1.1341  0.0820 -1.0895
   78MOL    H1932513   2.192   4.461   2.489  1.3537 -0.1473  0.6873
   78MOL    H2032514   2.099   4.471   2.634 -1.5179  0.3061 -1.0207
   78MOL    H2132515   2.260   4.546   2.620 -0.9470 -1.0612  1.9490
   78MOL    H2232516   1.810   4.637   2.681  0.9192  0.3072 -1.2581
   78MOL    C2332517   1.749   4.451   2.394  0.2361 -0.3517  0.0694
   78MOL    C2432518   1.661   4.333   2.436  0.2944  0.9277  0.0256
   78MOL    C2532519   1.744   4.207   2.488 -0.8878 -0.2366  0.8825
   78MOL    C2632520   1.703   4.127   2.612  0.4645 -0.6896  0.8471
   78MOL    C2732521   1.770   3.989   2.597 -0.8182 -0.0983 -0.1405
   78MOL    C2832522   1.739   4.204   2.740  0.2123  0.1623  0.8188
   78MOL    C2932523   1.550   4.095   2.601  0.3163 -0.3145  0.0967
   78MOL    H3032524   1.702   4.523   2.327  0.2227 -1.6061 -1.3062
   78MOL    H3132525   1.822   4.401   2.331  0.9537  0.5358  0.1878
   78MOL    H3232526   1.605   4.378   2.517 -0.2127  1.8726 -0.8348
   78MOL    H3332527   1.845   4.239   2.509 -0.7828 -1.3745  2.1875
   78MOL    H3432528   1.760   4.137   2.405  0.8791 -1.5224  2.2626
   78MOL    H3532529   1.755   3.943   2.499  1.7770 -0.3520 -0.4672
   78MOL    H3632530   1.879   3.994   2.599 -0.8918  1.7381  0.0452
   78MOL    H3732531   1.721   3.927   2.672 -0.8643 -0.7465 -0.6985
   78MOL    H3832532   1.705   4.152   2.830  0.8064  0.6767  1.3389
   78MOL    H3932533   1.846   4.195   2.753  0.4227 -1.5247 -1.6171
   78MOL    H4032534   1.713   4.310   2.737 -2.4238 -0.4725 -0.8954
   78MOL    H4132535   1.525   4.038   2.691 -1.7282  1.3468  0.6331
   78MOL    H4232536   1.520   4.041   2.511 -0.3205 -1.3713  0.9196
   78MOL    H4332537   1.489   4.186   2.600  0.4137 -0.2573 -1.4778
   78MOL    C4432538   1.570   4.293   2.320 -0.1683 -0.1900  0.0344
   78MOL    C4532539   1.448   4.388   2.299 -0.3707 -0.0754 -0.0175
   78MOL    C4632540   1.328   4.358   2.400 -0.0598 -0.1802 -0.6940
   78MOL    C4732541   1.259   4.469   2.488 -0.6086 -0.0246 -0.0961
   78MOL    C4832542   1.224   4.591   2.398  0.4327  0.2070 -0.9320
   78MOL    C4932543   1.351   4.502   2.610  0.6927 -0.2388 -0.2913
   78MOL    C5032544   1.125   4.416   2.542  0.2519  0.1330  0.1681
   78MOL    H5132545   1.643   4.296   2.239  1.4333 -1.3906  1.3805
   78MOL    H5232546   1.550   4.186   2.309  1.2910 -0.4148 -0.5082
   78MOL    H5332547   1.493   4.483   2.326  1.0505 -0.8004  0.1983
   78MOL    H5432548   1.364   4.281   2.467 -0.8727  0.7534  0.8371
   78MOL    H5532549   1.249   4.308   2.343 -0.6370 -1.5415  1.2679
   78MOL    H5632550   1.302   4.616   2.326 -0.3821  0.9309 -1.5789
   78MOL    H5732551   1.201   4.681   2.454 -0.7845 -0.6730  0.0079
   78MOL    H5832552   1.138   4.558   2.340 -0.7628  0.4673  0.6528
   78MOL    H5932553   1.407   4.414   2.643  1.1515  0.6304  1.3037
   78MOL    H6032554   1.426   4.573   2.575 -0.0703  1.9667  2.4351
   78MOL    H6132555   1.296   4.547   2.692  1.2884  2.3544 -1.2831
   78MOL    H6232556   1.135   4.334   2.612 -1.1169  0.1034  0.3497
   78MOL    H6332557   1.093   4.503   2.599  1.0312 -0.2788  1.2332
   78MOL    H6432558   1.065   4.388   2.455  0.8928  0.2749 -0.3192
   78MOL    C6532559   1.401   4.404   2.158  0.2246  0.8254  0.6011
   78MOL    C6632560   1.391   4.269   2.071  0.1350 -0.1490  0.0468
   78MOL    C6732561   1.333   4.299   1.928  0.3137 -0.7588  0.4572
   78MOL    C6832562   1.429   4.354   1.822 -0.1845 -0.3082  0.6393
   78MOL    C6932563   1.541   4.265   1.777 -0.5337  0.4665 -0.1831
   78MOL    C7032564   1.329   4.379   1.701 -0.6969 -0.0874 -0.0668
   78MOL    C7132565   1.488   4.494   1.852  0.4906  0.7733 -0.0254
   78MOL    H7232566   1.306   4.458   2.158  0.8883  2.0278  1.4755
   78MOL    H7332567   1.454   4.482   2.102 -0.1122  0.7505  0.1707
   78MOL    H7432568   1.487   4.220   2.056  0.0287  0.0691 -1.4125
   78MOL    H7532569   1.249   4.369   1.933 -0.2673 -1.2965 -1.5073
   78MOL    H7632570   1.293   4.209   1.883  2.9502 -1.6671 -0.1724
   78MOL    H7732571   1.597   4.307   1.693 -0.2976  0.6173  0.0504
   78MOL    H7832572   1.598   4.230   1.862 -1.9645 -2.2535 -0.2895
   78MOL    H7932573   1.493   4.171   1.749  0.7607  0.3716 -2.1469
   78MOL    H8032574   1.279   4.286   1.676 -0.1794  0.0191 -1.5153
   78MOL    H8132575   1.381   4.406   1.609  1.5342 -0.9587  0.8986
   78MOL    H8232576   1.255   4.459   1.712  2.2661  2.9922 -1.6579
   78MOL    H8332577   1.415   4.562   1.895 -0.8362 -0.1074 -0.8497
   78MOL    H8432578   1.514   4.529   1.752  1.3930  0.7278  0.1894
   78MOL    H8532579   1.577   4.481   1.914  1.0397 -1.8461 -1.2752
   78MOL    C8632580   1.303   4.157   2.141 -0.0374  0.2278 -0.3620
   78MOL    C8732581   1.300   4.015   2.081 -0.5560 -0.1189 -0.2361
   78MOL    C8832582   1.160   3.930   2.082  0.1463  0.1639 -0.3461
   78MOL    C8932583   1.048   3.959   1.982  0.1786 -0.2564 -0.0716
   78MOL    C9032584   0.988   4.099   2.002 -0.3702  0.5059  0.1731
   78MOL    C9132585   0.937   3.851   1.991  0.7725  0.1178  0.4091
   78MOL    C9232586   1.093   3.958   1.834 -0.4737 -0.4073 -0.9036
   78MOL    H9332587   1.203   4.198   2.152  0.2326  1.1140 -1.1800
   78MOL    H9432588   1.334   4.137   2.244  1.6137 -4.4460 -1.6167
   78MOL    H9532589   1.331   4.022   1.977  1.6096  2.7253  0.5460
   78MOL    H9632590   1.121   3.927   2.183  2.2402  1.2108  0.5275
   78MOL    H9732591   1.188   3.827   2.062 -0.8731 -0.3887  1.0194
   78MOL    H9832592   0.951   4.098   2.104 -0.6177 -0.8888  0.0843
   78MOL    H9932593   0.905   4.120   1.935 -0.5186 -0.9916 -0.1315
   78MOL   H10032594   1.060   4.180   1.999 -1.2224  1.2409 -0.9328
   78MOL   H10132595   0.907   3.824   2.092  0.6336  0.3843  0.4409
   78MOL   H10232596   0.855   3.885   1.927 -0.0371  1.0349  1.9087
   78MOL   H10332597   0.971   3.757   1.949 -1.6237 -1.8065  2.6589
   78MOL   H10432598   1.152   4.043   1.801  1.0986 -1.4494 -0.8199
   78MOL   H10532599   1.151   3.869   1.807  2.4274  0.9234  0.7502
   78MOL   H10632600   1.008   3.959   1.765 -0.9818  1.8375 -0.2754
   78MOL   C10732601   1.416   3.931   2.152  0.4626 -0.1827  0.2115
   78MOL   C10832602   1.491   3.830   2.059  0.1942  0.5806 -0.4507
   78MOL   C10932603   1.579   3.900   1.957  0.0027  0.7301 -0.2453
   78MOL   C11032604   1.596   3.844   1.817  0.4060 -0.7867  0.1346
   78MOL   C11132605   1.701   3.932   1.756  0.4762  0.0074 -0.0303
   78MOL   C11232606   1.456   3.858   1.746 -0.4735 -0.6593 -0.2001
   78MOL   C11332607   1.641   3.699   1.821 -0.1242 -0.0180  0.0344
   78MOL   H11432608   1.378   3.895   2.248 -0.1451  0.5579  0.2478
   78MOL   H11532609   1.496   4.000   2.181  0.2130  0.3323 -0.3347
   78MOL   H11632610   1.436   3.753   2.004 -0.3638  0.1520  0.6842
   78MOL   H11732611   1.558   4.007   1.957  0.8840  0.9044 -0.5933
   78MOL   H11832612   1.682   3.900   1.993  0.5113  5.6424 -1.3402
   78MOL   H11932613   1.799   3.910   1.799  0.9808 -1.1648 -1.7060
   78MOL   H12032614   1.708   3.914   1.649  0.9330  0.7464 -0.1303
   78MOL   H12132615   1.694   4.038   1.779 -0.8780  0.4331 -2.2714
   78MOL   H12232616   1.381   3.793   1.791  0.8404 -1.5026  0.8242
   78MOL   H12332617   1.464   3.827   1.642  0.5499 -1.7707  0.1956
   78MOL   H12432618   1.413   3.957   1.731  1.0691  0.2904  1.4289
   78MOL   H12532619   1.666   3.664   1.721  3.4519 -0.9356  1.1760
   78MOL   H12632620   1.573   3.625   1.863  1.3703 -0.2782  2.0686
   78MOL   H12732621   1.724   3.689   1.891  0.2218 -0.9038 -0.4831
   78MOL   C12832622   1.592   3.747   2.164  0.2913 -0.5088  0.3957
   78MOL   C12932623   1.552   3.601   2.176 -0.4296  0.6772  0.3934
   78MOL   C13032624   1.640   3.521   2.276 -0.5113 -0.0431  0.6770
   78MOL   C13132625   1.764   3.449   2.231  0.0801 -0.4993 -0.0660
   78MOL   C13232626   1.843   3.405   2.356 -0.5617 -0.0045 -0.0880
   78MOL   C13332627   1.852   3.543   2.148  0.1566 -0.4395 -0.1992
   78MOL   C13432628   1.730   3.325   2.154  0.2094  0.4679 -0.0811
   78MOL   H13532629   1.592   3.799   2.259  0.5926  0.0619  0.0893
   78MOL   H13632630   1.696   3.755   2.132  1.1435 -1.9272  2.7060
   78MOL   H13732631   1.566   3.556   2.077 -0.5744  0.5461  0.4313
   78MOL   H13832632   1.675   3.596   2.347 -2.1118 -0.2120  1.6670
   78MOL   H13932633   1.582   3.456   2.341  0.6808 -0.4133  1.3857
   78MOL   H14032634   1.915   3.334   2.316  0.7750  2.3674 -2.0319
   78MOL   H14132635   1.779   3.343   2.417 -0.3741 -0.4321 -0.3225
   78MOL   H14232636   1.891   3.482   2.416 -0.9218 -0.6066  0.9670
   78MOL   H14332637   1.951   3.505   2.125  0.8049  1.1706 -0.0798
   78MOL   H14432638   1.869   3.643   2.188 -1.0962  0.3896 -1.6625
   78MOL   H14532639   1.814   3.553   2.046  1.7255  0.6303 -0.6967
   78MOL   H14632640   1.639   3.286   2.201 -0.1168  1.6617  0.3231
   78MOL   H14732641   1.688   3.348   2.056  0.1344  0.8473  0.0394
   78MOL   H14832642   1.813   3.258   2.136 -0.1513 -0.2521  0.8753
   78MOL   C14932643   1.407   3.594   2.225  0.6024 -0.3560  0.0108
   78MOL   C15032644   1.324   3.458   2.211  0.8097  0.2353 -0.0269
   78MOL   C15132645   1.215   3.440   2.317  0.0756  0.0667 -0.9089
   78MOL   C15232646   1.253   3.368   2.450  0.1799 -0.6450 -0.7698
   78MOL   C15332647   1.120   3.338   2.528 -1.1730  1.2013  0.3301
   78MOL   C15432648   1.342   3.462   2.538 -0.0424  0.5261 -0.5618
   78MOL   C15532649   1.324   3.228   2.425  0.8295  0.2351  0.6883
   78MOL   H15632650   1.340   3.668   2.179  0.1776 -0.2576  0.7765
   78MOL   H15732651   1.407   3.627   2.329 -0.2792 -0.9003  0.1895
   78MOL   H15832652   1.400   3.380   2.219 -0.1603 -0.9282 -1.7353
   78MOL   H15932653   1.131   3.383   2.280 -0.6265 -0.1276  0.9348
   78MOL   H16032654   1.170   3.538   2.336 -0.3258 -0.1147 -0.9338
   78MOL   H16132655   1.070   3.253   2.481 -0.3157 -0.3088  2.1009
   78MOL   H16232656   1.141   3.310   2.631 -0.4901 -1.2066 -0.4277
   78MOL   H16332657   1.049   3.421   2.526 -1.7803  0.6679 -0.2775
   78MOL   H16432658   1.301   3.563   2.549 -1.1124 -0.0250  0.7544
   78MOL   H16532659   1.438   3.471   2.488  1.1012 -2.5287  0.9145
   78MOL   H16632660   1.365   3.427   2.639 -0.1945  0.3007 -0.6037
   78MOL   H16732661   1.278   3.168   2.347 -2.6070  2.4008  0.9244
   78MOL   H16832662   1.426   3.245   2.391  0.6084  0.6158  0.2169
   78MOL   H16932663   1.347   3.180   2.520  0.4476  0.2739  0.8040
   78MOL   C17032664   1.261   3.441   2.064  0.0508  0.0137  0.2562
   78MOL   C17132665   1.239   3.293   2.009 -0.7181 -0.1259 -0.0333
   78MOL   C17232666   1.376   3.251   1.950  0.0429 -0.4077  0.0677
   78MOL   C17332667   1.419   3.099   1.945 -0.4257  0.8664  0.0692
   78MOL   C17432668   1.552   3.084   1.875  0.7833  0.0152 -0.1293
   78MOL   C17532669   1.317   3.009   1.878 -0.3591 -0.7710 -0.1582
   78MOL   C17632670   1.437   3.048   2.096 -0.1464 -1.0949  0.0321
   78MOL   H17732671   1.317   3.498   1.990  1.0182 -0.0029  0.9589
   78MOL   H17832672   1.169   3.499   2.061  0.6200  1.0931  2.1977
   78MOL   H17932673   1.212   3.232   2.096  1.9958  0.9938  1.6659
   78MOL   H18032674   1.390   3.298   1.852 -3.5372  3.3652  1.2422
   78MOL   H18132675   1.455   3.300   2.007  0.1273 -0.0503 -0.3529
   78MOL   H18232676   1.570   2.978   1.855 -0.2797 -0.8089  3.0720
   78MOL   H18332677   1.535   3.119   1.773  0.7770  0.2779 -0.0378
   78MOL   H18432678   1.637   3.139   1.915 -0.0794  0.9584  0.4168
   78MOL   H18532679   1.296   3.047   1.778  1.7782 -1.5704 -0.9271
   78MOL   H18632680   1.360   2.913   1.850  1.1456  0.1326 -1.0078
   78MOL   H18732681   1.229   2.990   1.940  0.5098 -1.7983  0.7708
   78MOL   H18832682   1.356   3.014   2.161  1.3483  1.4470  3.3931
   78MOL   H18932683   1.504   2.963   2.095  0.6180 -0.5241  1.4793
   78MOL   H19032684   1.499   3.115   2.156  1.3435 -1.7108 -0.7959
   78MOL   C19132685   1.126   3.278   1.907  0.3386  0.4119 -0.2114
   78MOL   C19232686   0.981   3.334   1.929 -0.0989  0.3111  0.9854
   78MOL   C19332687   0.918   3.307   2.065  0.2324 -0.1887 -1.2459
   78MOL   C19432688   0.825   3.406   2.143  0.8899 -0.1634  0.4007
   78MOL   C19532689   0.739   3.335   2.247  0.3697  0.5534 -0.1245
   78MOL   C19632690   0.724   3.457   2.037  0.7471  0.2605 -0.2199
   78MOL   C19732691   0.889   3.535   2.200 -0.8605  0.5388  0.6482
   78MOL   H19832692   1.156   3.309   1.807  1.0812 -2.2943 -0.8857
   78MOL   H19932693   1.122   3.170   1.894  3.8274  0.3987 -1.7043
   78MOL   H20032694   0.977   3.443   1.918 -2.6062  0.2749  1.1180
   78MOL   H20132695   1.003   3.283   2.129 -2.2083  0.3731  2.3563
   78MOL   H20232696   0.870   3.209   2.063  0.7957 -0.4492 -2.1972
   78MOL   H20332697   0.805   3.281   2.316 -0.2626  0.5994  0.5213
   78MOL   H20432698   0.679   3.405   2.305 -1.9341 -0.9979 -0.6016
   78MOL   H20532699   0.679   3.261   2.196  0.3046  0.5196  0.0009
   78MOL   H20632700   0.632   3.491   2.083 -0.0309  0.2930 -1.8027
   78MOL   H20732701   0.761   3.535   1.970  1.5141  2.2286  2.3784
   78MOL   H20832702   0.698   3.367   1.982 -1.5594  0.2985  0.7437
   78MOL   H20932703   0.811   3.608   2.224 -2.3113 -0.2842 -1.3458
   78MOL   H21032704   0.952   3.504   2.283  0.6228 -0.0182 -0.6538
   78MOL   H21132705   0.960   3.576   2.128 -1.1780  0.5921  0.3605
   78MOL   C21232706   0.895   3.289   1.803  0.1760 -0.3929 -0.8292
   78MOL   C21332707   0.934   3.343   1.658  0.6281  0.0501 -1.0408
   78MOL   C21432708   0.911   3.496   1.640  0.3136 -0.1426  0.2349
   78MOL   C21532709   1.024   3.587   1.584 -0.3618 -0.6608 -0.0808
   78MOL   C21632710   1.146   3.602   1.680  0.5538 -0.2940  0.1936
   78MOL   C21732711   1.077   3.549   1.438 -0.4416 -0.5772 -0.1082
   78MOL   C21832712   0.951   3.725   1.574 -0.5281 -0.8336 -0.7645
   78MOL   H21932713   0.890   3.181   1.799 -2.2761 -0.4086  1.3069
   78MOL   H22032714   0.794   3.328   1.810 -0.6080 -2.0269 -2.6860
   78MOL   H22132715   1.037   3.318   1.635  1.1670  1.6589 -0.4999
   78MOL   H22232716   0.891   3.531   1.741 -0.7751 -1.3012  0.4362
   78MOL   H22332717   0.817   3.521   1.590  0.9589 -1.2351 -1.5983
   78MOL   H22432718   1.224   3.662   1.633 -1.7101  2.5674 -0.0562
   78MOL   H22532719   1.187   3.504   1.703 -3.4331 -2.5256 -1.6982
   78MOL   H22632720   1.135   3.659   1.772 -0.7244 -2.5190  1.4873
   78MOL   H22732721   0.999   3.510   1.373 -1.4351  1.0262  0.1059
   78MOL   H22832722   1.120   3.630   1.379 -0.1539 -1.6767 -1.4354
   78MOL   H22932723   1.142   3.461   1.436 -0.5034 -0.6001 -0.9674
   78MOL   H23032724   1.027   3.802   1.562 -1.8635  0.5752 -0.4434
   78MOL   H23132725   0.892   3.764   1.658  0.3456 -1.4689  0.1583
   78MOL   H23232726   0.898   3.745   1.481 -1.1498 -0.2595 -0.2974
   78MOL   C23332727   0.857   3.254   1.554  0.0288  0.6062 -0.4043
   78MOL   C23432728   0.914   3.109   1.532  0.6716 -0.0246  0.3120
   78MOL   C23532729   0.801   3.008   1.587 -0.5262  0.3538  0.0195
   78MOL   C23632730   0.855   2.869   1.647  0.0547  0.4919  0.0180
   78MOL   C23732731   0.939   2.792   1.548 -0.2609 -0.5390 -0.2741
   78MOL   C23832732   0.941   2.882   1.774  0.5141  0.7224 -0.4182
   78MOL   C23932733   0.735   2.773   1.681 -0.4697  0.1086 -0.6545
   78MOL   H24032734   0.875   3.313   1.464 -0.3113  0.4182 -0.5986
   78MOL   H24132735   0.749   3.258   1.563 -0.1596  0.3867 -2.3138
   78MOL   H24232736   0.995   3.099   1.605  0.0385  0.1830  1.0442
   78MOL   H24332737   0.748   3.045   1.674 -0.7497 -1.1857  0.5503
   78MOL   H24432738   0.726   2.993   1.509 -0.1648 -1.2039 -0.0551
   78MOL   H24532739   0.964   2.693   1.585 -1.4111 -1.0581 -0.8737
   78MOL   H24632740   1.032   2.846   1.524 -0.1628 -0.4055  0.3997
   78MOL   H24732741   0.882   2.782   1.456 -0.4025 -3.7185  0.1121
   78MOL   H24832742   0.959   2.784   1.817  2.3040  0.3002 -2.0523
   78MOL   H24932743   1.037   2.928   1.750 -0.5994  3.3970  0.0705
   78MOL   H25032744   0.903   2.940   1.858  1.2280 -0.9227  1.0907
   78MOL   H25132745   0.699   2.808   1.778  0.1039  0.5917 -0.6154
   78MOL   H25232746   0.645   2.771   1.620 -0.4055 -1.9001 -0.6907
   78MOL   H25332747   0.773   2.674   1.706  0.9676  1.0572  1.0682
   78MOL   C25432748   0.954   3.082   1.378  0.7927  0.2089 -0.0317
   78MOL   C25532749   1.093   3.126   1.340 -0.9556  0.9275  0.6191
   78MOL   C25632750   1.129   3.120   1.187  0.5957 -0.4027 -0.6146
   78MOL   C25732751   1.038   3.193   1.083 -0.5624  0.4631 -0.3558
   78MOL   C25832752   0.921   3.114   1.040 -0.2313 -0.0022 -0.1139
   78MOL   C25932753   1.137   3.225   0.964  0.0427  0.7026 -0.5739
   78MOL   C26032754   0.991   3.334   1.135 -0.1828  0.5078  0.4180
   78MOL   H26132755   0.882   3.143   1.323  1.9101  0.8066 -0.8634
   78MOL   H26232756   0.935   2.980   1.344 -1.2016 -0.1493  1.9868
   78MOL   H26332757   1.098   3.233   1.363  0.1200  1.4251 -1.8215
   78MOL   H26432758   1.230   3.163   1.182  0.8359 -0.7571  1.1053
   78MOL   H26532759   1.144   3.017   1.154 -2.9077 -1.3464  0.5553
   78MOL   H26632760   0.952   3.030   0.978  1.3922 -0.2241  0.9734
   78MOL   H26732761   0.851   3.171   0.979  0.5880  0.7333 -0.3615
   78MOL   H26832762   0.864   3.066   1.120  0.2468  1.0301  0.8471
   78MOL   H26932763   1.224   3.279   1.004  0.3031 -1.1780  1.4762
   78MOL   H27032764   1.080   3.286   0.894 -0.1981 -1.0839 -1.9662
   78MOL   H27132765   1.184   3.136   0.924 -0.8611 -0.0195 -0.0355
   78MOL   H27232766   1.077   3.375   1.187  1.3973 -1.5518 -0.5497
   78MOL   H27332767   0.944   3.410   1.072 -0.3775  0.2999  0.3090
   78MOL   H27432768   0.919   3.330   1.217 -1.4707  1.9001 -0.6020
   78MOL   C27532769   1.210   3.047   1.422 -0.1868 -0.2144 -0.3007
   78MOL   C27632770   1.358   3.090   1.409  0.8955  0.5638  0.2171
   78MOL   C27732771   1.371   3.227   1.483  0.2239 -0.6085 -0.7574
   78MOL   C27832772   1.466   3.329   1.420  0.1517 -0.1488 -0.1399
   78MOL   C27932773   1.617   3.287   1.417  0.3421  0.8267 -0.3686
   78MOL   C28032774   1.427   3.381   1.275 -0.5476 -0.5057 -0.0880
   78MOL   C28132775   1.474   3.449   1.511  0.0393 -0.7284  0.4560
   78MOL   H28232776   1.183   3.041   1.527  1.9585 -0.7756  0.2533
   78MOL   H28332777   1.201   2.942   1.394 -3.5807 -0.0891  0.1508
   78MOL   H28432778   1.381   3.118   1.306 -0.0642 -0.9005 -0.4079
   78MOL   H28532779   1.398   3.205   1.587 -0.2733 -1.3035 -0.7733
   78MOL   H28632780   1.275   3.277   1.490  0.6965 -0.0069  2.1388
   78MOL   H28732781   1.694   3.364   1.412 -0.0035  1.1461 -0.7819
   78MOL   H28832782   1.634   3.250   1.518  1.7676 -2.9079 -1.8790
   78MOL   H28932783   1.634   3.202   1.350  3.2187 -1.8720  3.5416
   78MOL   H29032784   1.323   3.407   1.253 -1.1341 -2.5427  0.1691
   78MOL   H29132785   1.443   3.307   1.197 -0.8624  0.0047 -0.6424
   78MOL   H29232786   1.485   3.469   1.249 -1.1222  0.0971  0.6402
   78MOL   H29332787   1.376   3.494   1.529  1.0416  1.5012  0.5760
   78MOL   H29432788   1.550   3.521   1.483 -0.5890 -0.1112  0.3160
   78MOL   H29532789   1.517   3.415   1.605 -0.2015  1.4435  1.3888
   78MOL   C29632790   1.465   2.982   1.449  0.0170  0.0319 -0.0651
   78MOL   C29732791   1.541   2.917   1.329 -0.8170 -0.2456  0.4697
   78MOL   C29832792   1.442   2.851   1.231 -0.8593 -0.2147 -0.4220
   78MOL   C29932793   1.484   2.808   1.087 -0.7354 -0.7603 -0.4636
   78MOL   C30032794   1.571   2.913   1.015 -0.0398  0.0530  0.1637
   78MOL   C30132795   1.561   2.668   1.090  0.4222 -0.3350 -0.1548
   78MOL   C30232796   1.360   2.786   1.000 -0.5910 -0.0021 -0.4710
   78MOL   H30332797   1.416   2.896   1.494 -0.3305  0.9264  1.3073
   78MOL   H30432798   1.529   3.023   1.527 -1.1612  1.5682  0.1194
   78MOL   H30532799   1.585   2.996   1.268  1.4301 -0.8955  1.1943
   78MOL   H30632800   1.359   2.917   1.202 -0.5607  0.1499 -0.4555
   78MOL   H30732801   1.398   2.768   1.286  1.9422 -0.0455  2.1898
   78MOL   H30832802   1.566   2.905   0.906 -1.5909  0.5536  0.1908
   78MOL   H30932803   1.530   3.011   1.037 -0.3466 -0.1229  0.3670
   78MOL   H31032804   1.678   2.915   1.037  0.3174 -0.9810 -1.3498
   78MOL   H31132805   1.502   2.590   1.136 -0.7171  1.5600  1.6646
   78MOL   H31232806   1.578   2.634   0.987 -0.0395  1.0983 -0.7200
   78MOL   H31332807   1.659   2.681   1.135 -0.6449 -0.9015  2.3905
   78MOL   H31432808   1.386   2.745   0.903  3.3170 -0.8167  0.8337
   78MOL   H31532809   1.313   2.696   1.040 -1.5453  0.8145  0.2605
   78MOL   H31632810   1.296   2.874   0.996  0.1040  0.5689  0.5939
   78MOL   C31732811   1.659   2.830   1.388  0.7665  0.0385  0.0054
   78MOL   C31832812   1.787   2.902   1.449  0.4088 -0.1063  0.5099
   78MOL   C31932813   1.862   2.793   1.529 -0.3436  0.2439 -1.0780
   78MOL   C32032814   1.841   2.780   1.682  0.1033  1.0787 -0.6524
   78MOL   C32132815   1.939   2.671   1.735 -0.3814 -0.4189  0.3823
   78MOL   C32232816   1.702   2.737   1.716  0.0864 -0.0958  0.2278
   78MOL   C32332817   1.878   2.913   1.753 -0.1581  0.0528 -0.1822
   78MOL   H32432818   1.612   2.768   1.464  3.5903 -1.5204  0.5482
   78MOL   H32532819   1.697   2.756   1.318 -1.3978  0.5484 -1.7577
   78MOL   H32632820   1.763   2.984   1.516  0.3698 -0.4973  0.9694
   78MOL   H32732821   1.967   2.816   1.515  0.0341 -1.6177 -1.4099
   78MOL   H32832822   1.854   2.694   1.486 -0.6967  0.0052 -0.4785
   78MOL   H32932823   2.040   2.710   1.725 -0.1357 -0.6290  1.9333
   78MOL   H33032824   1.940   2.577   1.680  0.3285 -0.4095  0.3834
   78MOL   H33132825   1.924   2.643   1.839 -3.4136 -0.9165 -0.1340
   78MOL   H33232826   1.619   2.791   1.670 -1.0641 -2.0015  0.0244
   78MOL   H33332827   1.671   2.636   1.689  2.8681 -1.0556  0.5138
   78MOL   H33432828   1.690   2.747   1.824 -1.2909 -2.3005  0.3220
   78MOL   H33532829   1.806   2.992   1.738  0.1384  0.0400 -1.8269
   78MOL   H33632830   1.964   2.955   1.700 -1.4382  1.4772 -1.1500
   78MOL   H33732831   1.893   2.902   1.861 -0.9635  0.2227 -0.0527
   78MOL   C33832832   1.874   2.958   1.335 -0.0362 -0.2388  0.2744
   78MOL   C33932833   1.998   3.044   1.377  0.2790 -0.0043 -0.5529
   78MOL   C34032834   1.957   3.179   1.423 -0.1962 -0.5733 -0.5513
   78MOL   C34132835   2.057   3.272   1.501  0.4994  0.4527  0.2390
   78MOL   C34232836   2.104   3.203   1.635 -0.4705 -0.2963 -0.4242
   78MOL   C34332837   2.180   3.306   1.416 -0.1447  0.3211  0.1755
   78MOL   C34432838   1.988   3.400   1.537  0.2073  0.2577 -0.5695
   78MOL   H34532839   1.813   3.027   1.278 -1.0858 -2.4648 -1.3925
   78MOL   H34632840   1.909   2.879   1.268 -0.1787 -0.6319  0.6582
   78MOL   H34732841   2.055   2.986   1.449 -1.4516 -0.7393  0.2718
   78MOL   H34832842   1.875   3.159   1.493  0.1229 -0.4397 -0.1363
   78MOL   H34932843   1.906   3.237   1.346  1.9828 -0.4354 -1.9085
   78MOL   H35032844   2.160   3.110   1.619 -0.3751 -0.2503 -0.3627
   78MOL   H35132845   2.164   3.274   1.693  1.1681 -0.7170 -1.5556
   78MOL   H35232846   2.017   3.180   1.696  0.3694 -1.5641  0.3246
   78MOL   H35332847   2.230   3.399   1.444 -1.4245  0.9770  0.3061
   78MOL   H35432848   2.255   3.228   1.403 -1.9717 -1.3932 -0.3890
   78MOL   H35532849   2.141   3.329   1.316 -0.3227  0.7933  0.3533
   78MOL   H35632850   2.054   3.468   1.591  0.6323 -0.3925 -0.2716
   78MOL   H35732851   1.956   3.464   1.455  1.6789  2.4164  0.4980
   78MOL   H35832852   1.904   3.374   1.602  1.7296  1.3753  1.9521
   78MOL   C35932853   2.087   3.051   1.251 -0.1968  0.1302 -0.0190
   78MOL   C36032854   2.175   2.933   1.219  0.1222 -1.0490 -0.6800
   78MOL   C36132855   2.308   2.950   1.300 -0.3839  0.0611  0.8862
   78MOL   C36232856   2.378   2.820   1.345  0.2194  1.0035 -0.6027
   78MOL   C36332857   2.274   2.744   1.439  0.0765 -0.0800  0.2937
   78MOL   C36432858   2.508   2.851   1.427 -0.0154 -0.0094 -1.0115
   78MOL   C36532859   2.411   2.717   1.226 -0.0533  0.2376  0.1791
   78MOL   H36632860   2.148   3.140   1.234 -1.2769  1.0710  0.9596
   78MOL   H36732861   2.015   3.052   1.168  0.4307 -1.0948 -0.5789
   78MOL   H36832862   2.137   2.832   1.234 -0.4509 -0.7072  0.1555
   78MOL   H36932863   2.372   3.018   1.244  1.1862 -2.2602 -0.2272
   78MOL   H37032864   2.292   3.013   1.388  0.4758  3.0727 -1.0345
   78MOL   H37132865   2.325   2.680   1.511  1.9994  0.3809 -0.6362
   78MOL   H37232866   2.221   2.817   1.501  0.4190 -0.3733  0.9444
   78MOL   H37332867   2.198   2.691   1.383  1.5068 -1.9661  0.0990
   78MOL   H37432868   2.558   2.763   1.468 -0.5153  0.1725 -0.0071
   78MOL   H37532869   2.479   2.912   1.512 -1.2675 -2.8626  0.6927
   78MOL   H37632870   2.586   2.906   1.375  0.1449 -0.4911 -1.2926
   78MOL   H37732871   2.456   2.770   1.142 -2.6821  0.7654 -0.9701
   78MOL   H37832872   2.320   2.673   1.184 -1.2162  2.1153  0.6220
   78MOL   H37932873   2.477   2.640   1.264 -1.1202  0.3800  2.4413
   78MOL   C38032874   2.224   2.934   1.067 -0.6326  0.5920  0.5189
   78MOL   C38132875   2.117   2.892   0.969  0.5011 -0.0364 -0.5431
   78MOL   C38232876   2.132   2.751   0.919 -0.7756  0.1704 -0.1263
   78MOL   C38332877   2.002   2.659   0.894  0.2901  0.1455  0.4138
   78MOL   C38432878   1.937   2.627   1.029  0.8514  0.3692  0.3615
   78MOL   C38532879   2.068   2.535   0.831 -0.1536 -0.1436  0.6612
   78MOL   C38632880   1.895   2.721   0.800 -0.0922  0.8158 -0.1666
   78MOL   H38732881   2.305   2.867   1.040 -0.9643  0.3928 -0.0108
   78MOL   H38832882   2.268   3.031   1.043 -1.7892  1.1921  0.7863
   78MOL   H38932883   2.022   2.911   1.020 -0.5356 -1.9647 -1.7017
   78MOL   H39032884   2.195   2.746   0.830  0.1861  1.2361  0.4762
   78MOL   H39132885   2.191   2.699   0.996 -0.0075  1.0804 -0.0874
   78MOL   H39232886   2.011   2.588   1.099  1.7589  1.8607  0.2642
   78MOL   H39332887   1.903   2.715   1.084  1.0426  0.7917 -0.1937
   78MOL   H39432888   1.867   2.547   1.006  1.3678 -0.1161  0.4662
   78MOL   H39532889   1.985   2.467   0.812 -0.1959  0.3283 -0.9523
   78MOL   H39632890   2.139   2.496   0.903 -0.6405 -3.6300 -0.6688
   78MOL   H39732891   2.118   2.562   0.738  1.2343 -0.9837  1.1534
   78MOL   H39832892   1.810   2.655   0.788  0.4768 -0.1505  0.9609
   78MOL   H39932893   1.934   2.744   0.701 -1.7691  0.0459 -1.0138
   78MOL   H40032894   1.857   2.816   0.836 -0.4802  0.3176  0.7473
   78MOL   C40132895   2.132   2.981   0.844  0.3926  0.3567  0.6603
   78MOL   C40232896   2.078   3.119   0.863 -0.3317  0.2766 -0.6644
   78MOL   C40332897   1.922   3.132   0.857 -0.1766  0.4135  0.1408
   78MOL   C40432898   1.858   3.269   0.888 -0.3527 -0.6578 -0.1302
   78MOL   C40532899   1.708   3.270   0.866  0.7371  0.3364 -0.1217
   78MOL   C40632900   1.913   3.377   0.790  0.0732  0.5084 -0.4799
   78MOL   C40732901   1.880   3.316   1.038 -0.0563 -0.0967 -0.0309
   78MOL   H40832902   2.231   2.982   0.799 -0.4952  0.5019 -1.3356
   78MOL   H40932903   2.065   2.933   0.772  0.7464  1.4483 -0.4102
   78MOL   H41032904   2.116   3.166   0.953 -2.8584  3.4817 -1.1855
   78MOL   H41132905   1.867   3.067   0.925  1.2875 -1.0554 -0.0415
   78MOL   H41232906   1.888   3.095   0.760  0.8793 -0.6710  0.1698
   78MOL   H41332907   1.659   3.363   0.894  0.1863  0.5044 -1.5942
   78MOL   H41432908   1.663   3.192   0.929  1.2535  1.5527  1.7999
   78MOL   H41532909   1.676   3.257   0.763  1.5500 -0.2027 -0.3101
   78MOL   H41632910   2.021   3.389   0.797  0.0174  0.6741  0.1361
   78MOL   H41732911   1.864   3.472   0.810 -0.2931 -0.1301  1.7910
   78MOL   H41832912   1.879   3.355   0.689 -1.0026  2.7919 -0.6439
   78MOL   H41932913   1.977   3.361   1.055 -1.0578  1.9295  0.4510
   78MOL   H42032914   1.806   3.387   1.075  0.5569  1.4998 -1.8277
   78MOL   H42132915   1.882   3.231   1.107 -0.0450 -1.0653 -1.1981
   78MOL   H42232916   2.127   3.175   0.784  2.9796  0.1382  1.1859
   79MOL     C132917   4.908   5.622   6.628 -0.0492  0.5226  0.4887
   79MOL     C232918   4.790   5.515   6.622  0.5203  0.3020 -0.4857
   79MOL     C332919   4.818   5.366   6.586 -1.0366  0.0804  0.4195
   79MOL     C432920   4.903   5.283   6.682  0.4641 -0.3997  0.0112
   79MOL     C532921   5.039   5.354   6.701 -0.0010 -0.2392  0.4208
   79MOL     C632922   4.841   5.270   6.822  0.7106  0.1477  0.0016
   79MOL     C732923   4.914   5.147   6.618  0.4643  0.0584  1.1508
   79MOL     H832924   4.858   5.719   6.628 -0.5202  0.2837 -0.5608
   79MOL     H932925   4.965   5.627   6.721 -0.2447 -1.9695  0.7806
   79MOL    H1032926   4.749   5.507   6.723  0.2108 -0.0878 -0.6379
   79MOL    H1132927   4.863   5.360   6.488  0.4330  0.4642  1.0555
   79MOL    H1232928   4.720   5.318   6.582 -0.4645 -1.0553  0.0424
   79MOL    H1332929   5.037   5.427   6.782  2.3256 -0.7439  0.9607
   79MOL    H1432930   5.074   5.410   6.614 -3.0148  1.2015  0.0526
   79MOL    H1532931   5.116   5.287   6.739 -0.5533 -1.8841 -1.2730
   79MOL    H1632932   4.740   5.232   6.807  0.3003 -0.1847  3.2552
   79MOL    H1732933   4.903   5.196   6.872  0.3762  0.6725  1.2073
   79MOL    H1832934   4.845   5.361   6.882  0.0980  1.8328 -2.4461
   79MOL    H1932935   4.982   5.141   6.533  0.1372  0.7308  0.8386
   79MOL    H2032936   4.815   5.105   6.601  2.0483 -3.5567  0.4353
   79MOL    H2132937   4.969   5.076   6.679  2.6377  0.1341 -0.6476
   79MOL    H2232938   4.976   5.624   6.544  1.2019 -0.3620  1.4735
   79MOL    C2332939   4.667   5.557   6.541  0.4423 -0.6322  0.4018
   79MOL    C2432940   4.542   5.576   6.628 -0.5220  0.5007 -0.1107
   79MOL    C2532941   4.415   5.592   6.539  0.1175 -0.2320 -0.0707
   79MOL    C2632942   4.322   5.466   6.520  0.2016 -0.0707  0.6300
   79MOL    C2732943   4.243   5.441   6.646  0.3645 -0.6880  0.2390
   79MOL    C2832944   4.229   5.493   6.396 -0.2511 -0.2509  0.5798
   79MOL    C2932945   4.395   5.341   6.477  0.2011 -0.1202 -0.0106
   79MOL    H3032946   4.668   5.661   6.509 -1.0752 -1.4933 -2.6287
   79MOL    H3132947   4.651   5.504   6.448  0.6229  0.6612 -0.3756
   79MOL    H3232948   4.548   5.479   6.678 -2.7973  0.2093 -0.3130
   79MOL    H3332949   4.438   5.634   6.441  0.8232  0.2027  0.2794
   79MOL    H3432950   4.352   5.670   6.581 -0.9609 -0.5740 -1.0125
   79MOL    H3532951   4.190   5.531   6.678 -0.4085 -1.4254  1.0218
   79MOL    H3632952   4.173   5.360   6.629 -1.4615  1.1276 -1.2291
   79MOL    H3732953   4.311   5.414   6.726 -0.9157 -2.0715  0.8789
   79MOL    H3832954   4.283   5.488   6.302  1.2528  0.7782  1.3755
   79MOL    H3932955   4.144   5.424   6.397  0.5324 -1.2730 -1.3608
   79MOL    H4032956   4.196   5.597   6.403 -0.6220 -0.3759  0.7025
   79MOL    H4132957   4.468   5.307   6.551 -1.6091 -2.1208  0.8771
   79MOL    H4232958   4.455   5.364   6.389  0.2677 -0.4788 -0.0583
   79MOL    H4332959   4.338   5.252   6.453  1.4164 -0.3820 -2.0258
   79MOL    C4432960   4.544   5.687   6.738 -0.5511  0.6151  0.1872
   79MOL    C4532961   4.446   5.696   6.848 -0.5053 -0.3026 -0.6739
   79MOL    C4632962   4.453   5.837   6.917  0.2555  0.7380  0.5274
   79MOL    C4732963   4.349   5.943   6.878  0.5312 -0.1295  0.2247
   79MOL    C4832964   4.402   6.074   6.945 -0.0568 -0.4105 -0.0621
   79MOL    C4932965   4.206   5.906   6.925  0.0189  0.1943  0.6460
   79MOL    C5032966   4.331   5.958   6.720  0.3478  0.2590 -0.5975
   79MOL    H5132967   4.646   5.706   6.771 -1.0555  3.3612  0.2657
   79MOL    H5232968   4.524   5.775   6.677  0.7840  0.7091 -0.1250
   79MOL    H5332969   4.347   5.683   6.803 -0.2028 -0.2425 -1.3605
   79MOL    H5432970   4.553   5.869   6.890 -0.6185  0.7076 -2.9418
   79MOL    H5532971   4.459   5.826   7.025 -2.2565  0.5493  0.6891
   79MOL    H5632972   4.326   6.151   6.934  1.1581  0.4002 -3.2867
   79MOL    H5732973   4.483   6.116   6.884 -0.9134  2.0340  0.4011
   79MOL    H5832974   4.452   6.054   7.040  0.4226  3.3827  0.5605
   79MOL    H5932975   4.205   5.922   7.033 -0.1543 -0.7180  0.7824
   79MOL    H6032976   4.133   5.971   6.877  1.9594  1.7198 -0.3000
   79MOL    H6132977   4.174   5.807   6.892 -0.1765  1.2684 -2.5601
   79MOL    H6232978   4.285   5.870   6.676  1.4432  0.0652 -1.3912
   79MOL    H6332979   4.260   6.039   6.705 -0.9809 -1.2472 -2.6720
   79MOL    H6432980   4.418   5.972   6.656  0.0791  0.0481 -1.0099
   79MOL    C6532981   4.454   5.581   6.950 -0.0874  0.6461  0.0238
   79MOL    C6632982   4.336   5.561   7.052  0.2365 -0.0288 -0.0419
   79MOL    C6732983   4.381   5.480   7.178  0.4694 -0.0452  0.3755
   79MOL    C6832984   4.431   5.541   7.311  0.1918  0.5986  0.2518
   79MOL    C6932985   4.439   5.424   7.413  0.2010  0.2144 -0.2425
   79MOL    C7032986   4.572   5.600   7.297  0.3850 -0.4073 -0.1184
   79MOL    C7132987   4.333   5.649   7.356 -0.0877 -0.0418  0.3544
   79MOL    H7232988   4.461   5.487   6.895 -0.4375 -0.0709  1.1788
   79MOL    H7332989   4.550   5.592   6.999  0.2565 -0.7293 -0.3194
   79MOL    H7432990   4.305   5.657   7.093 -0.1247 -0.7336  1.3685
   79MOL    H7532991   4.446   5.394   7.159 -0.2524 -0.9480  1.9063
   79MOL    H7632992   4.297   5.426   7.220  1.0991 -0.1638  1.5203
   79MOL    H7732993   4.339   5.386   7.435 -0.8307  2.4647 -0.8994
   79MOL    H7832994   4.496   5.346   7.363 -1.9065 -1.9078  0.5496
   79MOL    H7932995   4.485   5.453   7.508 -0.7767 -0.4000  0.4290
   79MOL    H8032996   4.610   5.596   7.399  1.8050 -0.5495 -0.6497
   79MOL    H8132997   4.572   5.699   7.251 -2.4196 -1.6021 -2.9220
   79MOL    H8232998   4.640   5.535   7.242  2.7781  1.3989  0.6179
   79MOL    H8332999   4.332   5.727   7.280 -0.9633  0.9510  1.3564
   79MOL    H8433000   4.376   5.685   7.450 -0.6967  0.4889  0.4359
   79MOL    H8533001   4.231   5.610   7.364  0.6885 -2.0668  0.5979
   79MOL    C8633002   4.210   5.510   6.983 -0.2126  0.3000 -0.0958
   79MOL    C8733003   4.073   5.507   7.065 -0.3443 -0.4751 -0.0447
   79MOL    C8833004   3.970   5.426   6.990 -0.0087  0.0872 -0.5320
   79MOL    C8933005   3.942   5.279   7.030  0.7044  0.4672 -0.3268
   79MOL    C9033006   4.067   5.184   7.021 -0.5511 -0.1267  0.5780
   79MOL    C9133007   3.841   5.241   6.917 -0.0432 -0.4489 -0.7522
   79MOL    C9233008   3.873   5.252   7.165 -0.1018 -0.2372  0.4112
   79MOL    H9333009   4.224   5.408   6.949  2.3703  0.5257  0.1336
   79MOL    H9433010   4.187   5.574   6.898 -0.3300  2.4609  1.5109
   79MOL    H9533011   4.097   5.454   7.157  0.5178 -2.6617 -1.5060
   79MOL    H9633012   4.006   5.429   6.887  1.4515 -0.6753 -0.0510
   79MOL    H9733013   3.882   5.490   6.996 -0.3899 -0.3096 -1.7768
   79MOL    H9833014   4.028   5.082   7.020 -0.5788 -0.1250 -2.0970
   79MOL    H9933015   4.135   5.216   7.100  1.7855 -1.1843 -0.9464
   79MOL   H10033016   4.118   5.196   6.925 -1.8843 -0.7197 -0.2244
   79MOL   H10133017   3.742   5.284   6.931  0.1108 -0.5919  0.9837
   79MOL   H10233018   3.884   5.263   6.820  1.6046  0.4169  0.1451
   79MOL   H10333019   3.813   5.135   6.917 -1.3860 -0.1076  0.2190
   79MOL   H10433020   3.778   5.303   7.173 -0.2505 -0.3012 -0.8988
   79MOL   H10533021   3.847   5.148   7.183 -0.5220 -0.1153  0.4966
   79MOL   H10633022   3.928   5.297   7.248  0.6857 -2.0370  0.8842
   79MOL   C10733023   4.032   5.654   7.099  0.9773  0.0880 -0.4548
   79MOL   C10833024   3.915   5.673   7.202  0.2590  0.0324 -0.6566
   79MOL   C10933025   3.943   5.625   7.346 -0.1499  0.0567 -0.0744
   79MOL   C11033026   3.836   5.629   7.454 -0.3572 -0.0301  0.1112
   79MOL   C11133027   3.892   5.543   7.572  0.1712 -0.4216 -0.0653
   79MOL   C11233028   3.702   5.563   7.412  0.2291  0.0255 -0.6879
   79MOL   C11333029   3.820   5.775   7.518 -0.4339  0.1881  0.5836
   79MOL   H11433030   4.005   5.699   7.003  3.0228  1.2621 -0.5023
   79MOL   H11533031   4.113   5.722   7.125  1.5188 -0.6219 -0.2690
   79MOL   H11633032   3.836   5.601   7.181 -1.1583  1.5285 -0.6097
   79MOL   H11733033   3.979   5.523   7.333 -0.9294 -0.1233 -0.8431
   79MOL   H11833034   4.029   5.679   7.387 -1.7051  1.9335  0.7595
   79MOL   H11933035   3.810   5.542   7.644  0.1592  2.3836 -0.0057
   79MOL   H12033036   3.916   5.442   7.538 -0.8410 -0.4545 -0.7089
   79MOL   H12133037   3.985   5.582   7.613 -0.6592  0.1079  1.3254
   79MOL   H12233038   3.640   5.637   7.361 -0.2922 -0.7930 -1.2609
   79MOL   H12333039   3.645   5.525   7.496  3.4703 -1.1370  1.0574
   79MOL   H12433040   3.722   5.478   7.347  0.0489 -0.0297 -0.6687
   79MOL   H12533041   3.908   5.815   7.568 -1.1006  1.1605  0.9882
   79MOL   H12633042   3.743   5.776   7.594 -0.8421  1.8079  0.1664
   79MOL   H12733043   3.787   5.860   7.459  0.4797 -0.4486 -0.8988
   79MOL   C12833044   3.858   5.812   7.194 -0.9589 -0.1826  0.4595
   79MOL   C12933045   3.816   5.887   7.070 -0.3312  0.4831  0.5656
   79MOL   C13033046   3.727   5.797   6.975  0.0931  0.3485  0.1003
   79MOL   C13133047   3.676   5.843   6.831 -0.2019 -0.1682 -0.2120
   79MOL   C13233048   3.791   5.915   6.764 -0.2518  0.2367  0.1525
   79MOL   C13333049   3.552   5.932   6.837  0.7955  0.4361 -0.0913
   79MOL   C13433050   3.636   5.719   6.756 -0.1715 -0.0720 -0.4438
   79MOL   H13533051   3.923   5.882   7.247  1.2002 -1.4213 -0.4843
   79MOL   H13633052   3.764   5.813   7.251  0.0780  0.2075  2.2077
   79MOL   H13733053   3.908   5.907   7.015 -1.2110  1.4474 -0.5809
   79MOL   H13833054   3.779   5.701   6.973  0.5742  0.5504  1.9824
   79MOL   H13933055   3.639   5.768   7.033 -0.2616  2.3215  0.5680
   79MOL   H14033056   3.870   5.847   6.732 -2.1450 -0.6768 -2.7529
   79MOL   H14133057   3.828   5.996   6.827  0.7675 -0.7311  0.8241
   79MOL   H14233058   3.756   5.956   6.670 -0.3389 -0.3218 -0.0616
   79MOL   H14333059   3.564   6.036   6.867  2.1439 -0.6181  3.3376
   79MOL   H14433060   3.488   5.885   6.912  0.2026 -0.3194 -1.0569
   79MOL   H14533061   3.494   5.930   6.745  1.7633  0.1444 -0.7079
   79MOL   H14633062   3.595   5.746   6.659  2.2023 -0.5943 -1.6330
   79MOL   H14733063   3.720   5.654   6.729  0.6480  0.8100 -0.0403
   79MOL   H14833064   3.565   5.655   6.808 -0.6858  1.0524  0.2535
   79MOL   C14933065   3.751   6.020   7.095  0.4653 -0.0766 -0.3628
   79MOL   C15033066   3.829   6.121   7.189  0.3308  0.8250  0.1664
   79MOL   C15133067   3.985   6.144   7.158 -0.0198  0.5390  0.5969
   79MOL   C15233068   4.077   6.187   7.264 -1.4657  0.4642 -0.2295
   79MOL   C15333069   4.198   6.267   7.212  0.8609  0.1574  0.1154
   79MOL   C15433070   4.134   6.064   7.343 -0.1337 -0.1751  0.6138
   79MOL   C15533071   4.021   6.280   7.368 -0.2892 -0.0171  0.3500
   79MOL   H15633072   3.649   5.994   7.121 -0.5924  1.4452 -2.8351
   79MOL   H15733073   3.731   6.066   6.999 -1.4513 -0.8098 -0.3204
   79MOL   H15833074   3.842   6.075   7.287 -0.2013 -1.4402 -0.8096
   79MOL   H15933075   3.982   6.223   7.083 -0.9369 -0.2920 -0.2573
   79MOL   H16033076   4.031   6.068   7.096 -1.3533  1.7344 -1.9428
   79MOL   H16133077   4.179   6.368   7.178  0.0621 -0.5731 -1.6493
   79MOL   H16233078   4.270   6.271   7.294  1.2149 -0.2829 -0.1716
   79MOL   H16333079   4.239   6.208   7.130  1.4679  0.1413  0.4284
   79MOL   H16433080   4.050   6.013   7.390  0.6508 -0.2639  1.9378
   79MOL   H16533081   4.198   6.087   7.428  0.5533 -1.1253  0.3591
   79MOL   H16633082   4.180   5.997   7.271 -1.0253 -0.7927  0.6140
   79MOL   H16733083   3.938   6.233   7.420 -1.6834 -0.6002 -2.3616
   79MOL   H16833084   4.088   6.299   7.453  0.8905  0.9373 -0.7685
   79MOL   H16933085   3.991   6.374   7.322 -1.6965  0.0989  1.4843
   79MOL   C17033086   3.747   6.249   7.201 -0.0920  0.2539  0.2328
   79MOL   C17133087   3.600   6.248   7.252 -0.0058 -0.0318 -0.1468
   79MOL   C17233088   3.525   6.388   7.230  0.1806 -0.3205 -0.3311
   79MOL   C17333089   3.444   6.407   7.096  0.2449 -0.2165 -0.1746
   79MOL   C17433090   3.531   6.382   6.971 -0.0005 -0.3453 -0.0551
   79MOL   C17533091   3.396   6.552   7.085 -0.9927 -0.2282  0.4585
   79MOL   C17633092   3.309   6.329   7.085  0.5776 -0.0385  0.1969
   79MOL   H17733093   3.760   6.305   7.109 -1.8745 -3.6908 -2.5399
   79MOL   H17833094   3.791   6.309   7.280 -2.7837  1.7759  0.6498
   79MOL   H17933095   3.551   6.181   7.183  0.3704  0.6716 -1.1023
   79MOL   H18033096   3.458   6.402   7.316  3.1607 -3.4623  2.6819
   79MOL   H18133097   3.589   6.476   7.239  1.2457 -1.3163  2.3270
   79MOL   H18233098   3.482   6.407   6.877 -0.3520 -0.1432  0.1781
   79MOL   H18333099   3.613   6.453   6.977  0.7960 -1.1900 -0.7756
   79MOL   H18433100   3.568   6.280   6.971 -1.8859 -1.1194 -3.6224
   79MOL   H18533101   3.484   6.617   7.089 -0.4451 -1.0095  1.3042
   79MOL   H18633102   3.347   6.568   6.989 -1.0658  1.3802  0.7377
   79MOL   H18733103   3.322   6.588   7.156  0.9043  1.6094  1.5646
   79MOL   H18833104   3.257   6.344   7.180 -2.0532 -0.2814 -1.1619
   79MOL   H18933105   3.239   6.337   7.002 -0.1707 -1.5848  0.6510
   79MOL   H19033106   3.344   6.226   7.092  3.0238  0.5000 -2.7814
   79MOL   C19133107   3.608   6.199   7.404  0.4993 -0.5418  0.1205
   79MOL   C19233108   3.481   6.155   7.477 -0.1603 -0.3565  0.2157
   79MOL   C19333109   3.506   6.160   7.633 -0.5693  0.9624  0.3008
   79MOL   C19433110   3.453   6.287   7.709 -0.1269 -0.5876  0.2609
   79MOL   C19533111   3.302   6.283   7.711  0.0579 -0.5810  0.1198
   79MOL   C19633112   3.501   6.423   7.648 -0.6562  0.0181  0.6814
   79MOL   C19733113   3.512   6.279   0.085 -0.1635 -0.0985  0.3480
   79MOL   H19833114   3.681   6.118   7.411 -0.4034 -1.4815 -1.1812
   79MOL   H19933115   3.642   6.287   7.458 -1.4027  0.8052 -0.8248
   79MOL   H20033116   3.403   6.224   7.445  0.9316  0.5585 -0.5103
   79MOL   H20133117   3.612   6.161   7.660 -0.3364  0.3998 -0.5329
   79MOL   H20233118   3.464   6.079   7.692  3.7155 -0.6681  1.2824
   79MOL   H20333119   3.255   6.318   0.037 -0.8491 -1.9186  0.1726
   79MOL   H20433120   3.244   6.334   7.633 -0.1095  1.4469  1.5213
   79MOL   H20533121   3.262   6.182   7.702 -1.8701  0.2597 -1.2532
   79MOL   H20633122   3.608   6.439   7.661 -0.7419 -0.3926  1.9211
   79MOL   H20733123   3.473   6.427   7.543  1.0192  0.6885  0.2477
   79MOL   H20833124   3.463   6.513   7.695  3.1294  1.8321  0.4505
   79MOL   H20933125   3.620   6.275   0.079  0.0100  1.4926  1.8942
   79MOL   H21033126   3.482   6.369   0.139 -0.6394  1.6594 -2.7500
   79MOL   H21133127   3.475   6.187   0.131  0.7879 -0.8060 -0.3013
   79MOL   C21233128   3.442   6.009   7.432  0.0919 -0.1407 -0.5970
   79MOL   C21333129   3.295   5.960   7.468 -0.3261 -0.0290 -0.3950
   79MOL   C21433130   3.295   5.809   7.435  0.5403 -0.3420  0.3065
   79MOL   C21533131   3.307   5.714   7.552 -0.1933  0.3100  0.6613
   79MOL   C21633132   3.324   5.580   7.486 -0.1036 -0.1198 -0.2779
   79MOL   C21733133   3.438   5.741   7.641 -0.1085 -0.2583  0.0724
   79MOL   C21833134   3.189   5.720   7.643 -0.3275  0.1844 -0.5375
   79MOL   H21933135   3.463   5.998   7.326 -0.4849  1.5171 -0.9094
   79MOL   H22033136   3.513   5.941   7.479  0.4627  0.0641 -0.8635
   79MOL   H22133137   3.277   5.985   7.573 -1.3609  3.7622 -1.4011
   79MOL   H22233138   3.371   5.781   7.362 -0.6924 -1.8319 -0.4413
   79MOL   H22333139   3.204   5.798   7.377  1.8449 -1.3533 -1.5881
   79MOL   H22433140   3.240   5.550   7.425  1.5548 -1.7505 -1.8376
   79MOL   H22533141   3.319   5.512   7.572 -2.2683 -0.8384 -0.9491
   79MOL   H22633142   3.414   5.584   7.425  0.7527  1.2117  1.0219
   79MOL   H22733143   3.525   5.741   7.575  1.7419 -2.5532  2.3828
   79MOL   H22833144   3.439   5.831   7.703  1.0647  0.6276 -1.2155
   79MOL   H22933145   3.458   5.660   7.711 -0.6942  1.2983  2.1109
   79MOL   H23033146   3.098   5.697   7.588 -0.6162 -0.1232  0.0551
   79MOL   H23133147   3.168   5.818   7.687 -2.0173  0.0381 -0.9666
   79MOL   H23233148   3.191   5.656   7.731  2.5202  1.3897  0.3417
   79MOL   C23333149   3.176   6.033   7.395 -0.0046 -0.0310  0.3607
   79MOL   C23433150   3.033   6.006   7.455  0.1615  0.3795 -0.3276
   79MOL   C23533151   3.015   6.063   7.606 -0.0492  0.0953  0.5698
   79MOL   C23633152   2.891   6.026   7.695  0.0674 -0.0581 -0.4508
   79MOL   C23733153   2.775   6.127   7.665  0.1702  0.4395 -0.1403
   79MOL   C23833154   2.859   5.877   7.675 -0.7337 -0.4281  0.2695
   79MOL   C23933155   2.934   6.038   0.083  0.5372  0.7604  0.5223
   79MOL   H24033156   3.175   6.001   7.291  0.2318  1.0827  0.0009
   79MOL   H24133157   3.191   6.141   7.397  0.6077 -0.1197  1.1980
   79MOL   H24233158   3.038   5.898   7.466  0.2906  0.2596 -1.4759
   79MOL   H24333159   3.100   6.038   7.670 -0.8372 -0.6313  1.3554
   79MOL   H24433160   3.028   6.171   7.594  1.7155 -0.2584 -0.8934
   79MOL   H24533161   2.689   6.095   7.724  1.9772 -1.2257  1.6615
   79MOL   H24633162   2.748   6.137   7.560 -0.5890  0.6417  0.0697
   79MOL   H24733163   2.796   6.227   7.703 -0.6889  0.2272  0.9327
   79MOL   H24833164   2.946   5.815   7.698 -0.6534 -0.2567  0.4305
   79MOL   H24933165   2.780   5.843   7.743 -1.2193 -1.3002 -0.7089
   79MOL   H25033166   2.823   5.851   7.575  1.2407 -3.2518  0.2239
   79MOL   H25133167   3.016   5.969   0.102  0.2213  1.0955  3.2172
   79MOL   H25233168   2.978   6.137   0.096 -0.7752  1.7432 -2.1173
   79MOL   H25333169   2.854   6.026   0.156  1.2915 -0.1643  1.1964
   79MOL   C25433170   2.917   6.048   7.360 -0.0536 -0.3385 -0.4134
   79MOL   C25533171   2.926   5.999   7.212 -0.2976 -0.1008  0.7761
   79MOL   C25633172   2.981   5.859   7.183 -0.8969 -0.3618  0.4669
   79MOL   C25733173   2.894   5.762   7.098  0.0487  0.0105  0.9132
   79MOL   C25833174   2.976   5.634   7.070  0.9037 -1.0424  0.2631
   79MOL   C25933175   2.853   5.824   6.965  0.1583 -0.0741  0.2367
   79MOL   C26033176   2.758   5.731   7.167  0.4986  0.0118 -0.8441
   79MOL   H26133177   2.898   6.155   7.356 -0.2601 -0.3405  0.3808
   79MOL   H26233178   2.821   6.015   7.399 -1.7834 -0.1965 -4.2970
   79MOL   H26333179   2.819   5.981   7.198 -0.1539 -1.6549  1.5287
   79MOL   H26433180   3.070   5.877   7.123 -1.1295  0.7846  0.4542
   79MOL   H26533181   3.016   5.814   7.276 -0.0314 -3.0175 -1.0943
   79MOL   H26633182   2.910   5.558   7.029 -1.6011  1.0387  0.2609
   79MOL   H26733183   3.031   5.597   7.157  2.9893  2.0709  0.3561
   79MOL   H26833184   3.048   5.657   6.992 -0.6938  0.0902 -0.8984
   79MOL   H26933185   2.930   5.885   6.920 -1.9592  1.7407 -1.0333
   79MOL   H27033186   2.757   5.875   6.960  0.5353  0.4754 -1.8303
   79MOL   H27133187   2.836   5.742   6.895 -0.6276 -1.1751  1.6756
   79MOL   H27233188   2.703   5.642   7.136  0.2967 -0.6087  1.2045
   79MOL   H27333189   2.772   5.703   7.271  0.6538  0.0519 -0.8540
   79MOL   H27433190   2.684   5.810   7.161 -1.0027 -1.2131  0.9430
   79MOL   C27533191   2.970   6.104   7.103 -0.0455  0.0023  0.1603
   79MOL   C27633192   2.856   6.203   7.049 -0.1404 -0.1568  0.1909
   79MOL   C27733193   2.841   6.329   7.137 -0.0144 -0.1993 -0.3228
   79MOL   C27833194   2.696   6.376   7.172 -0.7207 -0.0923  0.2417
   79MOL   C27933195   2.629   6.284   7.276 -0.2479  0.1204  0.7451
   79MOL   C28033196   2.703   6.518   7.234  0.2259  0.1728 -0.7972
   79MOL   C28133197   2.609   6.385   7.042 -0.0877  0.1486  0.6097
   79MOL   H28233198   3.054   6.164   7.138 -0.5688 -0.0770  1.5802
   79MOL   H28333199   3.008   6.058   7.012 -2.1729  1.9817 -1.7588
   79MOL   H28433200   2.764   6.144   7.042  0.7472 -1.3239 -2.3064
   79MOL   H28533201   2.880   6.418   7.089  1.1277 -0.2577  0.4804
   79MOL   H28633202   2.906   6.322   7.224  0.1156  1.3867 -0.2904
   79MOL   H28733203   2.522   6.303   7.285 -0.0832  1.7606 -0.5499
   79MOL   H28833204   2.642   6.181   7.243 -2.2668 -0.4324  1.5472
   79MOL   H28933205   2.677   6.290   7.373 -0.1228 -1.2726  0.7824
   79MOL   H29033206   2.751   6.512   7.331  0.1076  2.4142 -0.5929
   79MOL   H29133207   2.603   6.558   7.247  0.3580  0.2106  0.0927
   79MOL   H29233208   2.758   6.586   7.169  2.0203 -0.8337 -0.3526
   79MOL   H29333209   2.511   6.427   7.067 -0.8750 -1.3297  0.1040
   79MOL   H29433210   2.590   6.286   7.001  0.3121  0.9781 -1.6755
   79MOL   H29533211   2.648   6.452   6.965  0.6619  1.1538  1.8459
   79MOL   C29633212   2.890   6.249   6.903  0.7436  0.4875 -0.5001
   79MOL   C29733213   2.849   6.161   6.785  0.0804 -0.0928 -0.1821
   79MOL   C29833214   2.939   6.211   6.656  0.1760  0.2434 -0.4043
   79MOL   C29933215   3.072   6.142   6.629 -0.4978 -0.4858 -0.0551
   79MOL   C30033216   3.028   6.010   6.573  0.3443  1.0196 -0.2635
   79MOL   C30133217   3.161   6.224   6.518  0.4351  0.1027 -0.1013
   79MOL   C30233218   3.170   6.127   6.750  0.3397  0.1050  0.7633
   79MOL   H30333219   2.997   6.268   6.897  0.9316  0.5069  2.2615
   79MOL   H30433220   2.852   6.350   6.885  1.7217  0.7707 -0.9936
   79MOL   H30533221   2.876   6.056   6.800  0.3445 -0.0447 -0.3137
   79MOL   H30633222   2.949   6.319   6.668 -0.0683  0.6232 -3.2535
   79MOL   H30733223   2.880   6.214   6.565  1.4404 -0.3374 -1.2587
   79MOL   H30833224   3.113   5.956   6.531 -1.4330 -2.2780  0.2252
   79MOL   H30933225   2.978   5.940   6.640  0.4305 -0.6385 -1.8964
   79MOL   H31033226   2.957   6.023   6.491  0.2410 -1.6626 -0.6619
   79MOL   H31133227   3.177   6.320   6.568 -3.4030  0.3595  0.7321
   79MOL   H31233228   3.261   6.184   6.499 -0.4055 -2.0342 -0.0819
   79MOL   H31333229   3.108   6.259   6.430 -0.1005  0.6722  0.4455
   79MOL   H31433230   3.127   6.060   6.825 -1.8518  1.0215  0.3713
   79MOL   H31533231   3.257   6.075   6.709 -0.2397 -0.6622  0.4712
   79MOL   H31633232   3.195   6.221   6.799 -0.6992 -0.0387  1.5707
   79MOL   C31733233   2.695   6.171   6.757 -0.6244  0.0361 -1.1270
   79MOL   C31833234   2.628   6.091   6.637  0.7054 -0.1033  0.3779
   79MOL   C31933235   2.590   5.957   6.693  0.0833  0.3982 -0.1393
   79MOL   C32033236   2.590   5.833   6.597 -0.1887 -0.8980  0.9172
   79MOL   C32133237   2.498   5.836   6.472  0.6397 -0.0623  0.3390
   79MOL   C32233238   2.543   5.714   6.681 -0.0516  0.2940  0.1764
   79MOL   C32333239   2.729   5.790   6.541 -0.4588  0.7230 -0.4484
   79MOL   H32433240   2.657   6.137   6.853 -0.1574  1.3957 -0.4369
   79MOL   H32533241   2.674   6.277   6.746 -0.2598  0.6010  3.1099
   79MOL   H32633242   2.705   6.081   6.560  1.0266 -3.5983  1.0657
   79MOL   H32733243   2.496   5.965   6.749 -0.1593  2.8980 -0.8371
   79MOL   H32833244   2.663   5.944   6.773 -0.9950  0.3456  0.8527
   79MOL   H32933245   2.397   5.854   6.508 -0.3211 -0.9693 -1.8458
   79MOL   H33033246   2.492   5.741   6.419 -0.7846 -1.6062  3.1104
   79MOL   H33133247   2.525   5.915   6.402 -0.9926 -0.0945 -0.3382
   79MOL   H33233248   2.591   5.686   6.774 -1.0193 -1.0522  0.2809
   79MOL   H33333249   2.440   5.732   6.711  0.2283  0.9436  0.7601
   79MOL   H33433250   2.537   5.623   6.621 -1.6786  0.1307  0.5810
   79MOL   H33533251   2.723   5.707   6.471  2.1029 -2.2428  2.6658
   79MOL   H33633252   2.792   5.753   6.622 -0.1161  1.9033 -0.1723
   79MOL   H33733253   2.770   5.874   6.485  2.1319 -1.5135 -2.0112
   79MOL   C33833254   2.504   6.170   6.586 -0.2768 -0.1232 -0.1055
   79MOL   C33933255   2.540   6.273   6.477 -0.3339 -0.0538 -0.3726
   79MOL   C34033256   2.425   6.375   6.455  0.6265 -0.2902  0.8696
   79MOL   C34133257   2.425   6.505   6.550 -0.1627 -0.0881  0.3262
   79MOL   C34233258   2.539   6.603   6.512 -0.2130  0.2375  0.3394
   79MOL   C34333259   2.293   6.582   6.525 -0.3691 -0.3322  0.2533
   79MOL   C34433260   2.434   6.481   6.701  0.1612 -0.0773  0.7584
   79MOL   H34533261   2.449   6.217   6.667 -0.7253 -0.4998 -0.1904
   79MOL   H34633262   2.428   6.104   6.544  1.6231 -0.9950 -2.3334
   79MOL   H34733263   2.629   6.319   6.519  0.4786 -2.8997  1.1824
   79MOL   H34833264   2.335   6.319   6.479  1.2088 -1.6439 -0.0170
   79MOL   H34933265   2.418   6.422   6.357  0.2486  0.9714  1.5022
   79MOL   H35033266   2.522   6.634   6.409  0.3605  0.7820  0.4098
   79MOL   H35133267   2.540   6.692   6.575 -1.0533  0.9363 -0.6229
   79MOL   H35233268   2.637   6.559   6.525 -0.1852  0.5892  1.3764
   79MOL   H35333269   2.251   6.569   6.426 -0.7545  1.3903  0.1747
   79MOL   H35433270   2.210   6.542   6.583 -0.3001 -1.6937 -0.5755
   79MOL   H35533271   2.304   6.687   6.554  1.8572 -0.8589  1.4868
   79MOL   H35633272   2.429   6.579   6.750 -0.1936 -0.3836  1.3466
   79MOL   H35733273   2.353   6.415   6.733 -0.5392 -1.1279 -2.9679
   79MOL   H35833274   2.530   6.445   6.735  0.5355  2.9180  3.1455
   79MOL   C35933275   2.584   6.210   6.345 -0.3902 -0.5898 -0.1097
   79MOL   C36033276   2.656   6.298   6.237 -1.2892 -0.3111  0.0847
   79MOL   C36133277   2.680   6.211   6.108  0.0717 -0.0501 -0.8318
   79MOL   C36233278   2.573   6.215   5.987 -0.5023  0.1595 -0.4160
   79MOL   C36333279   2.435   6.201   6.048 -0.2104  0.0048 -0.1494
   79MOL   C36433280   2.597   6.094   5.901 -0.2742 -0.0780 -0.3102
   79MOL   C36533281   2.591   6.346   5.897  0.5770 -0.1304  0.2085
   79MOL   H36633282   2.489   6.169   6.309 -1.0232 -0.2787  1.1763
   79MOL   H36733283   2.640   6.118   6.365 -1.6254 -1.9186 -2.4824
   79MOL   H36833284   2.600   6.386   6.206  0.2721  0.7762  0.2968
   79MOL   H36933285   2.777   6.242   6.068 -0.1444  2.1821  0.3295
   79MOL   H37033286   2.690   6.107   6.141 -0.0990 -0.1787 -1.1819
   79MOL   H37133287   2.423   6.111   6.108 -0.9225 -0.2707 -0.7025
   79MOL   H37233288   2.397   6.289   6.100  1.5156  1.5671 -1.4477
   79MOL   H37333289   2.367   6.193   5.963 -0.3512 -0.5528  0.0184
   79MOL   H37433290   2.572   5.997   5.943 -0.2375  0.0191 -0.0639
   79MOL   H37533291   2.701   6.090   5.870 -0.1312  0.0614  0.1558
   79MOL   H37633292   2.547   6.084   5.804  1.7955 -1.8860 -1.2298
   79MOL   H37733293   2.581   6.437   5.956  0.3896 -0.4092  0.6097
   79MOL   H37833294   2.511   6.364   5.825 -0.7163 -0.4176  1.5611
   79MOL   H37933295   2.689   6.347   5.851  0.9271  0.2466  0.9505
   79MOL   C38033296   2.801   6.361   6.289  0.2368 -0.1171 -0.3581
   79MOL   C38133297   2.856   6.486   6.212  0.5451 -0.1964  0.0410
   79MOL   C38233298   2.991   6.458   6.156  0.4667  0.0164  0.4540
   79MOL   C38333299   3.053   6.559   6.051  0.0476  0.4835  0.1543
   79MOL   C38433300   3.162   6.481   5.970 -0.2225  0.0733  0.2084
   79MOL   C38533301   3.125   6.667   6.127 -0.3773  0.1608  0.4401
   79MOL   C38633302   2.950   6.624   5.950 -0.2176  0.0632  0.0129
   79MOL   H38733303   2.871   6.277   6.289 -1.3792 -1.4956 -0.7821
   79MOL   H38833304   2.789   6.388   6.394  0.0270 -0.1698 -0.3694
   79MOL   H38933305   2.783   6.495   6.131 -0.6202 -2.8810  0.7328
   79MOL   H39033306   3.055   6.440   6.243  2.6463  0.6380 -0.9794
   79MOL   H39133307   2.977   6.368   6.096  2.7485 -0.4390  0.5619
   79MOL   H39233308   3.237   6.459   6.046  1.0797 -0.0011 -1.0713
   79MOL   H39333309   3.123   6.399   5.911  1.1391 -1.9151  2.0060
   79MOL   H39433310   3.202   6.551   5.897  0.6798 -3.1266 -2.4277
   79MOL   H39533311   3.178   6.737   6.062  1.8079 -0.8680  1.0604
   79MOL   H39633312   3.214   6.638   6.182 -0.5670 -1.6847 -0.1799
   79MOL   H39733313   3.054   6.722   6.188 -0.4498  0.0336  0.4721
   79MOL   H39833314   2.882   6.698   5.994 -1.9183 -1.1942 -0.4597
   79MOL   H39933315   2.891   6.554   5.892 -0.3467  0.7253 -0.6653
   79MOL   H40033316   3.006   6.677   5.873 -2.6844  0.6312 -1.4557
   79MOL   C40133317   2.836   6.619   6.291  0.3395 -0.3119 -0.0287
   79MOL   C40233318   2.925   6.641   6.416  0.1114 -0.8882 -0.6911
   79MOL   C40333319   2.898   6.768   6.497  0.1636  0.0823 -0.8047
   79MOL   C40433320   2.944   6.760   6.648 -0.0582 -0.4320  0.6820
   79MOL   C40533321   3.077   6.685   6.675  0.3389 -0.3705 -0.5909
   79MOL   C40633322   2.834   6.682   6.725 -0.0229 -0.2903 -0.3004
   79MOL   C40733323   2.965   6.897   6.697  0.0742  0.3051 -0.1394
   79MOL   H40833324   2.843   6.698   6.216 -1.9427  0.0891  0.1646
   79MOL   H40933325   2.730   6.630   6.315  1.1514  3.8453  2.0533
   79MOL   H41033326   2.902   6.560   6.486 -1.7962  1.4356  1.4941
   79MOL   H41133327   2.790   6.784   6.486  0.3299  1.3271 -0.6728
   79MOL   H41233328   2.937   6.860   6.452  0.3051  0.0286 -0.7892
   79MOL   H41333329   3.145   6.730   6.602 -1.3235  3.7400  0.2615
   79MOL   H41433330   3.069   6.579   6.653  0.7728 -0.5813  0.2404
   79MOL   H41533331   3.109   6.701   6.778  1.0683 -4.2944 -0.1358
   79MOL   H41633332   2.734   6.724   6.712  0.9307  3.2750  2.9655
   79MOL   H41733333   2.838   6.686   6.834 -2.7316  1.8303 -0.2243
   79MOL   H41833334   2.828   6.579   6.690 -0.1386 -0.5023  0.3386
   79MOL   H41933335   3.052   6.944   6.650  0.1350 -2.1689 -2.5519
   79MOL   H42033336   2.887   6.968   6.667  1.1592  1.2758 -0.7052
   79MOL   H42133337   2.974   6.902   6.806  0.6044  2.1445 -0.2471
   79MOL   H42233338   3.032   6.638   6.400  0.2354  1.0100 -0.2905
   80MOL     C133339   7.421   1.376   7.354 -0.3658 -0.0204 -1.0633
   80MOL     C233340   7.423   1.407   7.502  0.7257 -0.6897 -0.1623
   80MOL     C333341   7.472   1.551   7.522  0.4349  0.0828 -0.2553
   80MOL     C433342   7.359   1.664   7.533  0.0692 -0.4064 -0.4448
   80MOL     C533343   7.282   1.660   7.665 -0.1889  0.7032  0.1929
   80MOL     C633344   7.439   1.792   7.514  0.3316 -0.1685 -0.1495
   80MOL     C733345   7.254   1.651   7.418  0.0493  0.3714 -0.6313
   80MOL     H833346   7.345   1.433   7.302 -0.5690  2.2670  1.6012
   80MOL     H933347   7.525   1.395   7.324 -1.0057  3.0225 -1.5911
   80MOL    H1033348   7.318   1.400   7.531  0.2949 -2.1786 -1.9316
   80MOL    H1133349   7.555   1.572   7.454  1.5564 -0.2301  0.9883
   80MOL    H1233350   7.527   1.547   7.616 -2.0761  0.5880  1.2760
   80MOL    H1333351   7.238   1.561   7.676  2.6571 -0.4547  1.6490
   80MOL    H1433352   7.205   1.738   7.668 -1.2470 -0.3345  0.3210
   80MOL    H1533353   7.340   1.673   7.756 -1.6510 -1.3438  1.4503
   80MOL    H1633354   7.389   1.884   7.542  2.3608  0.8430  0.2752
   80MOL    H1733355   7.522   1.793   7.585 -0.7125  0.5260  1.0824
   80MOL    H1833356   7.477   1.809   7.413  1.8473  1.1533  0.6152
   80MOL    H1933357   7.182   1.570   7.414 -1.1682  1.4546 -0.9510
   80MOL    H2033358   7.308   1.646   7.323 -0.6397 -0.3775 -0.9821
   80MOL    H2133359   7.202   1.746   7.431 -2.6066 -0.7001 -2.9132
   80MOL    H2233360   7.393   1.272   7.346 -0.2160 -0.0558 -1.1297
   80MOL    C2333361   7.499   1.304   7.589 -0.0747 -0.1682 -0.2291
   80MOL    C2433362   7.435   1.163   7.590  0.5176  0.7822 -0.4115
   80MOL    C2533363   7.423   1.102   7.733 -0.5291  0.2477  0.3959
   80MOL    C2633364   7.304   1.149   0.058 -0.4904 -0.3238 -0.1571
   80MOL    C2733365   7.304   1.299   0.089  0.8385  1.2121 -0.4619
   80MOL    C2833366   7.164   1.109   0.010 -0.2996  0.0755  0.9827
   80MOL    C2933367   7.336   1.076   0.188 -0.6945  0.7852 -0.4533
   80MOL    H3033368   7.602   1.300   7.554 -0.4262 -0.3817 -1.2471
   80MOL    H3133369   7.507   1.349   7.688  0.2770  1.9587 -1.1877
   80MOL    H3233370   7.333   1.170   7.554  0.6997  0.2219 -1.0669
   80MOL    H3333371   7.519   1.131   0.010  0.1495  2.2011 -2.3381
   80MOL    H3433372   7.419   0.993   7.727  2.5720  0.0129  1.8006
   80MOL    H3533373   7.296   1.358   7.764 -0.5827  0.7762 -0.6298
   80MOL    H3633374   7.230   1.330   0.163  0.1706  2.2196 -1.5415
   80MOL    H3733375   7.404   1.311   0.131  0.2018 -0.1881  1.5345
   80MOL    H3833376   7.161   1.001   7.760 -0.1065  0.2298 -0.1322
   80MOL    H3933377   7.088   1.142   0.081 -0.4844  0.0033  0.8154
   80MOL    H4033378   7.139   1.153   7.679  1.2243  0.6129  0.8133
   80MOL    H4133379   7.354   0.970   0.168  3.1378  1.3703 -0.4205
   80MOL    H4233380   7.271   1.084   0.275  1.7148  1.8175  1.3087
   80MOL    H4333381   7.432   1.105   0.229 -0.1519 -1.5056  0.0104
   80MOL    C4433382   7.518   1.068   7.511  0.1827 -0.3532 -0.1875
   80MOL    C4533383   7.468   0.920   7.479 -0.3680  0.2183 -0.1503
   80MOL    C4633384   7.543   0.881   7.343  0.2785 -0.2804 -0.7255
   80MOL    C4733385   7.705   0.870   7.331 -0.2396 -0.1884 -0.3371
   80MOL    C4833386   7.728   0.765   7.225  0.2284 -0.3390 -0.3159
   80MOL    C4933387   0.017   0.835   7.458 -0.5974 -0.3196 -0.4018
   80MOL    C5033388   0.005   0.995   7.272  0.4039 -0.1746 -0.3543
   80MOL    H5133389   7.534   1.118   7.415 -0.4475 -1.3406 -0.8135
   80MOL    H5233390   7.617   1.065   7.556  0.3866 -2.2033 -0.7503
   80MOL    H5333391   7.495   0.856   7.563  2.0733 -0.7474 -1.6576
   80MOL    H5433392   7.504   0.951   7.269  2.1833 -0.4091 -1.8845
   80MOL    H5533393   7.505   0.785   7.307  0.5855 -1.3627  1.7725
   80MOL    H5633394   7.679   0.777   7.128  0.1673  0.4071 -0.2023
   80MOL    H5733395   7.680   0.677   7.268  1.1354  1.1529  4.0219
   80MOL    H5833396   0.068   0.761   7.202  0.1563 -0.0458 -0.7082
   80MOL    H5933397   0.010   0.908   7.539  0.5930 -0.8853  0.2291
   80MOL    H6033398   7.749   0.746   7.511 -0.2863  0.8016  1.7508
   80MOL    H6133399   0.122   0.818   7.434 -0.3936 -0.4480  0.5562
   80MOL    H6233400   0.109   0.970   7.254  0.4491  1.0171 -1.8410
   80MOL    H6333401   7.730   1.035   7.179 -0.8098  0.3311  0.3860
   80MOL    H6433402   7.760   1.080   7.339  2.5857 -0.9177  0.9856
   80MOL    C6533403   7.318   0.907   7.469  0.3632  0.9971  0.3257
   80MOL    C6633404   7.280   0.755   7.464 -0.2485  0.4305  0.5875
   80MOL    C6733405   7.141   0.749   7.396  0.5624  0.5197  0.3133
   80MOL    C6833406   7.144   0.707   7.246  0.0822  0.1887 -0.3779
   80MOL    C6933407   7.183   0.561   7.236  0.3923 -0.4879 -0.0864
   80MOL    C7033408   7.002   0.718   7.173 -0.0261 -0.4916  0.7183
   80MOL    C7133409   7.247   0.789   7.157 -0.8546 -0.3052  0.5000
   80MOL    H7233410   7.275   0.938   7.565  0.5078  0.2631  0.6331
   80MOL    H7333411   7.271   0.972   7.395  0.3639 -1.3416 -1.7855
   80MOL    H7433412   7.355   0.701   7.406 -0.8946  0.8190 -0.6089
   80MOL    H7533413   7.087   0.843   7.393  0.4133  0.4617  1.1732
   80MOL    H7633414   7.077   0.685   7.456  0.8673  1.3103  1.4865
   80MOL    H7733415   7.121   0.502   7.304 -2.1863  0.9878 -1.0782
   80MOL    H7833416   7.158   0.524   7.137  1.8271  1.5595 -1.2480
   80MOL    H7933417   7.289   0.539   7.252 -0.0068 -2.5366 -0.1125
   80MOL    H8033418   7.001   0.687   7.069  3.7369 -0.0539  0.4814
   80MOL    H8133419   6.975   0.824   7.171  1.1748 -0.1915  0.3379
   80MOL    H8233420   6.932   0.674   7.244 -1.5533  0.3252 -0.2593
   80MOL    H8333421   7.351   0.761   7.175 -0.3682  1.9761  1.4234
   80MOL    H8433422   7.244   0.894   7.188  0.0215  0.0681 -0.6444
   80MOL    H8533423   7.224   0.776   7.051  0.4509  0.0391  0.1590
   80MOL    C8633424   7.290   0.686   7.602  0.2961  0.3986 -0.1785
   80MOL    C8733425   7.350   0.542   7.601  0.5316 -1.0871 -0.1302
   80MOL    C8833426   7.309   0.471   7.728 -0.0476  0.0523 -0.2515
   80MOL    C8933427   7.173   0.402   7.747  0.2153 -0.1586  0.3984
   80MOL    C9033428   7.182   0.306   0.101  0.1273  0.5038 -0.1098
   80MOL    C9133429   7.146   0.315   7.626 -0.2086  0.1437 -0.1361
   80MOL    C9233430   7.068   0.505   0.007 -0.7565  0.1458  1.0595
   80MOL    H9333431   7.187   0.683   7.636  1.1075  1.5918  2.4890
   80MOL    H9433432   7.350   0.756   7.660 -0.9513  0.5296  0.9832
   80MOL    H9533433   7.311   0.492   7.513 -0.0881 -0.8439  0.0059
   80MOL    H9633434   7.308   0.542   0.044 -0.9257  0.6604 -0.7769
   80MOL    H9733435   7.381   0.389   7.740  0.1010  0.2029 -0.1226
   80MOL    H9833436   7.181   0.351   0.200 -0.7711 -1.9298  1.0385
   80MOL    H9933437   7.267   0.238   0.094 -1.1643 -1.1714 -0.0333
   80MOL   H10033438   7.094   0.241   0.104 -0.0354  0.7923  2.3880
   80MOL   H10133439   7.121   0.376   7.540 -2.4230 -1.1848 -0.4680
   80MOL   H10233440   7.230   0.249   7.602 -1.0567 -0.2714 -2.0343
   80MOL   H10333441   7.070   0.238   7.641 -0.4641  0.1862 -1.2254
   80MOL   H10433442   7.033   0.540   7.675  0.1042 -2.1425 -0.0998
   80MOL   H10533443   6.973   0.465   0.044 -2.8112  0.2796 -3.6461
   80MOL   H10633444   7.098   0.591   0.067 -1.2183  1.0926 -0.0393
   80MOL   C10733445   7.506   0.552   7.593 -0.0513  0.2843  0.1475
   80MOL   C10833446   7.580   0.418   7.546 -0.0538  0.2853  0.0548
   80MOL   C10933447   7.592   0.411   7.388 -0.4814 -0.7090 -0.2192
   80MOL   C11033448   7.565   0.285   7.299  1.0414  0.0546 -0.5618
   80MOL   C11133449   7.568   0.334   7.151 -0.2989 -0.0151 -0.5165
   80MOL   C11233450   7.429   0.215   7.328  0.5621 -0.3193  0.0976
   80MOL   C11333451   7.675   0.179   7.329  0.1288  0.0769  0.0775
   80MOL   H11433452   7.548   0.567   7.693  3.3437 -0.3932 -1.1177
   80MOL   H11533453   7.545   0.640   7.541 -0.2033 -0.3345 -1.0178
   80MOL   H11633454   7.528   0.331   7.584  0.7302 -0.5120 -0.6783
   80MOL   H11733455   7.518   0.482   7.351 -0.9465 -1.0857 -0.0243
   80MOL   H11833456   7.689   0.452   7.358 -0.3894  1.2088  2.4961
   80MOL   H11933457   7.486   0.403   7.132  0.4453  1.0248 -0.0353
   80MOL   H12033458   7.662   0.385   7.134  0.5422 -1.4917 -0.4015
   80MOL   H12133459   7.555   0.256   7.076  0.5441 -1.1374  0.4713
   80MOL   H12233460   7.345   0.285   7.317 -0.6401 -2.0936 -2.3808
   80MOL   H12333461   7.424   0.152   7.417 -0.3847 -1.1830 -0.5596
   80MOL   H12433462   7.405   0.139   7.255  0.1895 -0.2501  0.1454
   80MOL   H12533463   7.657   0.081   7.284  0.9269  0.9001 -2.1146
   80MOL   H12633464   7.681   0.174   7.437  0.4026 -0.5531  0.0321
   80MOL   H12733465   0.010   0.205   7.297  0.9145 -2.6395  0.2279
   80MOL   C12833466   7.719   0.416   7.610 -0.8217 -0.0162  0.0151
   80MOL   C12933467   7.730   0.386   7.766 -0.5583  0.1036 -0.5453
   80MOL   C13033468   7.706   0.238   0.034  0.3639  0.2260  0.2548
   80MOL   C13133469   7.684   0.194   0.186  0.7563 -0.1206  0.0417
   80MOL   C13233470   7.611   0.294   0.276  0.0588 -0.2184  0.1428
   80MOL   C13333471   0.046   0.158   0.256 -0.3884  0.3005  0.3428
   80MOL   C13433472   7.594   0.072   0.180 -0.0315  0.2100 -0.0683
   80MOL   H13533473   0.012   0.505   7.589  2.4685 -1.7135  1.5464
   80MOL   H13633474   0.015   0.336   7.569  2.3202  0.9800  2.6084
   80MOL   H13733475   7.658   0.444   0.058 -0.3579 -0.7935  0.6187
   80MOL   H13833476   7.610   0.212   7.757 -0.1017  1.0172  0.7944
   80MOL   H13933477   0.016   0.176   7.751 -0.3375  0.8386 -1.6686
   80MOL   H14033478   7.523   0.335   0.226 -0.5507 -1.9278 -0.2217
   80MOL   H14133479   7.677   0.375   0.308 -0.4948  0.5074 -0.5369
   80MOL   H14233480   7.583   0.243   0.367  0.5762 -0.5771  0.1016
   80MOL   H14333481   0.107   0.107   0.181 -0.4207  1.4865 -0.4987
   80MOL   H14433482   0.019   0.094   0.340  1.2255 -0.0584  0.6049
   80MOL   H14533483   0.098   0.238   0.307 -0.8288  0.2332  0.9015
   80MOL   H14633484   7.575   0.019   0.273  1.5139 -1.2675 -0.5636
   80MOL   H14733485   7.495   0.104   0.147 -0.6433 -1.8148 -0.2750
   80MOL   H14833486   7.637   0.000   0.110 -1.3414 -0.6711  0.0041
   80MOL   C14933487   0.114   0.423   0.051 -0.2523 -0.6941  0.1781
   80MOL   C15033488   0.145   0.575   0.057  0.1422 -1.0447 -0.2492
   80MOL   C15133489   0.069   0.642   0.180  0.7510 -0.0416  0.2317
   80MOL   C15233490   0.018   0.790   0.169  0.2068  0.1660  0.7410
   80MOL   C15333491   7.663   0.797   0.073  0.7498 -0.1533 -0.0447
   80MOL   C15433492   0.126   0.881   0.113  0.1031 -0.6766  0.6801
   80MOL   C15533493   7.747   0.843   0.309 -0.4148 -0.1330 -0.0075
   80MOL   H15633494   0.191   0.371   7.760 -0.6355 -0.9403 -0.1185
   80MOL   H15733495   0.124   0.380   0.150 -0.3475 -1.6502 -0.2287
   80MOL   H15833496   0.108   0.621   7.731 -1.1761  0.1937  0.8580
   80MOL   H15933497   0.137   0.653   0.264  1.1095 -2.6278  0.3268
   80MOL   H16033498   7.754   0.573   0.202  0.6438  0.3502  1.0908
   80MOL   H16133499   7.635   0.903   0.071  1.3395  0.0128  0.2201
   80MOL   H16233500   7.683   0.757   7.740 -2.7315  1.9241 -1.6883
   80MOL   H16333501   7.577   0.742   0.111  0.9282  0.3058  1.0761
   80MOL   H16433502   0.218   0.877   0.171  0.4697  0.7789  0.2246
   80MOL   H16533503   0.096   0.984   0.129 -1.7129 -1.0571 -0.0765
   80MOL   H16633504   0.146   0.873   0.006 -0.2158  2.3622  0.3488
   80MOL   H16733505   7.698   0.940   0.305  1.5726  0.8367 -1.1466
   80MOL   H16833506   7.672   0.774   0.347  0.4645 -0.9188  0.3214
   80MOL   H16933507   0.066   0.852   0.377 -1.2477 -0.5826  1.1149
   80MOL   C17033508   0.298   0.593   0.062  0.9499 -0.5683 -0.4584
   80MOL   C17133509   0.382   0.552   7.700 -0.0732 -0.7355 -0.2559
   80MOL   C17233510   0.530   0.531   7.741 -0.4241 -0.3052 -0.0004
   80MOL   C17333511   0.562   0.407   0.059 -0.1498  1.1595  0.9234
   80MOL   C17433512   0.717   0.402   0.052 -0.2530 -0.2495  0.5359
   80MOL   C17533513   0.519   0.279   7.742 -0.0778  0.0004 -0.7928
   80MOL   C17633514   0.525   0.405   0.209  0.3021 -0.2427  0.2795
   80MOL   H17733515   0.335   0.560   0.159  1.1681  1.6234  0.2354
   80MOL   H17833516   0.322   0.698   0.079  0.6069 -0.9192  2.4479
   80MOL   H17933517   0.336   0.464   7.654 -0.1851 -1.1569  0.6459
   80MOL   H18033518   0.598   0.532   7.656 -0.7049 -1.4357 -0.2526
   80MOL   H18133519   0.559   0.621   0.030  1.3580  1.0370 -3.0500
   80MOL   H18233520   0.769   0.402   7.722  0.3419  0.6914  0.8435
   80MOL   H18333521   0.752   0.497   0.094  1.7815  0.5911 -2.7784
   80MOL   H18433522   0.755   0.330   0.124 -0.4024 -1.0117 -0.1484
   80MOL   H18533523   0.562   0.289   7.642 -0.3549  1.3901 -0.7811
   80MOL   H18633524   0.559   0.190   0.025  1.5472  0.8051 -0.6063
   80MOL   H18733525   0.414   0.263   7.718 -0.7541  1.5071  1.0206
   80MOL   H18833526   0.529   0.509   0.241  0.1256  0.6400 -2.4626
   80MOL   H18933527   0.424   0.372   0.230  0.4662 -1.1461 -0.3334
   80MOL   H19033528   0.607   0.359   0.265  1.3909  1.3846  0.0687
   80MOL   C19133529   0.380   0.663   7.586  0.7967 -0.4725  0.0763
   80MOL   C19233530   0.433   0.623   7.444 -0.3985 -0.0362  0.5130
   80MOL   C19333531   0.457   0.739   7.349  0.6226 -0.7555 -0.8396
   80MOL   C19433532   0.578   0.826   7.362  0.6189 -0.7598 -0.5843
   80MOL   C19533533   0.590   0.896   7.498 -0.4172  0.2353  0.5567
   80MOL   C19633534   0.568   0.935   7.254  0.2752 -0.7833 -0.2832
   80MOL   C19733535   0.706   0.748   7.341  0.5476 -0.6828  0.5628
   80MOL   H19833536   0.273   0.682   7.575  0.2071 -2.0641  2.6248
   80MOL   H19933537   0.413   0.758   7.628  0.4176  1.3219 -3.5006
   80MOL   H20033538   0.528   0.576   7.472  0.0756  1.1559  0.9478
   80MOL   H20133539   0.365   0.796   7.339  1.3103  0.4322 -0.4994
   80MOL   H20233540   0.468   0.692   7.251 -0.0496 -1.5378 -0.5436
   80MOL   H20333541   0.623   0.827   7.576  0.5219 -0.4059 -0.3789
   80MOL   H20433542   0.656   0.982   7.501 -1.7484  1.3037 -0.3026
   80MOL   H20533543   0.494   0.939   7.526 -0.5977 -0.9797  1.8688
   80MOL   H20633544   0.665   0.984   7.240 -0.3469  0.5629  0.0800
   80MOL   H20733545   0.559   0.884   7.158 -0.1352 -1.0881 -0.0832
   80MOL   H20833546   0.497   1.015   7.272  2.1362  0.6477  0.8744
   80MOL   H20933547   0.691   0.677   7.259 -2.0442 -0.1007  0.5130
   80MOL   H21033548   0.793   0.811   7.322  0.0676 -0.4441 -0.8988
   80MOL   H21133549   0.747   0.687   7.422 -1.0015 -0.7671  1.2837
   80MOL   C21233550   0.350   0.516   7.377  0.8367 -0.2065 -0.0970
   80MOL   C21333551   0.431   0.426   7.281  0.8425 -0.3100 -0.3028
   80MOL   C21433552   0.341   0.351   7.180  0.1272 -0.7577 -0.5411
   80MOL   C21533553   0.314   0.422   7.045  0.1435 -0.2468  0.3929
   80MOL   C21633554   0.212   0.321   6.973 -0.7151 -0.1524 -0.1114
   80MOL   C21733555   0.237   0.555   7.054 -0.0048  0.1660 -0.7780
   80MOL   C21833556   0.441   0.437   6.955  0.4018 -0.3188 -0.2274
   80MOL   H21933557   0.298   0.459   7.453 -0.4244 -0.0119 -0.8047
   80MOL   H22033558   0.263   0.572   7.342  1.5724  0.5320 -0.7745
   80MOL   H22133559   0.499   0.491   7.226 -0.3833 -0.9005 -2.5929
   80MOL   H22233560   0.258   0.328   7.247 -0.3359  0.0995 -0.8131
   80MOL   H22333561   0.386   0.253   7.163  1.9058  0.1738 -1.3018
   80MOL   H22433562   0.179   0.363   6.878 -0.0471  1.1441  0.2262
   80MOL   H22533563   0.124   0.317   7.038  0.8721 -1.6062  2.0197
   80MOL   H22633564   0.249   0.219   6.966  0.7995  0.3914 -0.0613
   80MOL   H22733565   0.301   0.633   7.096 -2.2928  1.5443  0.2873
   80MOL   H22833566   0.199   0.595   6.959  1.1522  2.5653 -0.2848
   80MOL   H22933567   0.145   0.553   7.113  0.7571  0.9108  0.4557
   80MOL   H23033568   0.500   0.518   6.999 -2.1019  1.6909 -0.3875
   80MOL   H23133569   0.396   0.462   6.859 -1.7613 -1.1478  0.5384
   80MOL   H23233570   0.491   0.342   6.940  1.5313  0.4139 -1.2096
   80MOL   C23333571   0.539   0.325   7.346 -0.1396 -0.0227 -0.0408
   80MOL   C23433572   0.654   0.269   7.258  0.3208 -0.7343 -0.2891
   80MOL   C23533573   0.760   0.377   7.247 -0.3811 -0.1725  0.1382
   80MOL   C23633574   0.879   0.373   7.142  0.2457  1.1742  0.2578
   80MOL   C23733575   0.836   0.398   6.990  0.0863 -0.3762  0.2171
   80MOL   C23833576   0.973   0.488   7.179 -0.2624 -1.5690  0.7860
   80MOL   C23933577   0.957   0.248   7.147 -0.4409  0.1016 -0.1677
   80MOL   H24033578   0.470   0.244   7.371  0.8209 -0.9882 -0.4766
   80MOL   H24133579   0.582   0.367   7.437  0.1774  0.5998 -0.4825
   80MOL   H24233580   0.618   0.241   7.159 -1.8751  0.1452  0.2308
   80MOL   H24333581   0.705   0.469   7.230  1.2015  1.0315  1.3552
   80MOL   H24433582   0.806   0.389   7.345 -1.5353  0.0734  0.6594
   80MOL   H24533583   0.752   0.331   6.974 -1.9235  1.3005  3.2267
   80MOL   H24633584   0.905   0.358   6.916 -1.0530 -0.1764 -0.9656
   80MOL   H24733585   0.797   0.496   6.964 -1.0299  0.2002  3.7250
   80MOL   H24833586   0.923   0.585   7.190 -1.2721 -1.7154 -2.0002
   80MOL   H24933587   1.029   0.467   7.270  0.5338  0.2872  0.7487
   80MOL   H25033588   1.051   0.501   7.104 -0.5045 -0.7692  0.6688
   80MOL   H25133589   0.995   0.226   7.247 -0.2765  3.2849  0.5208
   80MOL   H25233590   0.913   0.160   7.101  0.8274  0.3147 -1.8482
   80MOL   H25333591   1.046   0.260   7.084 -2.7185  0.1524 -3.4701
   80MOL   C25433592   0.705   0.141   7.328 -0.0078  0.0737  0.4749
   80MOL   C25533593   0.676   0.011   7.250 -0.0352  0.4624  0.2869
   80MOL   C25633594   0.529   7.744   7.225 -0.2868 -0.0449 -0.0883
   80MOL   C25733595   0.494   7.691   7.078 -0.3870  0.0620  0.0062
   80MOL   C25833596   0.339   7.673   7.063 -0.0949 -0.5300 -0.0192
   80MOL   C25933597   0.559   7.557   7.046 -0.2246  0.6392 -0.0960
   80MOL   C26033598   0.539   0.021   6.961  0.8118  0.1086 -0.3123
   80MOL   H26133599   0.666   0.136   7.430 -2.3174 -0.6933 -0.4285
   80MOL   H26233600   0.813   0.145   7.341 -0.0938 -1.0021  1.7221
   80MOL   H26333601   0.734   0.024   7.159 -1.0716  2.0011 -0.1638
   80MOL   H26433602   0.497   7.670   7.298 -0.1517 -1.4052 -1.3931
   80MOL   H26533603   0.467   0.067   7.238 -0.5957 -0.6120  2.5379
   80MOL   H26633604   0.316   7.611   6.977 -1.0576  0.1284 -0.2334
   80MOL   H26733605   0.294   0.006   7.055 -0.8031 -0.9865 -1.6044
   80MOL   H26833606   0.287   7.624   7.146 -2.7366  1.7291 -0.2838
   80MOL   H26933607   0.526   7.480   7.116  0.0133 -0.5102 -1.2212
   80MOL   H27033608   0.668   7.550   7.050 -0.2091  1.6368  1.8777
   80MOL   H27133609   0.533   7.516   6.948  1.2443 -0.3792 -0.0889
   80MOL   H27233610   0.491   0.005   6.865 -2.3260  1.5113  0.9526
   80MOL   H27333611   0.501   0.120   6.987  0.7333 -0.3055  1.1858
   80MOL   H27433612   0.647   0.029   6.948  1.0112 -0.2597  1.0115
   80MOL   C27533613   0.731   7.658   7.323  0.2367 -0.5361 -0.4487
   80MOL   C27633614   0.881   7.625   7.317  0.3184 -0.0196 -0.0081
   80MOL   C27733615   0.935   7.536   7.430 -0.0474 -0.1650 -0.6860
   80MOL   C27833616   0.978   7.607   7.570  0.3071 -0.0057  0.3054
   80MOL   C27933617   0.860   7.692   7.625 -0.5527 -0.0538  0.0566
   80MOL   C28033618   1.016   7.501   7.675 -0.4208 -0.1852  0.1371
   80MOL   C28133619   1.104   7.694   7.566 -0.7126 -0.6801  0.0312
   80MOL   H28233620   0.693   7.656   7.426  0.7497 -3.8270 -0.2857
   80MOL   H28333621   0.687   7.564   7.291  3.2253 -2.0751 -0.1795
   80MOL   H28433622   0.931   7.720   7.332  1.0807 -0.4523  0.2351
   80MOL   H28533623   1.021   7.479   7.396 -0.0901  0.5683 -2.0629
   80MOL   H28633624   0.850   7.469   7.439 -1.0836  1.1264 -0.7167
   80MOL   H28733625   0.828   7.765   7.550  1.0341  0.9493  0.3370
   80MOL   H28833626   0.773   7.629   7.646 -0.6044  0.4146  1.2847
   80MOL   H28933627   0.883   7.752   7.713 -1.2982 -0.1777  0.3457
   80MOL   H29033628   1.079   7.539   7.756 -0.1937 -0.9997  0.3468
   80MOL   H29133629   1.076   7.415   7.646 -2.9053 -1.1137 -2.4982
   80MOL   H29233630   0.926   7.461   7.722 -0.7518  0.9308  0.4616
   80MOL   H29333631   1.112   7.743   7.663 -3.0964 -1.1763  0.5094
   80MOL   H29433632   1.106   0.011   7.495 -2.3125  0.0942  0.8801
   80MOL   H29533633   1.194   7.633   7.556 -0.2123  0.2286 -1.1308
   80MOL   C29633634   0.917   7.562   7.176  0.5458  1.0352  0.1000
   80MOL   C29733635   1.068   7.561   7.135 -0.4444  0.3987 -0.0818
   80MOL   C29833636   1.135   7.709   7.129  0.6799 -0.2788  0.6006
   80MOL   C29933637   1.287   7.712   7.136  0.1415 -0.3792  0.0653
   80MOL   C30033638   1.353   7.661   7.009  0.0562 -0.0646  0.2112
   80MOL   C30133639   1.315   0.100   7.142 -0.4029  0.1058 -0.0213
   80MOL   C30233640   1.347   7.639   7.263 -0.8456  0.1313  0.2095
   80MOL   H30333641   0.867   7.610   7.092 -2.5491 -1.2380  0.5471
   80MOL   H30433642   0.874   7.462   7.171  0.5981  0.7207  3.8587
   80MOL   H30533643   1.121   7.501   7.208 -0.6720  0.7994  0.4098
   80MOL   H30633644   1.091   0.007   7.206  1.5014 -0.4713  1.2384
   80MOL   H30733645   1.101   7.758   7.038 -0.8622 -0.5872  0.9901
   80MOL   H30833646   1.306   7.703   6.920  1.4077  0.9863 -0.0151
   80MOL   H30933647   1.456   7.695   7.002  0.6935 -2.2007 -1.3044
   80MOL   H31033648   1.349   7.552   7.003 -0.0830 -0.0219 -0.4843
   80MOL   H31133649   1.265   0.152   7.224 -1.0418  0.6243 -0.7287
   80MOL   H31233650   1.419   0.125   7.163 -0.6317  2.3924 -1.4123
   80MOL   H31333651   1.283   0.151   7.051 -0.9206  2.4274  1.3888
   80MOL   H31433652   1.446   7.679   7.283 -1.6362  1.9426  0.5975
   80MOL   H31533653   1.287   7.657   7.352 -4.5949 -0.1408 -2.1175
   80MOL   H31633654   1.349   7.531   7.248 -0.1210  0.1516  0.1583
   80MOL   C31733655   1.074   7.477   7.007 -0.3349  0.6860  0.7063
   80MOL   C31833656   1.075   7.322   7.013  0.5604  0.9084 -0.1786
   80MOL   C31933657   1.031   7.264   6.877  0.1793  0.1666 -0.2440
   80MOL   C32033658   0.872   7.237   6.871  1.5114 -0.5794  0.6192
   80MOL   C32133659   0.794   7.369   6.868  0.4098  0.2435  0.3539
   80MOL   C32233660   0.818   7.149   6.983  0.5377 -0.5260 -0.2664
   80MOL   C32333661   0.847   7.172   6.738 -0.1510  0.7622 -0.1102
   80MOL   H32433662   1.002   7.518   6.937  1.3381  1.1500 -0.7774
   80MOL   H32533663   1.161   7.507   6.949 -0.2682 -1.5106 -0.3926
   80MOL   H32633664   1.000   7.297   7.088  0.4498 -1.7195 -1.1093
   80MOL   H32733665   1.079   7.168   6.862 -1.4839 -1.2707  3.0599
   80MOL   H32833666   1.054   7.325   6.790 -1.3483  1.6417  0.3392
   80MOL   H32933667   0.817   7.439   6.787  0.3948  0.5489  0.6097
   80MOL   H33033668   0.799   7.414   6.967  0.3204 -0.1131  0.5199
   80MOL   H33133669   0.686   7.358   6.853  0.5288 -0.1135 -0.2627
   80MOL   H33233670   0.815   7.190   7.084  0.3101 -0.8280 -0.1477
   80MOL   H33333671   0.716   7.117   6.962  0.5892 -0.8405 -0.0376
   80MOL   H33433672   0.874   7.057   7.004  2.3091  0.5850 -0.0350
   80MOL   H33533673   0.744   7.139   6.728  0.3427 -0.5585 -1.0444
   80MOL   H33633674   0.914   7.086   6.740 -3.0236 -1.5183 -0.0734
   80MOL   H33733675   0.873   7.233   6.651 -2.0849  1.1598 -0.4206
   80MOL   C33833676   1.218   7.269   7.046  0.1893  0.2154  1.0927
   80MOL   C33933677   1.236   7.130   7.117  0.2217 -0.4905 -0.3899
   80MOL   C34033678   1.193   7.004   7.037 -0.3270 -0.0495  0.3365
   80MOL   C34133679   1.304   6.952   6.941  0.4357 -0.4211  0.5855
   80MOL   C34233680   1.415   6.885   7.022 -0.1266 -0.1931 -0.2584
   80MOL   C34333681   1.238   6.848   6.835 -0.0232 -0.4225 -0.5048
   80MOL   C34433682   1.366   7.067   6.856 -0.2650 -0.1083  0.2003
   80MOL   H34533683   1.254   7.338   7.122  0.1440  0.4285  0.9237
   80MOL   H34633684   1.290   7.289   6.966  0.5781 -0.5470  1.2537
   80MOL   H34733685   1.344   7.128   7.135 -0.0275  0.0332  1.2550
   80MOL   H34833686   1.094   7.010   6.991  0.0064  0.6902 -0.2896
   80MOL   H34933687   1.179   6.920   7.105  0.2490 -3.3158 -3.3849
   80MOL   H35033688   1.513   6.931   7.006  0.4849 -0.3409  2.8185
   80MOL   H35133689   1.400   6.871   7.129 -1.0298 -0.8355 -0.4681
   80MOL   H35233690   1.422   6.782   6.986  0.8199  0.1109 -0.9949
   80MOL   H35333691   1.198   6.761   6.888  0.4573 -1.5310 -1.9152
   80MOL   H35433692   1.155   6.886   6.775  0.2704  1.1912  0.0939
   80MOL   H35533693   1.316   6.814   6.766  2.5945  0.2790  1.9958
   80MOL   H35633694   1.291   7.137   6.820 -0.3329  0.8367  2.1151
   80MOL   H35733695   1.438   7.121   6.917 -0.6809 -0.1635  0.7505
   80MOL   H35833696   1.418   7.011   6.779 -0.6462 -0.2073  0.0129
   80MOL   C35933697   1.150   7.127   7.254 -0.3237 -0.1753 -0.4562
   80MOL   C36033698   1.206   7.022   7.356  0.3779  0.6690 -0.3598
   80MOL   C36133699   1.099   6.916   7.398 -0.5151  0.0325  0.7081
   80MOL   C36233700   1.145   6.771   7.446  0.2444 -0.3004 -0.4145
   80MOL   C36333701   1.262   6.779   7.542  0.1365 -0.2860  0.0841
   80MOL   C36433702   1.188   6.689   7.326  0.1760 -0.1922 -0.2774
   80MOL   C36533703   1.029   6.697   7.524 -0.1077 -0.1189  0.1449
   80MOL   H36633704   1.042   7.121   7.239 -0.2674  0.9237 -1.3889
   80MOL   H36733705   1.139   7.227   7.296 -3.8122 -0.6570 -0.0543
   80MOL   H36833706   1.293   6.965   7.324  0.2893 -0.3776  1.1807
   80MOL   H36933707   1.021   6.956   7.464  0.5274  1.5584  1.0413
   80MOL   H37033708   1.043   6.893   7.308 -0.8928  1.8298  0.4523
   80MOL   H37133709   1.223   6.820   7.634 -2.5651  1.0829 -1.6078
   80MOL   H37233710   1.311   6.687   7.573  1.7396  0.2719 -0.6892
   80MOL   H37333711   1.336   6.850   7.504  0.8312 -0.3344  1.3365
   80MOL   H37433712   1.268   6.740   7.273 -0.2116 -0.2820 -0.9400
   80MOL   H37533713   1.106   6.665   7.260  0.3951 -0.5446 -0.4245
   80MOL   H37633714   1.237   6.601   7.369 -1.2228 -1.0787 -0.4890
   80MOL   H37733715   1.056   6.594   7.545 -1.2456 -0.2486  1.0316
   80MOL   H37833716   0.932   6.680   7.477 -0.9510  1.5300  1.2254
   80MOL   H37933717   0.999   6.740   7.619  0.9702 -2.7520  1.7271
   80MOL   C38033718   1.252   7.111   7.471 -0.6516  0.5228  0.4375
   80MOL   C38133719   1.376   7.197   7.432  0.4103  0.0097 -0.0147
   80MOL   C38233720   1.507   7.122   7.393 -0.2604 -0.0584 -0.4350
   80MOL   C38333721   1.633   7.199   7.335  0.2536  0.3452 -0.4349
   80MOL   C38433722   1.731   7.235   7.452 -0.0299 -0.9208 -0.0812
   80MOL   C38533723   1.595   7.321   7.250  0.3506  0.0610  0.1527
   80MOL   C38633724   1.709   7.096   7.238 -0.5685 -0.2519  0.4131
   80MOL   H38733725   1.274   7.052   7.560 -1.2597 -1.6537 -0.8243
   80MOL   H38833726   1.173   7.178   7.505  0.7821  2.4924  0.0230
   80MOL   H38933727   1.362   7.265   7.348  0.0110  2.2309  1.8260
   80MOL   H39033728   1.544   7.060   7.475 -1.5993  1.7364  1.5735
   80MOL   H39133729   1.479   7.056   7.311  0.2059 -0.1185 -0.5503
   80MOL   H39233730   1.791   7.151   7.489 -2.9604 -3.0351  0.0728
   80MOL   H39333731   1.805   7.306   7.417  1.9914 -2.2606  1.3864
   80MOL   H39433732   1.690   7.288   7.538 -1.1710  0.8682 -1.7009
   80MOL   H39533733   1.687   7.352   7.200 -2.2541  4.9585 -1.9045
   80MOL   H39633734   1.553   7.400   7.312 -0.6159  1.5101 -2.2588
   80MOL   H39733735   1.511   7.316   7.181  1.8922  0.5081 -1.8085
   80MOL   H39833736   1.806   7.135   7.207 -0.5523 -0.2384  0.4795
   80MOL   H39933737   1.667   7.076   7.139  0.3492 -0.3224  0.0348
   80MOL   H40033738   1.724   7.000   7.287  1.0218 -0.7740 -1.0482
   80MOL   C40133739   1.402   7.297   7.547  0.2248 -0.0534 -0.2510
   80MOL   C40233740   1.451   7.232   7.676  0.1642 -1.0929 -0.8298
   80MOL   C40333741   1.514   7.335   0.014 -0.5281 -0.0751 -0.1522
   80MOL   C40433742   1.419   7.437   0.084 -0.1086  0.3800  0.1852
   80MOL   C40533743   1.488   7.494   0.211  0.9719  0.2226 -0.4929
   80MOL   C40633744   1.289   7.371   0.124  0.0512  0.1859 -0.4626
   80MOL   C40733745   1.396   7.560   7.758 -0.4848  0.8473  0.0543
   80MOL   H40833746   1.473   7.372   7.512  1.3870 -0.6123  0.8434
   80MOL   H40933747   1.308   7.346   7.568 -1.0691 -1.6718 -2.0770
   80MOL   H41033748   1.376   7.172   7.727  1.8890  0.2531  3.5045
   80MOL   H41133749   1.585   7.397   7.726 -1.3197 -1.3594 -2.7744
   80MOL   H41233750   1.561   7.267   0.086 -0.8344  1.8854  1.9360
   80MOL   H41333751   1.533   7.411   0.266 -0.5930 -1.0138 -1.0223
   80MOL   H41433752   1.406   7.548   0.258 -0.4015  0.3025 -2.9148
   80MOL   H41533753   1.563   7.568   0.182 -0.3542  1.5834 -0.5316
   80MOL   H41633754   1.309   7.278   0.178 -0.8463 -0.7433 -1.7190
   80MOL   H41733755   1.238   7.345   0.032  1.1878 -0.6710 -0.8629
   80MOL   H41833756   1.214   7.428   0.179 -0.2496 -3.5458  3.2162
   80MOL   H41933757   1.488   7.616   7.744 -0.7090  0.7886 -1.8487
   80MOL   H42033758   1.357   7.526   7.662 -3.6566 -0.0397  1.5953
   80MOL   H42133759   1.317   7.623   0.033 -0.1229  0.2975  1.6283
   80MOL   H42233760   1.523   7.154   7.651  1.5396  0.3342 -1.3786
   81MOL     C133761   6.089   5.403   4.230 -0.6002  0.5936  0.1537
   81MOL     C233762   6.033   5.547   4.255 -0.0227 -0.1195  0.6419
   81MOL     C333763   5.904   5.559   4.185 -0.0521 -0.0021  0.6187
   81MOL     C433764   5.812   5.679   4.192 -0.6608  0.4425 -0.4142
   81MOL     C533765   5.671   5.643   4.165  0.1528  0.4368  0.0180
   81MOL     C633766   5.814   5.758   4.326 -0.1299 -0.4745  0.6935
   81MOL     C733767   5.853   5.777   4.081 -0.0430 -0.3445  0.4851
   81MOL     H833768   6.176   5.381   4.291 -0.9446  2.2378  1.2695
   81MOL     H933769   6.014   5.324   4.240  0.5111 -0.5701 -0.5977
   81MOL    H1033770   5.997   5.548   4.358  0.8523  0.7244  0.9499
   81MOL    H1133771   5.847   5.467   4.200 -0.6549  0.2401 -0.1585
   81MOL    H1233772   5.928   5.544   4.080 -3.0086  3.7113 -0.7054
   81MOL    H1333773   5.603   5.728   4.166 -0.4233 -0.0155 -0.2757
   81MOL    H1433774   5.633   5.573   4.240 -1.9665 -0.3515 -1.7506
   81MOL    H1533775   5.652   5.591   4.071  0.6359  1.8140 -0.8561
   81MOL    H1633776   5.758   5.851   4.319 -0.7006 -0.8920 -0.4099
   81MOL    H1733777   5.751   5.702   4.395 -1.4948 -0.8675 -0.8361
   81MOL    H1833778   5.916   5.787   4.352 -0.5008 -0.1080  1.7348
   81MOL    H1933779   5.846   5.736   3.981  1.1989 -0.0131  0.2597
   81MOL    H2033780   5.955   5.815   4.086  0.4965 -1.0607 -3.7821
   81MOL    H2133781   5.780   5.858   4.089 -0.6016 -0.8198  0.2462
   81MOL    H2233782   6.115   5.405   4.124 -0.3163 -2.4221  0.1255
   81MOL    C2333783   6.141   5.654   4.225 -0.0391 -0.5109  0.0746
   81MOL    C2433784   6.266   5.652   4.317  0.3350 -0.4986  0.1991
   81MOL    C2533785   6.228   5.651   4.472 -0.1814 -0.5265  0.3069
   81MOL    C2633786   6.306   5.567   4.578 -0.2505  0.9133  0.2504
   81MOL    C2733787   6.274   5.421   4.554  0.5732  0.3154  0.1658
   81MOL    C2833788   6.460   5.588   4.574  0.0218 -0.5529 -0.6649
   81MOL    C2933789   6.257   5.603   4.722  0.1454 -0.6513  0.2006
   81MOL    H3033790   6.152   5.635   4.118  0.1896 -3.2259  0.5252
   81MOL    H3133791   6.095   5.751   4.242 -0.0097 -0.4974  0.0743
   81MOL    H3233792   6.317   5.557   4.300 -0.2243 -0.7806  0.0920
   81MOL    H3333793   6.122   5.635   4.491 -0.8016 -0.6497 -2.9772
   81MOL    H3433794   6.237   5.755   4.505 -1.3338  0.1319 -1.3705
   81MOL    H3533795   6.306   5.382   4.457  0.7306  0.1891  0.2694
   81MOL    H3633796   6.320   5.359   4.630 -2.1566 -1.6791  0.2765
   81MOL    H3733797   6.167   5.398   4.552  0.5737  0.3751 -1.3046
   81MOL    H3833798   6.491   5.692   4.583  0.9236 -0.6087 -2.7671
   81MOL    H3933799   6.504   5.554   4.668  0.6745  2.0033  0.0039
   81MOL    H4033800   6.508   5.545   4.486  1.4873 -0.6380  0.1541
   81MOL    H4133801   6.263   5.710   4.744 -0.7186 -0.3591 -0.9166
   81MOL    H4233802   6.334   5.567   4.789  1.5218  1.0913 -0.4232
   81MOL    H4333803   6.155   5.577   4.753  0.5603 -1.1515  1.1507
   81MOL    C4433804   6.358   5.765   4.284  0.0886 -0.0554 -0.0229
   81MOL    C4533805   6.431   5.753   4.153 -0.5431 -0.1975  0.3635
   81MOL    C4633806   6.530   5.635   4.143  0.0863  0.8032  0.0774
   81MOL    C4733807   6.527   5.560   4.007 -0.5022  1.1506 -0.3301
   81MOL    C4833808   6.636   5.456   4.030 -0.1845  0.1477  0.1869
   81MOL    C4933809   6.570   5.651   3.885 -0.2654 -0.0218  0.6047
   81MOL    C5033810   6.386   5.491   3.992  0.1479  0.2541  0.9753
   81MOL    H5133811   6.296   5.855   4.283  0.6684  0.3411 -0.5335
   81MOL    H5233812   6.423   5.782   4.370 -1.1341  0.1015  0.8836
   81MOL    H5333813   6.352   5.753   4.078  0.2763 -0.4551 -0.5140
   81MOL    H5433814   6.503   5.568   4.225 -0.0054 -1.0955 -1.4876
   81MOL    H5533815   6.632   5.663   4.170 -0.6042  2.3450  1.1746
   81MOL    H5633816   6.625   5.386   4.113  0.6828 -1.7199 -1.2403
   81MOL    H5733817   6.738   5.495   4.038 -0.8377  1.7407  0.9254
   81MOL    H5833818   6.630   5.393   3.942 -0.8450  3.0506 -1.9268
   81MOL    H5933819   6.482   5.708   3.854 -0.9533 -1.4098 -0.0260
   81MOL    H6033820   6.651   5.720   3.908 -0.7182  0.7310 -0.0189
   81MOL    H6133821   6.604   5.597   3.798 -0.2480  0.0430  0.5712
   81MOL    H6233822   6.367   5.425   4.077  0.0751 -0.0600  0.7214
   81MOL    H6333823   6.298   5.555   3.987  0.7271  0.9454 -1.1243
   81MOL    H6433824   6.387   5.426   3.904  0.4079  1.1010  0.3435
   81MOL    C6533825   6.506   5.885   4.126 -0.0518 -0.1048 -0.2589
   81MOL    C6633826   6.433   6.011   4.059 -0.1592  0.0496  0.6202
   81MOL    C6733827   6.371   5.990   3.919  0.5740 -0.1068  0.1328
   81MOL    C6833828   6.233   6.054   3.890  0.1995  0.5439 -0.3647
   81MOL    C6933829   6.189   6.004   3.755  0.1000  0.0385  0.0688
   81MOL    C7033830   6.127   6.009   3.993 -0.4564  0.1919  0.5000
   81MOL    C7133831   6.253   6.208   3.887  0.4222  0.2149 -0.2336
   81MOL    H7233832   6.544   5.912   4.225 -2.9846  0.5077  0.7706
   81MOL    H7333833   6.595   5.860   4.069 -0.6703 -1.1055 -0.7876
   81MOL    H7433834   6.351   6.034   4.126  0.0551  0.3141  0.7900
   81MOL    H7533835   6.345   5.885   3.906  3.3031 -1.0566  1.7496
   81MOL    H7633836   6.440   6.024   3.841 -1.5487  1.2961 -1.1804
   81MOL    H7733837   6.208   5.897   3.755  0.0465  0.0294  0.5895
   81MOL    H7833838   6.083   6.024   3.739 -0.2432  0.3260  2.4987
   81MOL    H7933839   6.250   6.041   3.672 -0.7342  1.3792  0.0410
   81MOL    H8033840   6.153   6.040   4.094 -0.5769  1.0176  0.2757
   81MOL    H8133841   6.123   5.900   3.997 -0.6205  0.2407  1.8463
   81MOL    H8233842   6.025   6.035   3.964  0.7770  2.8057 -1.7412
   81MOL    H8333843   6.292   6.248   3.981 -1.7072 -0.7812  1.0964
   81MOL    H8433844   6.160   6.260   3.866  0.8479  0.6874 -1.0085
   81MOL    H8533845   6.322   6.243   3.810 -0.3525  1.4832 -0.3734
   81MOL    C8633846   6.538   6.118   4.040  0.3395  0.5736 -0.0578
   81MOL    C8733847   6.629   6.174   4.159 -0.0567 -0.4780  0.1427
   81MOL    C8833848   6.540   6.213   4.277  0.2133  0.0697 -0.4352
   81MOL    C8933849   6.591   6.193   4.424  0.3369 -0.0005 -0.1425
   81MOL    C9033850   6.461   6.192   4.507 -0.8131 -0.2471 -0.6813
   81MOL    C9133851   6.687   6.305   4.471  0.0401 -0.1274  0.6003
   81MOL    C9233852   6.660   6.061   4.455 -0.6156  0.3299  0.0447
   81MOL    H9333853   6.495   6.205   3.990 -0.1269 -1.2682 -2.9849
   81MOL    H9433854   6.613   6.076   3.973 -0.0170  0.0227 -0.1174
   81MOL    H9533855   6.690   6.088   4.185  0.9802  0.9888  2.7739
   81MOL    H9633856   6.441   6.166   4.273  0.2966  0.0328 -2.6027
   81MOL    H9733857   6.508   6.317   4.271 -0.4504 -0.2388 -2.8486
   81MOL    H9833858   6.410   6.100   4.479 -2.4453  0.2999  0.4633
   81MOL    H9933859   6.406   6.280   4.475 -0.5294  0.5638  1.0281
   81MOL   H10033860   6.472   6.190   4.616  2.3413 -0.6901 -0.9439
   81MOL   H10133861   6.629   6.395   4.449 -1.4725 -1.2577 -0.0895
   81MOL   H10233862   6.700   6.317   4.579 -4.4420  0.2419  1.2206
   81MOL   H10333863   6.789   6.286   4.438  0.3940 -2.1488  2.7576
   81MOL   H10433864   6.735   6.040   4.379 -0.5000 -0.3371  0.3349
   81MOL   H10533865   6.694   6.045   4.557  0.6488 -2.0124 -0.7086
   81MOL   H10633866   6.588   5.981   4.435  0.5336 -0.6265 -0.3193
   81MOL   C10733867   6.725   6.290   4.122  0.2829  0.6622 -0.4621
   81MOL   C10833868   6.829   6.270   4.009  0.2219  0.1068  0.1630
   81MOL   C10933869   6.908   6.133   4.017  0.3720 -0.0463  0.5570
   81MOL   C11033870   7.036   6.116   4.104 -0.1495 -0.3351  0.3573
   81MOL   C11133871   7.156   6.189   4.040 -0.5367 -0.4150 -0.4887
   81MOL   C11233872   7.069   5.961   4.125  0.1821 -0.0655  0.1793
   81MOL   C11333873   7.021   6.167   4.247 -0.3523 -0.1691 -0.1424
   81MOL   H11433874   6.789   6.317   4.206  0.9264 -1.0763 -0.3622
   81MOL   H11533875   6.660   6.376   4.107  0.1164  0.5260 -0.5299
   81MOL   H11633876   6.901   6.351   4.022 -1.2186  1.7288 -1.7287
   81MOL   H11733877   6.838   6.052   4.038 -1.2589  1.0621 -0.4753
   81MOL   H11833878   6.948   6.117   3.916  0.5125  2.6348  0.1544
   81MOL   H11933879   7.131   6.294   4.026 -0.1031 -0.6312 -3.2241
   81MOL   H12033880   7.245   6.181   4.103 -0.5219  1.8084 -0.1927
   81MOL   H12133881   7.188   6.152   3.942 -0.5434  0.3925 -0.7948
   81MOL   H12233882   6.985   5.906   4.168  1.7569 -1.2300  1.8133
   81MOL   H12333883   7.157   5.949   4.188 -1.1417  0.2724  2.1502
   81MOL   H12433884   7.088   5.902   4.035  0.9668 -2.1234  1.6764
   81MOL   H12533885   6.941   6.109   4.293 -0.5028  1.3100  1.5451
   81MOL   H12633886   6.992   6.273   4.246  1.1504  0.2497 -0.1587
   81MOL   H12733887   7.116   6.147   4.295 -0.5182 -0.3721  0.1048
   81MOL   C12833888   6.766   6.277   3.866 -0.4748 -0.3538  0.5317
   81MOL   C12933889   6.853   6.339   3.750  0.3590  0.4675  0.3170
   81MOL   C13033890   6.802   6.302   3.612 -0.1170  0.3153  1.2210
   81MOL   C13133891   6.842   6.158   3.553  0.4029 -0.5444  0.1031
   81MOL   C13233892   6.795   6.036   3.622  0.7376  0.4366 -0.2436
   81MOL   C13333893   6.997   6.138   3.530 -0.7440 -0.2160  0.4605
   81MOL   C13433894   6.785   6.164   3.408 -0.3362  0.2052  0.2517
   81MOL   H13533895   6.681   6.345   3.869 -1.5852 -1.7047  0.2285
   81MOL   H13633896   6.725   6.179   3.841  2.7030 -1.3548 -0.9855
   81MOL   H13733897   6.953   6.299   3.766  1.0173  1.6674 -0.6776
   81MOL   H13833898   6.693   6.306   3.611 -0.1056  0.9284 -2.1791
   81MOL   H13933899   6.835   6.383   3.548 -0.9111  0.8191  1.4432
   81MOL   H14033900   6.689   6.047   3.644  1.3541 -0.2591  3.3228
   81MOL   H14133901   6.836   6.039   3.723  0.3818 -1.3747 -0.0311
   81MOL   H14233902   6.822   5.946   3.567  1.6147  0.2643  0.4682
   81MOL   H14333903   7.007   6.064   3.451  0.9080  1.9177 -1.3882
   81MOL   H14433904   7.064   6.125   3.614 -0.3147 -0.6325  0.0560
   81MOL   H14533905   7.039   6.220   3.472  0.6527  1.3325  3.5447
   81MOL   H14633906   6.796   6.072   3.351 -0.8064  0.9203 -0.9930
   81MOL   H14733907   6.677   6.175   3.404 -0.3451  0.4285  0.9459
   81MOL   H14833908   6.835   6.232   3.339 -0.0041  1.6401  1.8518
   81MOL   C14933909   6.859   6.494   3.777 -0.0264  0.2721 -0.4873
   81MOL   C15033910   6.986   6.576   3.746 -0.3925  0.6355 -0.1906
   81MOL   C15133911   6.963   6.726   3.700 -0.5857 -1.0136 -0.4204
   81MOL   C15233912   6.945   6.753   3.551  0.6370 -0.3554 -0.2795
   81MOL   C15333913   6.804   6.695   3.506 -0.4364  0.4262  0.3702
   81MOL   C15433914   7.054   6.709   3.459 -0.4482  0.0923 -0.1353
   81MOL   C15533915   6.923   6.911   3.533 -0.7565 -0.1873  0.5569
   81MOL   H15633916   6.841   6.506   3.883 -2.0732 -2.1658 -0.5113
   81MOL   H15733917   6.780   6.555   3.735  0.0917  1.8358  1.4812
   81MOL   H15833918   7.044   6.530   3.665 -0.9797  0.2276 -0.3799
   81MOL   H15933919   7.056   6.779   3.717 -0.9363 -0.0752 -1.3558
   81MOL   H16033920   6.891   6.777   3.765 -1.0106 -2.0761 -0.0418
   81MOL   H16133921   6.797   6.723   3.401  1.4616  0.6859  0.3029
   81MOL   H16233922   6.805   6.587   3.502 -3.2827  0.4102 -1.2609
   81MOL   H16333923   6.713   6.724   3.560 -0.4700  0.0656  0.5072
   81MOL   H16433924   7.089   6.606   3.469  0.2524  0.2326 -1.0305
   81MOL   H16533925   7.149   6.757   3.485  0.2847 -2.0043  1.2377
   81MOL   H16633926   7.029   6.729   3.355  0.1393  3.8814  0.4093
   81MOL   H16733927   7.005   6.971   3.572  1.9706 -1.7857 -2.4573
   81MOL   H16833928   6.940   6.932   3.427  0.5474 -1.6430  0.4641
   81MOL   H16933929   6.825   6.949   3.562 -1.3471 -1.9049  0.8460
   81MOL   C17033930   7.074   6.573   3.863 -0.0357  0.7839  0.7404
   81MOL   C17133931   7.231   6.562   3.823 -0.5528 -0.0305  0.0674
   81MOL   C17233932   7.265   6.415   3.786 -0.0691 -0.2783  0.1076
   81MOL   C17333933   7.381   6.386   3.683 -0.0726 -0.3957  0.2915
   81MOL   C17433934   7.503   6.475   3.706 -0.1547 -0.5262 -0.5284
   81MOL   C17533935   7.334   6.402   3.535  0.1090 -0.5878 -0.5710
   81MOL   C17633936   7.431   6.243   3.698 -0.4923  0.0702  0.1199
   81MOL   H17733937   7.056   6.494   3.936  0.9952  0.6515  0.8550
   81MOL   H17833938   7.052   6.658   3.927  1.3865  0.1774  2.0700
   81MOL   H17933939   7.254   6.617   3.732 -1.9864 -0.9111 -0.8393
   81MOL   H18033940   7.281   6.361   3.880 -0.6472 -1.5069 -0.4854
   81MOL   H18133941   7.173   6.371   3.746 -0.0031 -0.4537  0.1462
   81MOL   H18233942   7.544   6.458   3.806 -0.9746  1.9581  0.2645
   81MOL   H18333943   7.584   6.450   3.637  1.1286 -2.7595  1.7032
   81MOL   H18433944   7.487   6.581   3.688  0.1540 -0.0709  1.7404
   81MOL   H18533945   7.295   6.501   3.514  0.6409  0.0436  1.2826
   81MOL   H18633946   7.415   6.369   3.470 -0.1892 -0.6305 -0.9180
   81MOL   H18733947   7.251   6.333   3.518 -1.2057  1.3748 -2.4149
   81MOL   H18833948   7.460   6.216   3.799  0.5765 -2.0363 -0.7218
   81MOL   H18933949   7.353   6.176   3.663  0.5097 -0.9533 -0.2039
   81MOL   H19033950   7.513   6.212   3.632  0.7300  2.3613  0.4878
   81MOL   C19133951   7.312   6.605   3.954 -0.5449  1.1218  0.1108
   81MOL   C19233952   7.340   6.760   3.973 -0.2341 -0.3029  0.4319
   81MOL   C19333953   7.457   6.823   3.885 -0.4283 -0.0671  0.1286
   81MOL   C19433954   7.425   6.954   3.814 -0.4072  0.0134 -0.1888
   81MOL   C19533955   7.389   7.062   3.916  0.1191  0.0943  0.1152
   81MOL   C19633956   7.313   6.929   3.706 -0.1125 -0.7744 -0.0347
   81MOL   C19733957   7.559   6.993   3.743  0.0877 -0.4756  0.0985
   81MOL   H19833958   7.268   6.565   4.045  1.9404 -0.5053  0.6742
   81MOL   H19933959   7.416   6.572   3.950  0.1430  3.4170 -2.1563
   81MOL   H20033960   7.246   6.806   3.940  0.0551 -1.7615 -2.5978
   81MOL   H20133961   7.503   6.749   3.820 -0.6753  2.1095 -2.5983
   81MOL   H20233962   7.549   6.846   3.940  1.7084 -1.6070 -2.6995
   81MOL   H20333963   7.289   7.048   3.957 -0.5351  0.3091 -1.3610
   81MOL   H20433964   7.455   7.069   4.002 -1.0629  0.7567  0.9874
   81MOL   H20533965   7.380   7.155   3.860  0.4916 -0.4002 -0.7920
   81MOL   H20633966   7.219   6.931   3.761  0.8279 -3.0134  1.7280
   81MOL   H20733967   7.302   7.002   3.626  2.1691 -1.6400 -1.1890
   81MOL   H20833968   7.321   6.827   3.670  4.2488  0.2732 -2.2964
   81MOL   H20933969   7.581   6.907   3.680  1.4062 -0.4689  0.5382
   81MOL   H21033970   7.533   7.082   3.686  3.0871 -0.1381 -0.8625
   81MOL   H21133971   7.645   7.013   3.807  0.8008  0.6748 -1.2001
   81MOL   C21233972   7.367   6.797   4.124  0.3039 -0.4045  0.1019
   81MOL   C21333973   7.251   6.778   4.217  0.2324  0.1140 -0.1352
   81MOL   C21433974   7.142   6.889   4.208 -0.2688 -0.2412  0.0140
   81MOL   C21533975   7.000   6.868   4.272 -0.5727 -0.0544  0.4689
   81MOL   C21633976   6.946   6.726   4.248  0.0916  0.1471 -0.2450
   81MOL   C21733977   6.984   6.922   4.422  0.1060  0.2250 -0.4910
   81MOL   C21833978   6.905   6.974   4.197 -0.2812 -0.3058 -0.3806
   81MOL   H21933979   7.450   6.733   4.154 -1.1202 -1.7629  1.2502
   81MOL   H22033980   7.401   6.900   4.134 -2.1318  0.3387  1.2461
   81MOL   H22133981   7.197   6.688   4.188  0.3060 -0.3999  1.2671
   81MOL   H22233982   7.124   6.908   4.102  1.8231  2.4231  0.0912
   81MOL   H22333983   7.162   6.981   4.263  0.9215 -0.7667  0.4739
   81MOL   H22433984   7.000   6.646   4.299  1.5729  1.4115  0.2218
   81MOL   H22533985   6.939   6.703   4.141  1.9525 -0.7775 -0.1944
   81MOL   H22633986   6.839   6.730   4.268  0.1054 -2.8724  0.7024
   81MOL   H22733987   6.884   6.906   4.463  0.5612  0.1194  0.6089
   81MOL   H22833988   7.042   6.866   4.496  0.8133  1.8409  0.2086
   81MOL   H22933989   7.006   7.028   4.438  1.3748 -0.2820  1.3338
   81MOL   H23033990   6.944   7.076   4.207 -0.0033 -0.4568  0.0654
   81MOL   H23133991   6.799   6.968   4.222 -0.5382  0.3791 -1.2485
   81MOL   H23233992   6.912   6.941   4.093 -1.5943 -0.5464 -0.3938
   81MOL   C23333993   7.281   6.768   4.373  0.2289 -0.1196 -0.2335
   81MOL   C23433994   7.395   6.678   4.431  0.1848 -0.4329  0.0093
   81MOL   C23533995   7.410   6.529   4.375 -0.2891 -0.7657 -0.9984
   81MOL   C23633996   7.328   6.420   4.450  0.0610  0.1653  0.0607
   81MOL   C23733997   7.368   6.399   4.593  0.2711  0.6126  0.2454
   81MOL   C23833998   7.183   6.447   4.451  0.9329  0.1286 -0.0762
   81MOL   C23933999   7.361   6.285   4.382 -0.1143  0.7535  0.7788
   81MOL   H24034000   7.193   6.730   4.425 -1.2264  1.4466 -1.4920
   81MOL   H24134001   7.305   6.872   4.398  2.3888  0.0334 -2.7014
   81MOL   H24234002   7.375   6.674   4.539  1.4348 -0.6024  0.2451
   81MOL   H24334003   7.401   6.531   4.267  1.9698 -0.7965 -1.2023
   81MOL   H24434004   7.509   6.491   4.398  0.1918  1.5207  0.8950
   81MOL   H24534005   7.474   6.377   4.597 -0.0276 -1.1927 -1.2452
   81MOL   H24634006   7.314   6.313   4.632  0.3202  0.2562 -0.4621
   81MOL   H24734007   7.348   6.482   4.662 -0.0446 -0.4196  1.4122
   81MOL   H24834008   7.148   6.523   4.521 -1.0772 -0.3371 -0.5301
   81MOL   H24934009   7.142   6.483   4.357  0.1552 -0.8627 -0.1234
   81MOL   H25034010   7.127   6.354   4.458  0.2588  0.4406 -1.2309
   81MOL   H25134011   7.310   6.208   4.440  2.0378  0.7231  2.7063
   81MOL   H25234012   7.327   6.283   4.279  0.6255  0.4654  0.5359
   81MOL   H25334013   7.467   6.263   4.370 -0.0407  1.1333  0.7133
   81MOL   C25434014   7.529   6.752   4.435 -1.1113 -0.0702  0.0399
   81MOL   C25534015   7.554   6.865   4.546  0.2839  0.4113  0.1174
   81MOL   C25634016   7.680   6.951   4.521  0.3693  0.8992 -0.2963
   81MOL   C25734017   7.679   7.036   4.383 -0.6981 -0.9442 -0.4109
   81MOL   C25834018   0.003   7.159   4.408  0.4263  0.0279  0.3546
   81MOL   C25934019   7.540   7.092   4.340  0.4783  0.1258  0.2169
   81MOL   C26034020   7.747   6.953   4.270 -0.3291 -0.4495  0.2826
   81MOL   H26134021   7.545   6.801   4.339  1.5237  1.9589  1.4352
   81MOL   H26234022   7.609   6.678   4.428 -2.4611 -1.4457 -1.4309
   81MOL   H26334023   7.466   6.929   4.536  1.1947  1.9709  1.6314
   81MOL   H26434024   7.686   7.025   4.601 -0.6515 -0.2404  0.8689
   81MOL   H26534025   0.008   6.896   4.524 -0.1248  0.0843  1.4645
   81MOL   H26634026   0.105   7.120   4.416  0.1855 -0.0689  3.6434
   81MOL   H26734027   7.755   7.228   4.491  2.9514  1.7527 -0.6063
   81MOL   H26834028   0.015   7.222   4.320 -1.4150  2.5167  1.8221
   81MOL   H26934029   7.540   7.164   4.259  2.2475 -0.2814 -0.1575
   81MOL   H27034030   7.491   7.151   4.418  0.3301  0.3933 -0.0798
   81MOL   H27134031   7.483   7.006   4.304 -0.9272  0.0538  2.4572
   81MOL   H27234032   7.744   6.845   4.281 -1.9046 -0.4063  0.4281
   81MOL   H27334033   7.707   6.988   4.175  3.4810  1.4223 -0.7212
   81MOL   H27434034   0.090   6.961   4.267 -0.4920  1.3857 -1.3398
   81MOL   C27534035   7.570   6.814   4.693  0.2267 -0.6020  0.2430
   81MOL   C27634036   7.561   6.917   4.808  0.3651 -0.0213 -0.2493
   81MOL   C27734037   7.434   7.008   4.800  0.2784  0.2932 -0.3218
   81MOL   C27834038   7.445   7.158   4.831  0.9150 -0.9687 -0.4285
   81MOL   C27934039   7.303   7.221   4.816 -0.2687  0.0419 -0.3130
   81MOL   C28034040   7.498   7.191   4.969 -1.0576  0.0402  0.0315
   81MOL   C28134041   7.547   7.219   4.733  0.0696  0.3945 -0.2023
   81MOL   H28234042   7.491   6.742   4.715 -0.0592 -0.1526  0.7101
   81MOL   H28334043   7.666   6.763   4.695  0.1975 -0.7965 -1.9177
   81MOL   H28434044   7.647   6.984   4.802  2.1303 -2.1690  0.8154
   81MOL   H28534045   7.364   6.970   4.875  2.5939 -1.3501  1.0408
   81MOL   H28634046   7.384   6.990   4.705  0.1689  0.0991 -0.2298
   81MOL   H28734047   7.258   7.183   4.724 -2.6548  1.2417  0.3230
   81MOL   H28834048   7.241   7.172   4.891 -2.8965  1.8530 -1.2141
   81MOL   H28934049   7.292   7.328   4.834 -0.6494  0.4800 -2.9090
   81MOL   H29034050   7.603   7.167   4.987 -0.5527  2.2230  0.0826
   81MOL   H29134051   7.448   7.142   5.053  0.3219 -0.4892  0.5726
   81MOL   H29234052   7.495   7.300   4.978  2.3112  0.0193  2.7164
   81MOL   H29334053   7.553   7.325   4.760  2.5526  0.0298  0.8433
   81MOL   H29434054   7.522   7.209   4.628  0.5009  1.8991 -0.4613
   81MOL   H29534055   7.652   7.192   4.734 -0.2772 -1.0079  2.2245
   81MOL   C29634056   7.561   6.838   4.941  0.0579 -0.1036 -0.2618
   81MOL   C29734057   7.687   6.759   4.969 -0.0225 -0.7003 -0.3363
   81MOL   C29834058   7.649   6.664   5.094 -1.0369 -0.7865  0.2338
   81MOL   C29934059   7.606   6.523   5.072 -0.0279  0.2373 -0.3905
   81MOL   C30034060   7.500   6.503   4.964 -0.5999 -0.6767  0.0468
   81MOL   C30134061   7.733   6.442   5.021 -0.2735 -0.2346  0.1563
   81MOL   C30234062   7.559   6.470   5.211  0.0029 -0.1236 -0.1425
   81MOL   H30334063   7.471   6.777   4.948 -1.5412  2.1539 -0.6426
   81MOL   H30434064   7.546   6.904   5.026 -0.7823 -0.1043 -0.4082
   81MOL   H30534065   7.712   6.690   4.888 -0.0588  0.7838 -1.6220
   81MOL   H30634066   7.568   6.718   5.143 -1.0059  0.7900 -1.3932
   81MOL   H30734067   7.730   6.665   5.167 -0.3155  3.1475 -0.5135
   81MOL   H30834068   7.518   6.552   4.867 -2.0584  2.0664  1.1015
   81MOL   H30934069   7.481   6.397   4.950  3.0567 -1.6544  2.0393
   81MOL   H31034070   7.403   6.548   4.987  0.7329  2.4280 -0.0406
   81MOL   H31134071   0.063   6.489   5.045 -0.1758  0.1886 -1.0285
   81MOL   H31234072   7.729   6.337   5.050  0.0268 -0.3281 -0.1349
   81MOL   H31334073   7.728   6.442   4.912 -2.3688  0.0823  0.2343
   81MOL   H31434074   7.523   6.368   5.194 -0.3053 -0.4751  2.3264
   81MOL   H31534075   7.643   6.452   5.279 -0.1386 -2.2021 -0.4703
   81MOL   H31634076   7.480   6.525   5.262 -0.3293 -1.5771  0.9485
   81MOL   C31734077   0.042   6.850   5.015  0.6206 -0.6699 -0.2415
   81MOL   C31834078   0.187   6.786   5.042  0.4191 -0.3040 -0.1584
   81MOL   C31934079   0.243   6.768   4.892 -0.1042  0.0994 -0.7471
   81MOL   C32034080   0.355   6.664   4.872 -0.1678 -0.5561 -0.2816
   81MOL   C32134081   0.366   6.631   4.725  0.4561 -0.5958  0.5964
   81MOL   C32234082   0.349   6.528   4.946  1.0658 -0.2801 -0.0404
   81MOL   C32334083   0.493   6.722   4.911  0.2445  0.7456 -0.0621
   81MOL   H32434084   0.056   6.925   4.937  1.9644 -1.2102 -0.5248
   81MOL   H32534085   0.006   6.907   5.101 -0.9474  0.1603 -1.4201
   81MOL   H32634086   0.177   6.690   5.092  1.0575 -0.1621  0.2519
   81MOL   H32734087   0.273   6.863   4.847  0.5624  1.4769  2.4717
   81MOL   H32834088   0.166   6.737   4.822  1.7680 -2.0183 -1.9674
   81MOL   H32934089   0.366   6.725   4.670  2.1200  0.3569  2.1765
   81MOL   H33034090   0.283   6.575   4.682 -0.4497  0.5029  0.8961
   81MOL   H33134091   0.462   6.584   4.701  1.5697  1.1781  1.4315
   81MOL   H33234092   0.345   6.528   5.055 -1.5953 -1.1196 -0.1080
   81MOL   H33334093   0.247   6.494   4.933  0.3088  1.9854 -0.3731
   81MOL   H33434094   0.410   6.446   4.907  1.6453  0.2800 -0.3317
   81MOL   H33534095   0.510   6.746   5.016 -0.3632 -0.1339  0.2476
   81MOL   H33634096   0.520   6.812   4.855 -1.5279 -0.9207 -3.8421
   81MOL   H33734097   0.564   6.646   4.881 -0.6176  0.7022 -2.1388
   81MOL   C33834098   0.276   6.877   5.130 -0.2676  0.2746  0.4361
   81MOL   C33934099   0.229   6.903   5.277  0.5877  0.1953  0.0401
   81MOL   C34034100   0.313   7.007   5.353 -0.2927  0.5286  0.0321
   81MOL   C34134101   0.292   7.166   5.349 -0.3616  0.1185 -0.3672
   81MOL   C34234102   0.275   7.209   5.201  0.2572 -0.7442 -0.7585
   81MOL   C34334103   0.173   7.203   5.443 -0.4800  0.0627 -0.2507
   81MOL   C34434104   0.420   7.236   5.398  0.1135 -0.7735 -0.2459
   81MOL   H34534105   0.311   6.967   5.078  1.1457 -0.3134  0.3547
   81MOL   H34634106   0.366   6.818   5.142 -1.6159 -1.7286  0.8879
   81MOL   H34734107   0.132   6.952   5.263  0.5227 -0.2059 -0.9794
   81MOL   H34834108   0.408   6.995   5.301 -1.7977  1.2586 -2.9999
   81MOL   H34934109   0.327   6.968   5.454 -2.9754  1.4344  0.8026
   81MOL   H35034110   0.259   7.316   5.186 -1.3585 -0.7871  0.5060
   81MOL   H35134111   0.366   7.187   5.147  1.0806  0.1238  0.2543
   81MOL   H35234112   0.179   7.172   5.164 -0.8549  0.2541  1.0257
   81MOL   H35334113   0.176   7.155   5.541  0.1759  2.3701  0.8890
   81MOL   H35434114   0.179   7.308   5.470 -2.7866  0.0003  0.6003
   81MOL   H35534115   0.077   7.178   5.397  1.2200 -1.1596 -3.3155
   81MOL   H35634116   0.505   7.213   5.335  0.2222 -0.0170 -0.3714
   81MOL   H35734117   0.412   7.344   5.397 -1.1591 -0.8616 -2.1025
   81MOL   H35834118   0.443   7.211   5.502 -1.6211  0.0324  0.3587
   81MOL   C35934119   0.207   6.789   5.370  0.6099  0.9846 -0.7149
   81MOL   C36034120   0.100   6.805   5.487  0.9475  0.1198 -0.5002
   81MOL   C36134121   0.111   6.692   5.603  0.1709 -1.1247  0.0813
   81MOL   C36234122   0.226   6.717   5.706 -0.2683  0.7130  1.0782
   81MOL   C36334123   0.368   6.697   5.649 -0.5594  0.5143 -0.6773
   81MOL   C36434124   0.207   6.608   5.810 -0.6310  0.2124 -0.2974
   81MOL   C36534125   0.209   6.846   5.786  0.2848 -0.5370  0.0707
   81MOL   H36634126   0.300   6.759   5.417 -0.5444 -0.0846  0.9364
   81MOL   H36734127   0.190   6.701   5.307 -1.5019  1.4796 -0.8814
   81MOL   H36834128   0.120   6.898   5.540  1.6069 -0.0324 -0.4810
   81MOL   H36934129   0.015   6.694   5.653  0.5311 -3.1616  0.8994
   81MOL   H37034130   0.119   6.592   5.561 -0.6537 -1.6175  1.0958
   81MOL   H37134131   0.440   6.675   5.727 -1.5061  0.0132  0.0652
   81MOL   H37234132   0.387   6.611   5.584  0.3050 -0.2217  0.5198
   81MOL   H37334133   0.413   6.784   5.600 -0.2758  0.4417 -0.5474
   81MOL   H37434134   0.106   6.616   5.850  0.1541 -1.4926  2.1027
   81MOL   H37534135   0.273   6.599   5.896 -0.5707 -0.3049 -0.3994
   81MOL   H37634136   0.221   6.515   5.756 -1.2236 -0.5171  0.7963
   81MOL   H37734137   0.113   6.869   5.833  0.0545  1.7738 -1.4171
   81MOL   H37834138   0.236   6.930   5.721  0.2348 -1.3844 -1.0575
   81MOL   H37934139   0.278   6.842   5.870 -0.7386 -0.5107  0.9215
   81MOL   C38034140   7.723   6.803   5.434  0.7882  0.0201  0.2590
   81MOL   C38134141   7.635   6.933   5.472 -0.4045  0.2688 -0.1291
   81MOL   C38234142   7.579   6.918   5.620 -0.6036  0.4969 -0.1040
   81MOL   C38334143   7.523   7.045   5.694  0.2970  0.3825 -0.7350
   81MOL   C38434144   7.494   6.997   5.837  0.0627  0.7985 -0.2878
   81MOL   C38534145   7.400   7.103   5.624  0.0995 -0.4635  0.1565
   81MOL   C38634146   7.636   7.156   5.705  0.2757 -0.4196 -0.6813
   81MOL   H38734147   7.659   6.719   5.461  1.4908  0.0951  2.2606
   81MOL   H38834148   7.728   6.816   5.326 -0.3070  0.3912  0.2473
   81MOL   H38934149   7.702   7.019   5.471  0.4972 -0.4289 -0.1225
   81MOL   H39034150   7.499   6.845   5.622 -1.3061  1.2580  0.0702
   81MOL   H39134151   7.654   6.879   5.688  0.9678  1.6661 -1.1014
   81MOL   H39234152   7.456   7.077   5.900 -3.5693 -1.0810  0.0144
   81MOL   H39334153   7.423   6.914   5.844  0.8537  0.1709  0.5634
   81MOL   H39434154   7.587   6.974   5.891 -0.4163 -1.3031 -0.3105
   81MOL   H39534155   7.352   7.009   5.599  1.0832 -1.2782  1.2934
   81MOL   H39634156   7.430   7.158   5.535 -0.2282 -0.5095  0.0186
   81MOL   H39734157   7.333   7.156   5.692  0.1539  0.2335 -0.3335
   81MOL   H39834158   7.584   7.245   5.741 -0.2634  0.6314 -3.8829
   81MOL   H39934159   7.679   7.177   5.608  2.4514 -0.8691  0.1571
   81MOL   H40034160   7.734   7.142   5.751  0.2218  0.0269 -0.4276
   81MOL   C40134161   7.539   6.974   5.357 -0.1043  0.0169  0.0120
   81MOL   C40234162   7.423   6.877   5.343  0.4512 -0.3036  0.6729
   81MOL   C40334163   7.328   6.919   5.229 -0.6135 -0.0028  0.6174
   81MOL   C40434164   7.187   6.847   5.222 -0.0806 -0.3594 -0.4050
   81MOL   C40534165   7.101   6.915   5.120  0.5075  0.2931  0.2452
   81MOL   C40634166   7.115   6.858   5.357  0.0348 -0.2025  0.5805
   81MOL   C40734167   7.196   6.699   5.182  0.5148 -0.1670  0.3149
   81MOL   H40834168   7.509   7.079   5.359 -0.2067 -0.0011 -0.6982
   81MOL   H40934169   7.592   6.967   5.262 -2.4946 -0.1535 -1.3428
   81MOL   H41034170   7.455   6.775   5.326 -0.0549 -0.3494 -0.0459
   81MOL   H41134171   7.376   6.909   5.132 -0.7424  0.0351  0.5476
   81MOL   H41234172   7.317   7.028   5.234 -1.5252 -0.0244 -0.6742
   81MOL   H41334173   7.101   7.023   5.134  2.3819  0.4660 -0.9801
   81MOL   H41434174   7.000   6.875   5.114 -0.1323  1.7313  0.9818
   81MOL   H41534175   7.145   6.898   5.022 -1.8383  1.0535 -0.9907
   81MOL   H41634176   7.132   6.962   5.387  0.7838  0.4383 -1.9634
   81MOL   H41734177   7.166   6.797   5.432 -2.6801 -1.5234  1.3864
   81MOL   H41834178   7.010   6.834   5.345  0.4955 -2.3721  0.8273
   81MOL   H41934179   7.250   6.676   5.090 -2.6754 -0.7088 -1.4810
   81MOL   H42034180   7.252   6.641   5.255  2.0356 -0.2524 -0.8761
   81MOL   H42134181   7.099   6.650   5.171  0.5678 -1.0972  3.5870
   81MOL   H42234182   7.376   6.883   5.441 -2.2750 -0.8276 -0.5429
   82MOL     C134183   1.845   5.873   4.417 -0.9825  0.0034  0.0269
   82MOL     C234184   1.935   5.749   4.435  0.6653 -0.1048  0.8956
   82MOL     C334185   1.882   5.618   4.367  0.1002  0.1476  0.4931
   82MOL     C434186   1.945   5.563   4.232  0.0061  0.3910 -0.7721
   82MOL     C534187   2.095   5.521   4.251  0.4954  0.0775 -0.0306
   82MOL     C634188   1.859   5.445   4.179 -0.2988  0.4592 -0.2919
   82MOL     C734189   1.930   5.670   4.126  0.4676  0.9984  0.1596
   82MOL     H834190   1.753   5.877   4.475 -1.0508  0.2333 -0.0961
   82MOL     H934191   1.895   5.969   4.433 -0.4422 -0.5793  1.9308
   82MOL    H1034192   2.029   5.770   4.385  1.5224 -1.8218  1.7351
   82MOL    H1134193   1.777   5.637   4.342  0.5633 -0.5090 -2.0375
   82MOL    H1234194   1.892   5.538   4.440  2.3401  0.1182  0.1828
   82MOL    H1334195   2.108   5.444   4.327 -1.2422  1.4637  1.7466
   82MOL    H1434196   2.154   5.601   4.296  0.7274 -0.5460  0.7875
   82MOL    H1534197   2.139   5.498   4.154  0.3996  0.2452 -0.1129
   82MOL    H1634198   1.755   5.477   4.169 -0.4886  0.1035  0.4905
   82MOL    H1734199   1.911   5.398   4.095 -2.0368  1.6151 -2.0586
   82MOL    H1834200   1.851   5.358   4.244 -0.3034 -0.3347 -1.3428
   82MOL    H1934201   1.829   5.704   4.107  0.7220  1.4071 -0.4741
   82MOL    H2034202   1.972   5.634   4.031  0.5834 -0.4300  0.7319
   82MOL    H2134203   2.001   5.752   4.140  1.2083  0.2687  0.7665
   82MOL    H2234204   1.802   5.893   4.319 -0.3432  0.1100 -0.2335
   82MOL    C2334205   1.944   5.733   4.585  0.0376 -0.6476 -0.0025
   82MOL    C2434206   2.048   5.823   4.656  0.2744 -0.1529  0.2897
   82MOL    C2534207   2.197   5.805   4.600  0.1399 -0.5597 -0.2524
   82MOL    C2634208   2.286   5.929   4.586  0.1344  0.1634 -0.9016
   82MOL    C2734209   2.239   6.028   4.478  0.6912  0.5510  0.5477
   82MOL    C2834210   2.304   6.005   4.723 -0.5545  0.0358 -0.1852
   82MOL    C2934211   2.424   5.875   4.543 -0.6953 -0.1001 -1.3760
   82MOL    H3034212   1.847   5.732   4.635 -0.8403  1.0629 -1.5969
   82MOL    H3134213   1.984   5.634   4.605 -0.4085 -0.6276  1.0321
   82MOL    H3234214   2.019   5.926   4.635 -2.7165 -1.2385 -1.2989
   82MOL    H3334215   2.198   5.762   4.500  0.8264  2.2512 -1.5168
   82MOL    H3434216   2.246   5.741   4.674  0.1042  1.3953  1.5152
   82MOL    H3534217   2.140   6.062   4.508  0.3463  0.2045 -0.2016
   82MOL    H3634218   2.308   6.111   4.458  2.5374 -0.7202  1.5128
   82MOL    H3734219   2.223   5.973   4.386  2.1886  0.7291  0.1682
   82MOL    H3834220   2.359   5.946   4.796 -1.6428  0.3422  0.8905
   82MOL    H3934221   2.372   6.089   4.713  0.4521 -0.5140  1.8937
   82MOL    H4034222   2.213   6.049   4.764  0.6680  1.1605  1.3727
   82MOL    H4134223   2.435   5.819   4.450 -2.1451 -4.3388  0.8801
   82MOL    H4234224   2.466   5.821   4.627  2.2966  0.5063 -2.4122
   82MOL    H4334225   2.495   5.957   4.525 -0.7406 -0.1005 -1.5673
   82MOL    C4434226   2.044   5.801   4.804  0.1420 -0.6736 -1.0168
   82MOL    C4534227   1.927   5.844   4.895  0.2088 -0.1977 -0.1477
   82MOL    C4634228   1.912   6.003   4.890  0.0503  0.0014  0.4037
   82MOL    C4734229   1.768   6.060   4.870  0.4077 -0.4598  0.3898
   82MOL    C4834230   1.681   6.034   4.991  0.6044 -0.3905  0.1721
   82MOL    C4934231   1.699   6.006   4.738 -0.2985  0.0449  0.5346
   82MOL    C5034232   1.778   6.212   4.855  0.1557  0.4093  0.6794
   82MOL    H5134233   2.063   5.695   4.823 -3.8770 -1.3360 -0.2714
   82MOL    H5234234   2.129   5.850   4.852 -0.1946 -0.7453 -0.3318
   82MOL    H5334235   1.846   5.786   4.850 -0.2479  0.8521 -0.7005
   82MOL    H5434236   1.968   6.041   4.805  0.5997 -0.3542  0.6084
   82MOL    H5534237   1.958   6.044   4.980  0.9361 -0.6725  0.2593
   82MOL    H5634238   1.576   6.060   4.981  0.1467 -1.6444  1.6053
   82MOL    H5734239   1.722   6.088   5.076  1.5544  1.4732 -1.4300
   82MOL    H5834240   1.680   5.930   5.023 -0.9025 -0.2629  0.5574
   82MOL    H5934241   1.760   6.009   4.648 -0.5334  0.4949  0.3849
   82MOL    H6034242   1.684   5.900   4.758  0.2773  0.0226  0.8635
   82MOL    H6134243   1.602   6.051   4.716 -1.2165 -1.4727  1.3282
   82MOL    H6234244   1.848   6.262   4.920  1.6161 -0.5894 -0.1016
   82MOL    H6334245   1.815   6.241   4.757 -1.0158  1.2037  0.4556
   82MOL    H6434246   1.679   6.257   4.866  1.0941  3.0537 -1.1945
   82MOL    C6534247   1.946   5.797   5.042  0.1351  0.1456 -0.0951
   82MOL    C6634248   1.944   5.647   5.076 -0.2974  0.0344  0.3677
   82MOL    C6734249   1.799   5.597   5.060 -0.3370 -0.6494  0.0278
   82MOL    C6834250   1.776   5.471   4.979  0.0953 -0.0135 -0.0592
   82MOL    C6934251   1.812   5.479   4.834  0.2434  0.1052 -0.1883
   82MOL    C7034252   1.848   5.344   5.036  0.3833  0.0336 -0.1296
   82MOL    C7134253   1.623   5.447   4.986 -0.3315 -0.5061  0.3291
   82MOL    H7234254   2.047   5.831   5.064  1.3696 -2.2134 -1.8387
   82MOL    H7334255   1.871   5.846   5.104  0.2759  0.8292 -0.4651
   82MOL    H7434256   2.020   5.598   5.014 -0.0322  3.6685 -2.3588
   82MOL    H7534257   1.747   5.679   5.010 -1.8944 -0.6895  1.5400
   82MOL    H7634258   1.749   5.599   5.157  0.3595 -1.3102  0.4063
   82MOL    H7734259   1.794   5.389   4.775 -1.5744 -1.6849  2.9812
   82MOL    H7834260   1.770   5.568   4.787 -0.4115  0.3183  0.7965
   82MOL    H7934261   1.919   5.490   4.819  0.4441  0.7575  1.6553
   82MOL    H8034262   1.955   5.364   5.027  0.6571 -1.8181 -1.2097
   82MOL    H8134263   1.820   5.251   4.988  1.2207  0.3761 -1.3245
   82MOL    H8234264   1.823   5.341   5.142  2.1799 -0.8749  0.2847
   82MOL    H8334265   1.578   5.430   5.084  0.0593  0.9668  0.7785
   82MOL    H8434266   1.585   5.366   4.924 -0.1452 -1.6805  1.7128
   82MOL    H8534267   1.567   5.536   4.955  0.6914 -0.3103 -0.9896
   82MOL    C8634268   1.984   5.627   5.225  0.3753  0.7177  0.0995
   82MOL    C8734269   2.141   5.624   5.244 -0.6559 -0.2867  0.3809
   82MOL    C8834270   2.200   5.489   5.198 -0.1748  0.0516 -0.1763
   82MOL    C8934271   2.322   5.501   5.095  0.8122  0.6137  0.0579
   82MOL    C9034272   2.279   5.546   4.956  0.0905 -0.1723 -0.2189
   82MOL    C9134273   2.384   5.354   5.066  0.3788 -0.0694 -0.3131
   82MOL    C9234274   2.440   5.594   5.138 -0.5422 -0.0974  0.3532
   82MOL    H9334275   1.950   5.532   5.266 -0.7963  0.9941 -0.2110
   82MOL    H9434276   1.930   5.698   5.288 -0.4333  0.9539 -0.8390
   82MOL    H9534277   2.176   5.709   5.185 -0.1945 -0.6748  0.0939
   82MOL    H9634278   2.121   5.428   5.153  0.4934 -0.0767 -1.1932
   82MOL    H9734279   2.211   5.430   5.289  0.2278  1.7834  0.9165
   82MOL    H9834280   2.199   5.488   4.908  1.0428 -1.9359  0.2954
   82MOL    H9934281   2.357   5.533   4.882  1.1521 -1.6353  1.1338
   82MOL   H10034282   2.255   5.653   4.958 -0.1597 -0.2339  0.2822
   82MOL   H10134283   2.466   5.345   4.995 -0.0725 -0.6422 -0.7598
   82MOL   H10234284   2.424   5.310   5.158 -0.1291 -1.2292 -0.6457
   82MOL   H10334285   2.311   5.297   5.009 -0.7421  1.1376 -0.1155
   82MOL   H10434286   2.493   5.571   5.230  0.5965 -2.7072 -0.8994
   82MOL   H10534287   2.510   5.587   5.054  1.0885 -0.9327  1.7454
   82MOL   H10634288   2.408   5.698   5.147  1.5102  0.6908 -1.0895
   82MOL   C10734289   2.162   5.651   5.396 -0.1005 -0.0274 -0.1212
   82MOL   C10834290   2.304   5.677   5.454 -0.6742  0.0674 -0.2101
   82MOL   C10934291   2.350   5.816   5.425 -0.4763 -0.7750  0.1694
   82MOL   C11034292   2.502   5.854   5.451  0.2479 -0.1213  1.0057
   82MOL   C11134293   2.605   5.744   5.410 -0.3215  0.5442  0.3615
   82MOL   C11234294   2.520   5.907   5.593 -0.0637 -0.2049  0.4781
   82MOL   C11334295   2.538   5.980   5.352  0.7943 -0.4984  0.9214
   82MOL   H11434296   2.107   5.569   5.443  1.0084 -1.4818 -1.3109
   82MOL   H11534297   2.108   5.738   5.433  0.0122  0.6559 -1.5411
   82MOL   H11634298   2.371   5.604   5.410 -1.1614 -1.6034  1.7192
   82MOL   H11734299   2.314   5.839   5.325  0.4967  1.3354  0.2896
   82MOL   H11834300   2.297   5.884   5.490  0.2428  0.7772 -0.8415
   82MOL   H11934301   2.582   5.655   5.469  1.6456  2.2582  3.8559
   82MOL   H12034302   2.611   5.733   5.301 -0.4608 -1.0070  0.4996
   82MOL   H12134303   2.705   5.768   5.447  0.0874 -0.7556  0.1060
   82MOL   H12234304   2.510   6.015   5.590  2.5997  0.0538  0.4747
   82MOL   H12334305   2.615   5.887   5.641 -0.2379 -0.2074  0.8267
   82MOL   H12434306   2.441   5.882   5.664 -1.0645  1.7609  0.0842
   82MOL   H12534307   2.474   6.066   5.374  2.7183  1.3123 -0.5018
   82MOL   H12634308   2.526   5.949   5.248 -4.4455 -0.4782  1.3891
   82MOL   H12734309   2.640   6.013   5.370  0.0357  1.3549  1.9183
   82MOL   C12834310   2.306   5.651   5.606 -0.2616  0.2843 -0.3904
   82MOL   C12934311   2.295   5.493   5.635  0.1027 -0.0596 -0.3843
   82MOL   C13034312   2.442   5.433   5.644 -0.1003 -0.0330 -0.0226
   82MOL   C13134313   2.461   5.283   5.599  0.1716  0.1752  0.1999
   82MOL   C13234314   2.382   5.179   5.688  0.3656 -0.1908  0.5125
   82MOL   C13334315   2.612   5.254   5.628  0.2728  0.3793  0.2864
   82MOL   C13434316   2.421   5.260   5.449 -0.3769 -0.1660 -0.6162
   82MOL   H13534317   2.228   5.701   5.662 -1.3196  0.9666 -2.4506
   82MOL   H13634318   2.401   5.683   5.649 -0.7093 -0.0379  0.8732
   82MOL   H13734319   2.235   5.431   5.568  1.6228 -0.1283 -1.6983
   82MOL   H13834320   2.509   5.503   5.593  0.3825  1.3212  2.3720
   82MOL   H13934321   2.463   5.448   5.750  0.7176 -0.6181 -0.0987
   82MOL   H14034322   2.289   5.229   5.717  0.9148  1.1550 -0.0046
   82MOL   H14134323   2.442   5.172   5.779  1.2160  0.9993  0.0551
   82MOL   H14234324   2.366   5.077   5.655 -0.5137 -0.6443  2.3166
   82MOL   H14334325   2.639   5.310   5.718 -2.3377  0.5004  1.0256
   82MOL   H14434326   2.671   5.288   5.543  2.8192  0.5502  2.0722
   82MOL   H14534327   2.629   5.151   5.657  1.8850  0.3689 -0.6522
   82MOL   H14634328   2.443   5.158   5.417  0.8192  0.0629 -0.5210
   82MOL   H14734329   2.318   5.289   5.429  0.1845  1.2797 -1.5048
   82MOL   H14834330   2.485   5.315   5.380 -0.5994 -0.0588 -0.7371
   82MOL   C14934331   2.226   5.499   5.779 -0.0219  0.1379  0.2149
   82MOL   C15034332   2.070   5.518   5.767  0.3499 -0.2632  0.0811
   82MOL   C15134333   2.008   5.378   5.723 -0.7913  0.1755 -0.4167
   82MOL   C15234334   1.856   5.376   5.666  0.1553  0.5847  0.3041
   82MOL   C15334335   1.754   5.429   5.764 -0.0170 -0.3385  0.2436
   82MOL   C15434336   1.819   5.230   5.628 -0.0157 -0.7345  0.3128
   82MOL   C15534337   1.845   5.467   5.537  0.1795 -0.4830 -0.6230
   82MOL   H15634338   2.265   5.586   5.832  1.8139  0.8361 -2.2165
   82MOL   H15734339   2.249   5.411   5.838  0.9644  2.0972  2.8870
   82MOL   H15834340   2.049   5.595   5.693  1.0699  1.6903  1.8801
   82MOL   H15934341   2.014   5.316   5.813  0.7024 -1.1293 -1.3813
   82MOL   H16034342   2.074   5.329   5.652 -1.9419 -2.1242  0.0366
   82MOL   H16134343   1.651   5.406   5.736 -0.2417 -0.3795  1.1094
   82MOL   H16234344   1.769   5.383   5.862  0.9281 -2.0267 -0.6642
   82MOL   H16334345   1.761   5.538   5.771 -0.0914 -0.2374 -1.0108
   82MOL   H16434346   1.728   5.237   5.568 -0.1223 -0.8630  0.4610
   82MOL   H16534347   1.792   5.176   5.719  0.5451  1.0977  1.5980
   82MOL   H16634348   1.887   5.170   5.568 -1.1670 -0.7103 -1.0296
   82MOL   H16734349   1.743   5.477   5.502  0.8365  0.8111 -2.2453
   82MOL   H16834350   1.880   5.568   5.557 -1.1842 -0.3392  1.1904
   82MOL   H16934351   1.902   5.421   5.457 -0.0829 -1.8749 -0.0278
   82MOL   C17034352   2.016   5.577   5.902  0.2440  0.2275  0.3357
   82MOL   C17134353   2.026   5.733   5.902  0.3648  0.0019 -0.3064
   82MOL   C17234354   2.047   5.779   6.042  0.6265  1.3456 -1.1659
   82MOL   C17334355   2.185   5.778   6.109  0.0658 -0.3138  0.3279
   82MOL   C17434356   2.167   5.862   6.235 -0.2259 -0.3872 -0.1172
   82MOL   C17534357   2.288   5.852   6.026  0.0448  0.5873  0.2170
   82MOL   C17634358   2.240   5.644   6.144 -0.0778 -0.4932  0.2069
   82MOL   H17734359   2.059   5.527   5.989  0.5529  3.1080  1.9072
   82MOL   H17834360   1.913   5.553   5.928  0.0370 -0.3720 -0.9918
   82MOL   H17934361   2.115   5.757   5.843  1.3581  1.3053  1.6953
   82MOL   H18034362   2.001   5.877   6.050 -1.9411 -0.0022  1.2359
   82MOL   H18134363   1.989   5.705   6.097  0.1393  0.3039 -3.0013
   82MOL   H18234364   2.255   5.853   6.298 -0.7526 -1.6136  0.4620
   82MOL   H18334365   2.159   5.968   6.212 -1.5144 -0.4173  0.1324
   82MOL   H18434366   2.074   5.849   6.290 -1.3346  1.5447 -1.4684
   82MOL   H18534367   2.310   5.802   5.932  0.3527  0.1471  0.5206
   82MOL   H18634368   2.246   5.949   6.001  1.5324  1.0479 -0.5449
   82MOL   H18734369   2.374   5.866   6.092 -0.5106  0.8934  0.8819
   82MOL   H18834370   2.176   5.569   6.191 -0.3363 -1.0542 -1.0099
   82MOL   H18934371   2.277   5.599   6.051  0.7159  1.0132 -0.2200
   82MOL   H19034372   2.333   5.650   6.201  0.0355  1.7799 -0.1893
   82MOL   C19134373   1.901   5.802   5.833 -0.2192  0.4185  0.3395
   82MOL   C19234374   1.905   5.957   5.804  0.3070 -0.0500 -0.0112
   82MOL   C19334375   1.769   5.998   5.736 -0.6653  0.6600  0.6859
   82MOL   C19434376   1.648   6.049   5.828 -0.2108  0.5506  0.6087
   82MOL   C19534377   1.584   5.929   5.902 -0.8541  0.2283  0.6182
   82MOL   C19634378   1.550   6.107   5.727  0.0314  0.5686  0.3309
   82MOL   C19734379   1.695   6.152   5.926 -0.4874  0.1036 -0.3188
   82MOL   H19834380   1.870   5.754   5.740  0.3079 -1.9548  1.3642
   82MOL   H19934381   1.827   5.785   5.911  0.2616 -1.4776  0.4069
   82MOL   H20034382   1.923   6.016   5.894  0.3449 -0.3726  0.1965
   82MOL   H20134383   1.736   5.917   5.671  0.3711  2.2081 -1.8392
   82MOL   H20234384   1.785   6.076   5.662  3.3900  0.4809  1.2733
   82MOL   H20334385   1.548   5.846   5.840  1.2710 -1.0962  1.0918
   82MOL   H20434386   1.653   5.898   5.980  0.9350  0.7043 -0.7519
   82MOL   H20534387   1.493   5.961   5.953 -0.5221 -0.3072  1.5756
   82MOL   H20634388   1.452   6.133   5.768  0.3928  2.0295  0.2754
   82MOL   H20734389   1.590   6.200   5.687 -0.2547 -0.1354 -1.6436
   82MOL   H20834390   1.528   6.043   5.641 -1.1913 -0.8197  1.6328
   82MOL   H20934391   1.619   6.218   5.965 -0.1166  1.2566 -1.5061
   82MOL   H21034392   1.745   6.109   6.013 -0.5997  0.0370 -0.2874
   82MOL   H21134393   1.764   6.221   5.878 -1.5102  2.2355  1.2143
   82MOL   C21234394   2.027   5.989   5.715  0.7037 -0.4296  0.7306
   82MOL   C21334395   2.050   6.143   5.682 -0.3507  0.0095  0.3727
   82MOL   C21434396   2.113   6.165   5.547  0.3395  0.2360 -0.5179
   82MOL   C21534397   2.027   6.157   5.415  0.0123 -0.2682 -0.9838
   82MOL   C21634398   2.120   6.167   5.293  0.4270  0.0691 -0.5512
   82MOL   C21734399   1.962   6.023   5.403 -0.2982  0.2808  0.1877
   82MOL   C21834400   1.918   6.274   5.402  0.4856 -0.5982 -0.1766
   82MOL   H21934401   2.118   5.954   5.764  0.6907 -1.7258 -0.1402
   82MOL   H22034402   2.028   5.934   5.621 -1.9912  2.9979 -1.4097
   82MOL   H22134403   1.950   6.187   5.676 -0.4448 -0.2635 -0.0455
   82MOL   H22234404   2.210   6.115   5.544 -0.1214 -0.6257 -1.4541
   82MOL   H22334405   2.139   6.270   5.541  1.1165  0.0595 -0.2897
   82MOL   H22434406   2.151   6.265   5.259  0.6405  0.5990  1.1396
   82MOL   H22534407   2.074   6.121   5.205 -0.8984  0.7120 -0.2132
   82MOL   H22634408   2.205   6.103   5.315 -0.4613 -1.5493 -1.6517
   82MOL   H22734409   1.922   6.002   5.303  0.3059 -1.9506  0.3872
   82MOL   H22834410   2.030   5.939   5.416  0.4276  0.8225 -0.1148
   82MOL   H22934411   1.886   6.004   5.479  2.0252  0.7815  2.6859
   82MOL   H23034412   1.860   6.259   5.311 -0.8793 -1.2707  0.7917
   82MOL   H23134413   1.970   6.368   5.383  1.7489 -1.3776 -0.7017
   82MOL   H23234414   1.843   6.286   5.480 -1.0724  0.1388 -1.7397
   82MOL   C23334415   2.122   6.226   5.790 -0.3524  0.2923 -0.0598
   82MOL   C23434416   2.046   6.356   5.840  0.3891  0.5478 -0.2255
   82MOL   C23534417   2.110   6.418   5.970 -0.0580 -0.1286  0.4903
   82MOL   C23634418   2.039   6.387   6.107  0.0977 -0.1942  0.1148
   82MOL   C23734419   1.905   6.453   6.124  0.1187  0.1736 -0.1291
   82MOL   C23834420   2.039   6.235   6.126  0.5967 -0.7818 -0.8448
   82MOL   C23934421   2.124   6.463   6.208 -0.2942 -0.0073  0.0925
   82MOL   H24034422   2.225   6.249   5.761  0.4347  0.3412  2.6275
   82MOL   H24134423   2.156   6.159   5.869  1.2363  0.9636 -0.1546
   82MOL   H24234424   1.944   6.320   5.857  1.4121 -2.1341  0.3809
   82MOL   H24334425   2.211   6.376   5.977 -1.1137 -2.6724  1.2843
   82MOL   H24434426   2.113   6.526   5.962  2.9637  0.1166  3.4879
   82MOL   H24534427   1.867   6.425   6.222  0.1424 -0.9812 -0.4330
   82MOL   H24634428   1.838   6.393   6.061  0.5654 -1.1628  0.6635
   82MOL   H24734429   1.903   6.560   6.106  0.5759 -0.4039 -4.2201
   82MOL   H24834430   1.949   6.197   6.077 -0.7678 -0.5403  1.3833
   82MOL   H24934431   2.129   6.195   6.079  0.6971  0.4512 -1.7108
   82MOL   H25034432   2.049   6.203   6.230 -0.5296  1.3070 -0.0504
   82MOL   H25134433   2.136   6.569   6.185 -2.8206  0.0813 -0.9251
   82MOL   H25234434   2.094   6.459   6.313 -0.0585  0.7713  0.1996
   82MOL   H25334435   2.226   6.426   6.202 -0.7006 -1.1630  0.2835
   82MOL   C25434436   2.039   6.463   5.728 -0.3748  0.8011 -0.0862
   82MOL   C25534437   1.939   6.574   5.762  0.3820  0.3649 -0.3787
   82MOL   C25634438   1.800   6.537   5.715 -0.0043 -0.1513  0.1826
   82MOL   C25734439   1.675   6.627   5.741  0.3778 -0.2980  0.1252
   82MOL   C25834440   1.640   6.744   5.649 -0.2704 -0.4438 -0.1767
   82MOL   C25934441   1.667   6.677   5.888 -0.5221  0.4369  0.0239
   82MOL   C26034442   1.559   6.528   5.718 -0.2208 -0.4878  0.0704
   82MOL   H26134443   2.015   6.421   5.630  0.1194 -1.8039  0.8692
   82MOL   H26234444   2.144   6.489   5.715  0.1860 -2.0881 -1.8459
   82MOL   H26334445   1.930   6.579   5.870 -0.4279  1.9016 -0.5084
   82MOL   H26434446   1.801   6.535   5.606  0.4002  0.8446  0.1652
   82MOL   H26534447   1.785   6.430   5.733 -0.7828  0.1060  1.1191
   82MOL   H26634448   1.700   6.833   5.668 -0.2761 -0.5587  0.4031
   82MOL   H26734449   1.537   6.778   5.644  0.0550  0.2639 -2.5321
   82MOL   H26834450   1.652   6.718   5.544  1.2228 -2.0430  0.3604
   82MOL   H26934451   1.568   6.724   5.894 -0.3511  0.5962  1.8599
   82MOL   H27034452   1.747   6.746   5.914 -1.1614  1.5352 -0.8583
   82MOL   H27134453   1.683   6.592   5.954  2.5738 -0.8539 -2.2900
   82MOL   H27234454   1.546   6.445   5.788  1.5786 -1.1381 -0.3353
   82MOL   H27334455   1.461   6.576   5.710 -0.2169 -0.2699  1.1599
   82MOL   H27434456   1.583   6.486   5.620  0.3805  1.3896 -0.5918
   82MOL   C27534457   1.982   6.705   5.697 -0.4491 -0.3567 -0.2804
   82MOL   C27634458   2.115   6.768   5.740  0.7545 -0.1583  0.0357
   82MOL   C27734459   2.154   6.866   5.620  0.3829 -0.0447 -1.1416
   82MOL   C27834460   2.201   6.813   5.478  0.2899  0.1678 -0.0306
   82MOL   C27934461   2.100   6.771   5.368  0.1021 -0.2039 -0.1723
   82MOL   C28034462   2.271   6.935   5.408  0.1333 -0.3056 -0.3990
   82MOL   C28134463   2.292   6.691   5.500  0.0337 -0.2074 -0.1152
   82MOL   H28234464   1.986   6.696   5.589  0.8882  2.1238 -0.4625
   82MOL   H28334465   1.901   6.777   5.706  0.0390  0.1683 -0.1258
   82MOL   H28434466   2.192   6.697   5.771 -0.7580 -1.0781  1.7696
   82MOL   H28534467   2.238   6.927   5.654 -1.3470  1.5954  0.3387
   82MOL   H28634468   2.068   6.932   5.608 -1.4408 -1.9912  0.9984
   82MOL   H28734469   2.142   6.761   5.268  1.3934 -0.3160  0.3785
   82MOL   H28834470   2.054   6.678   5.402  0.5315 -0.0497  0.8533
   82MOL   H28934471   2.018   6.841   5.355  1.8108  2.0662  0.8401
   82MOL   H29034472   2.311   6.900   5.313  0.1155  3.3478 -1.8529
   82MOL   H29134473   2.356   6.966   5.468 -1.5710  0.5252  1.6734
   82MOL   H29234474   2.215   7.027   5.388 -0.7541 -0.3332  1.7957
   82MOL   H29334475   2.247   6.594   5.521  0.5091 -0.3730  0.1497
   82MOL   H29434476   2.360   6.705   5.584  1.9318 -0.6261 -1.5498
   82MOL   H29534477   2.356   6.680   5.413  0.2258 -0.2174  0.0252
   82MOL   C29634478   2.092   6.855   5.867 -0.2127 -0.2006 -0.6217
   82MOL   C29734479   2.218   6.917   5.932 -0.2535 -0.2415  0.0304
   82MOL   C29834480   2.309   6.820   6.013  0.6811  0.5428  0.4076
   82MOL   C29934481   2.461   6.831   5.970 -0.1573 -0.4325 -0.2965
   82MOL   C30034482   2.532   6.718   6.059  0.0441 -0.4811 -0.1511
   82MOL   C30134483   2.482   6.807   5.823  0.3592 -0.1179 -0.0414
   82MOL   C30234484   2.522   6.968   6.003  0.4525  0.1646 -0.3395
   82MOL   H30334485   2.052   6.793   5.949 -0.6251 -0.0372 -0.6964
   82MOL   H30434486   2.013   6.922   5.835 -0.2436  0.0785  0.0288
   82MOL   H30534487   2.282   6.964   5.857  0.5857  2.3478  2.2539
   82MOL   H30634488   2.281   6.715   6.008 -1.6572  1.2033 -1.2021
   82MOL   H30734489   2.299   6.832   6.121 -0.1084 -1.0261  0.5184
   82MOL   H30834490   2.540   6.732   6.166  0.2567 -1.6372  0.0002
   82MOL   H30934491   2.481   6.624   6.036 -1.2384 -0.8143  3.7511
   82MOL   H31034492   2.630   6.700   6.013  0.1757  1.3416 -0.5962
   82MOL   H31134493   2.439   6.888   5.764 -1.8902 -0.2160  1.3935
   82MOL   H31234494   2.588   6.808   5.800  0.3850 -0.6306  0.0296
   82MOL   H31334495   2.428   6.715   5.797  0.8304 -0.2133 -0.7120
   82MOL   H31434496   2.444   7.043   5.992 -0.8648 -1.4225 -2.1028
   82MOL   H31534497   2.536   6.983   6.110  0.3176 -0.2902 -0.2576
   82MOL   H31634498   2.615   6.989   5.951 -0.8440 -0.8454 -3.1968
   82MOL   C31734499   2.178   7.039   6.023  0.0108  0.3195 -0.2940
   82MOL   C31834500   2.111   7.175   5.968  0.4106  0.0263 -0.8319
   82MOL   C31934501   2.081   7.275   6.079 -0.0516 -0.1394  0.9033
   82MOL   C32034502   1.947   7.262   6.158 -0.5958  0.0417  0.2183
   82MOL   C32134503   1.910   7.121   6.203 -0.3560 -0.4732  0.8000
   82MOL   C32234504   1.831   7.317   6.071  0.2565  0.3063  0.0038
   82MOL   C32334505   1.955   7.360   6.280 -0.5010  0.1716  0.7335
   82MOL   H32434506   2.107   6.994   6.092 -1.0832  1.6137 -0.5426
   82MOL   H32534507   2.252   7.062   6.100 -0.3968  1.5781 -0.2529
   82MOL   H32634508   2.017   7.154   5.918 -0.6541  2.5267  0.0551
   82MOL   H32734509   2.099   7.379   6.053 -1.3520 -0.0055  0.5366
   82MOL   H32834510   2.152   7.263   6.161 -1.8984 -2.2675  2.2720
   82MOL   H32934511   1.892   7.065   6.112  0.1900 -0.5460  0.7372
   82MOL   H33034512   1.822   7.118   6.267 -0.9472 -0.0045  0.0241
   82MOL   H33134513   1.990   7.080   6.264  0.9771  0.1956 -0.4698
   82MOL   H33234514   1.820   7.252   5.984 -1.2847  0.8844 -0.2480
   82MOL   H33334515   1.738   7.295   6.122 -0.1511  0.3238 -0.7213
   82MOL   H33434516   1.827   7.419   6.033  2.9322 -0.2255 -1.8636
   82MOL   H33534517   1.879   7.343   6.356 -1.6041  0.6515 -0.2412
   82MOL   H33634518   1.954   7.468   6.265 -4.4419 -0.0527 -1.3468
   82MOL   H33734519   2.051   7.344   6.328  0.0166  1.2895  0.0733
   82MOL   C33834520   2.205   7.243   5.870 -0.0261 -0.8417 -0.6811
   82MOL   C33934521   2.138   7.351   5.781  0.3825 -0.4028  0.0648
   82MOL   C34034522   2.077   7.293   5.657  0.2841 -0.2041 -0.1030
   82MOL   C34134523   1.952   7.364   5.584  0.5603  0.5153 -0.4755
   82MOL   C34234524   1.928   7.298   5.441  0.4483 -0.2758 -0.1272
   82MOL   C34334525   1.821   7.352   5.669 -0.0289  0.7783 -0.0514
   82MOL   C34434526   1.986   7.513   5.554 -0.0063 -0.8185 -0.0046
   82MOL   H34534527   2.255   7.182   5.794 -0.6985  0.8655 -2.5391
   82MOL   H34634528   2.287   7.284   5.929 -0.1476 -2.8825  1.0075
   82MOL   H34734529   2.064   7.409   5.837  0.8875  0.0314  0.2821
   82MOL   H34834530   2.048   7.192   5.684  0.7831  0.1405  1.8387
   82MOL   H34934531   2.155   7.290   5.581 -0.1734  1.8493 -0.6948
   82MOL   H35034532   1.905   7.192   5.450  3.2798 -1.2646 -3.4887
   82MOL   H35134533   1.857   7.348   5.376  0.5199 -2.3627 -1.8481
   82MOL   H35234534   2.016   7.306   5.377  0.2287 -0.3508 -0.4351
   82MOL   H35334535   1.746   7.399   5.607 -0.0105  2.4228  1.1383
   82MOL   H35434536   1.794   7.247   5.675 -0.0149  0.7138 -1.0484
   82MOL   H35534537   1.814   7.407   5.763 -0.3074 -0.6499  0.7743
   82MOL   H35634538   1.985   7.565   5.650 -1.0535 -2.0662  0.6816
   82MOL   H35734539   2.080   7.523   5.500  1.2226 -2.7116  1.7271
   82MOL   H35834540   1.911   7.556   5.487  3.5974  3.9371 -1.2581
   82MOL   C35934541   2.238   7.466   5.751 -0.0093  0.1229  0.4586
   82MOL   C36034542   2.277   7.564   5.870  0.1732 -0.5125  0.1746
   82MOL   C36134543   2.163   7.650   5.937 -0.1306 -0.3796  0.0534
   82MOL   C36234544   2.184   7.720   6.069 -0.3209 -0.1834 -0.1037
   82MOL   C36334545   2.242   0.094   6.057 -0.0958  0.0222  0.4143
   82MOL   C36434546   2.272   7.632   6.166 -0.6422  0.1803 -0.4466
   82MOL   C36534547   2.045   7.737   6.135  1.1174 -1.1704 -0.0713
   82MOL   H36634548   2.208   7.532   5.669  1.4839  0.0184 -0.2034
   82MOL   H36734549   2.318   7.406   5.706  0.6867 -0.0019  1.8377
   82MOL   H36834550   2.308   7.499   5.953  0.7552 -2.1818 -1.3108
   82MOL   H36934551   2.144   7.732   5.868 -1.0012  0.1141  0.8540
   82MOL   H37034552   2.077   7.584   5.949  1.2178 -1.9512  1.1505
   82MOL   H37134553   2.324   0.101   5.986 -1.8586  2.1610 -1.4740
   82MOL   H37234554   2.163   0.147   6.003  2.1726 -0.3314 -3.4014
   82MOL   H37334555   2.260   0.134   6.157 -0.2902  1.2702 -0.0508
   82MOL   H37434556   2.242   7.527   6.170 -0.2238  0.1511  4.0939
   82MOL   H37534557   2.287   7.670   6.267 -1.2790  2.7568 -1.2836
   82MOL   H37634558   2.369   7.635   6.117 -0.0889  1.4857  0.6992
   82MOL   H37734559   2.064   0.013   6.234 -0.8296  1.7236 -0.8337
   82MOL   H37834560   1.988   7.645   6.145  1.5800 -1.3812  0.5924
   82MOL   H37934561   1.983   0.045   6.083 -0.2336 -2.2812 -0.0821
   82MOL   C38034562   2.406   7.641   5.832  0.2936 -0.4265 -0.4714
   82MOL   C38134563   2.534   7.550   5.797  0.0306  0.5696  0.1919
   82MOL   C38234564   2.602   7.483   5.918 -0.2989  0.0472  0.4450
   82MOL   C38334565   2.726   7.383   5.915 -0.2311 -0.4555  0.0736
   82MOL   C38434566   2.864   7.455   5.899  0.4813  0.2876 -0.3075
   82MOL   C38534567   2.718   7.275   5.802 -0.0279 -0.1733 -0.5116
   82MOL   C38634568   2.725   7.307   6.044  0.3705  0.0494  0.4257
   82MOL   H38734569   2.434   7.701   5.919 -0.9820  0.0075 -0.3503
   82MOL   H38834570   2.382   7.712   5.752 -2.1774  0.5517  1.0717
   82MOL   H38934571   2.501   7.469   5.731 -2.0918  2.3485 -0.9994
   82MOL   H39034572   2.635   7.560   5.988 -3.6982  1.9547  0.0279
   82MOL   H39134573   2.524   7.428   5.971  1.5274 -2.0863  0.9685
   82MOL   H39234574   2.951   7.390   5.901  0.4194  0.1865 -0.8259
   82MOL   H39334575   2.872   7.492   5.796  1.9582  1.8696  0.3512
   82MOL   H39434576   2.897   7.530   5.971  0.5103 -1.4412  1.4893
   82MOL   H39534577   2.703   7.312   5.701  0.4503  1.2698 -0.0748
   82MOL   H39634578   2.628   7.219   5.827 -0.4794  0.5334 -0.5376
   82MOL   H39734579   2.804   7.207   5.797  0.1240  0.0880 -1.6712
   82MOL   H39834580   2.708   7.362   6.137 -0.9709 -0.1130  0.2878
   82MOL   H39934581   2.818   7.260   6.076 -0.8235 -3.5264 -1.0411
   82MOL   H40034582   2.646   7.232   6.035  0.2984  0.2886 -0.9239
   82MOL   C40134583   2.639   7.628   5.702 -0.0244 -0.0098 -0.7241
   82MOL   C40234584   2.713   7.750   5.767  0.1513  0.4229  0.2090
   82MOL   C40334585   2.828   0.034   5.685  0.5270  0.2874  0.4837
   82MOL   C40434586   2.897   0.162   5.731  0.5333  0.0195 -0.4300
   82MOL   C40534587   2.942   0.147   5.873 -0.2253  0.0114 -0.3340
   82MOL   C40634588   2.818   0.290   5.719 -0.4186 -0.2089  0.1902
   82MOL   C40734589   3.028   0.171   5.644 -0.5635  0.6529 -0.4863
   82MOL   H40834590   2.708   7.563   5.648 -1.1250 -1.1826 -0.7421
   82MOL   H40934591   2.586   7.666   5.615 -0.6235  0.4003 -0.1920
   82MOL   H41034592   2.637   0.062   5.777 -2.1685 -1.4258 -2.3982
   82MOL   H41134593   2.801   0.054   5.581 -0.5042  1.8522  1.0352
   82MOL   H41234594   2.904   7.723   5.686  2.3655  2.0347 -0.6833
   82MOL   H41334595   3.007   0.232   5.892 -0.5015 -0.3236  2.2430
   82MOL   H41434596   2.992   0.050   5.881 -1.3635 -0.5299  0.3614
   82MOL   H41534597   2.864   0.151   5.948  2.3721  1.4836  2.3699
   82MOL   H41634598   2.873   0.381   5.739  1.3928 -1.4525  0.9100
   82MOL   H41734599   2.728   0.282   5.781 -0.7092  0.0819 -0.1923
   82MOL   H41834600   2.787   0.308   5.616  2.2016 -2.4968 -1.0610
   82MOL   H41934601   3.089   0.256   5.675  1.0155 -0.9334  0.8058
   82MOL   H42034602   3.086   0.080   5.654 -0.5550  0.4486 -2.3228
   82MOL   H42134603   3.024   0.197   5.538  3.0960  2.5819 -0.2373
   82MOL   H42234604   2.759   7.726   5.863 -0.1094 -1.6748 -0.1667
   83MOL     C134605   1.865   3.633   7.743 -0.2677 -0.0386  0.4880
   83MOL     C234606   1.901   3.569   7.603  0.2347 -0.9897 -0.8529
   83MOL     C334607   2.052   3.506   7.605  0.0230 -0.2560  0.5878
   83MOL     C434608   2.075   3.362   7.656  0.3891 -0.0165 -0.6934
   83MOL     C534609   2.225   3.341   7.682  0.1702  0.0891  0.3900
   83MOL     C634610   2.005   3.327   0.020  1.3437  0.9139  0.1133
   83MOL     C734611   2.020   3.255   7.554 -0.1935  0.1786  0.6530
   83MOL     H834612   1.881   3.565   0.060  0.9502  0.5646  0.7694
   83MOL     H934613   1.936   3.715   7.757  2.3128 -2.4921  2.1890
   83MOL    H1034614   1.825   3.491   7.602 -2.5368  1.3331  4.3371
   83MOL    H1134615   2.121   3.570   7.660  0.4780  0.7260 -1.0754
   83MOL    H1234616   2.089   3.514   7.503 -0.4857  1.4424  0.5216
   83MOL    H1334617   2.279   3.352   7.589 -0.5140 -1.0688 -0.1515
   83MOL    H1434618   2.243   3.254   7.745 -1.0510 -0.2480  0.2816
   83MOL    H1534619   2.264   3.417   7.750  0.3149  0.7635 -0.4450
   83MOL    H1634620   2.063   3.361   0.107 -0.4364  2.4128  0.7501
   83MOL    H1734621   1.901   3.359   0.027  0.3519 -2.1436  0.2812
   83MOL    H1834622   1.982   3.221   0.022 -1.0772  1.3423 -2.4750
   83MOL    H1934623   1.912   3.246   7.565 -0.2197  1.0839  1.1715
   83MOL    H2034624   2.061   3.156   7.573  1.2489  0.2251 -1.9579
   83MOL    H2134625   2.037   3.278   7.449 -1.7725 -2.8860 -0.3543
   83MOL    H2234626   1.761   3.666   7.752 -0.5889 -0.7466 -0.5180
   83MOL    C2334627   1.883   3.669   7.491  0.5320 -0.3878 -0.0016
   83MOL    C2434628   1.906   3.622   7.348 -0.2136  0.1559  0.2467
   83MOL    C2534629   1.896   3.746   7.251  0.2579 -0.0819  1.5108
   83MOL    C2634630   2.023   3.847   7.245 -0.7855 -0.4597  0.7953
   83MOL    C2734631   2.030   3.920   7.108 -0.9541 -0.9277  0.4645
   83MOL    C2834632   2.012   3.949   7.357 -0.0615  0.1767 -0.5370
   83MOL    C2934633   2.168   3.781   7.254 -0.7926  1.0002 -0.0498
   83MOL    H3034634   1.788   3.720   7.502  1.0383  0.2922  1.2801
   83MOL    H3134635   1.957   3.749   7.502  0.1012 -0.0450  0.3917
   83MOL    H3234636   2.009   3.586   7.346  0.5376  2.2240 -0.2535
   83MOL    H3334637   1.808   3.809   7.264  0.4843  0.3398  1.0044
   83MOL    H3434638   1.885   3.716   7.147 -0.5735  1.5544  1.1136
   83MOL    H3534639   2.117   3.985   7.101 -0.6332 -1.3122  0.8685
   83MOL    H3634640   2.028   3.855   7.021 -0.5546 -0.2033 -0.0934
   83MOL    H3734641   1.943   3.986   7.104  0.1913  0.6017  0.4465
   83MOL    H3834642   2.059   3.917   7.450  0.5322 -1.6806 -1.4452
   83MOL    H3934643   2.072   4.035   7.326 -0.6151  1.1787  1.0853
   83MOL    H4034644   1.908   3.968   7.382 -0.1036 -1.7314  0.8644
   83MOL    H4134645   2.170   3.706   7.175  0.3911 -0.7233  1.5521
   83MOL    H4234646   2.189   3.717   7.340  1.9295 -2.0114 -2.8268
   83MOL    H4334647   2.250   3.852   7.239 -0.3261  0.9614  2.0639
   83MOL    C4434648   1.805   3.513   7.315  0.7222  0.5035  0.1481
   83MOL    C4534649   1.813   3.443   7.182 -1.0180  0.2034 -0.1004
   83MOL    C4634650   1.722   3.318   7.185 -0.1368  0.2220 -0.6777
   83MOL    C4734651   1.576   3.327   7.128  0.6909  0.0826 -0.1326
   83MOL    C4834652   1.493   3.202   7.155 -0.0851  0.4794 -0.0495
   83MOL    C4934653   1.588   3.349   6.975 -0.0972 -0.0726 -0.3568
   83MOL    C5034654   1.496   3.438   7.193  0.1808 -0.8386  1.4390
   83MOL    H5134655   1.828   3.438   7.391 -0.9693 -1.8929 -1.6041
   83MOL    H5234656   1.702   3.545   7.326  0.8122  1.0725 -0.6267
   83MOL    H5334657   1.782   3.500   7.094 -0.2354 -0.1658 -0.6177
   83MOL    H5434658   1.714   3.287   7.290 -0.2156  2.1193 -0.1164
   83MOL    H5534659   1.778   3.240   7.134  0.8665  0.5614 -0.1017
   83MOL    H5634660   1.401   3.203   7.095 -0.6296 -1.7906  0.6988
   83MOL    H5734661   1.451   3.203   7.255 -0.3762  0.6730 -0.1708
   83MOL    H5834662   1.543   3.106   7.146 -1.9628 -0.4477 -0.9103
   83MOL    H5934663   1.671   3.289   6.936 -1.8630 -2.7432 -0.1609
   83MOL    H6034664   1.502   3.305   6.924 -1.2937  0.6670  1.0189
   83MOL    H6134665   1.606   3.455   6.956 -1.2068  0.5677  1.9772
   83MOL    H6234666   1.396   3.445   7.151  0.9163 -0.4535 -0.2938
   83MOL    H6334667   1.481   3.427   7.301  1.2721  2.9374  2.0529
   83MOL    H6434668   1.541   3.534   7.167 -0.5533 -0.9940 -0.4236
   83MOL    C6534669   1.965   3.405   7.148 -0.8513  0.4910 -0.3918
   83MOL    C6634670   1.994   3.373   6.995 -0.1610  0.0192 -0.4482
   83MOL    C6734671   2.109   3.271   6.995  0.0495 -0.0431 -0.4143
   83MOL    C6834672   2.071   3.122   6.978 -0.8609  0.1848  0.1225
   83MOL    C6934673   2.190   3.048   6.926  0.1660  0.3169 -0.1296
   83MOL    C7034674   2.022   3.064   7.115 -0.3061  0.1028  0.3591
   83MOL    C7134675   1.959   3.094   6.872 -0.2252  0.9095  0.2238
   83MOL    H7234676   2.032   3.490   7.164 -0.7146  0.1268  1.0765
   83MOL    H7334677   2.004   3.335   7.221  2.3760  1.9926 -0.5873
   83MOL    H7434678   1.902   3.344   6.945 -0.2756 -2.2170  0.9552
   83MOL    H7534679   2.171   3.291   7.083  0.6723 -0.1628 -0.8212
   83MOL    H7634680   2.163   3.300   6.905  0.8564  0.9997  0.3906
   83MOL    H7734681   2.164   2.943   6.911 -0.4959  0.3385  0.7976
   83MOL    H7834682   2.205   3.077   6.822 -0.2087  4.5851  0.9079
   83MOL    H7934683   2.286   3.057   6.977  0.8901  2.8766 -1.8604
   83MOL    H8034684   2.101   3.077   7.189  0.6499 -0.9313 -0.4606
   83MOL    H8134685   1.995   2.960   7.096  2.5111 -0.4150 -1.0536
   83MOL    H8234686   1.944   3.124   7.161 -0.9951 -1.8880  1.8757
   83MOL    H8334687   2.004   3.126   6.778 -0.2201 -2.1086 -0.8623
   83MOL    H8434688   1.869   3.153   6.888 -0.3139  0.3279  1.9407
   83MOL    H8534689   1.934   2.988   6.878 -0.8296  1.0245 -0.1707
   83MOL    C8634690   2.037   3.505   6.931 -0.6746 -0.0786  0.1708
   83MOL    C8734691   2.024   3.510   6.775 -0.6849 -0.2046  0.3600
   83MOL    C8834692   2.088   3.647   6.733  0.0082 -0.1407  0.4523
   83MOL    C8934693   2.242   3.656   6.693  0.1120  0.2968  0.2204
   83MOL    C9034694   2.263   3.582   6.558 -0.2370  0.3394 -0.3295
   83MOL    C9134695   2.341   3.613   6.804 -0.5630  0.7076  0.6287
   83MOL    C9234696   2.266   3.805   6.667 -0.1363  0.0941 -0.2328
   83MOL    H9334697   2.136   3.536   6.963 -0.6034  0.0275 -0.1546
   83MOL    H9434698   1.985   3.590   6.977  0.6423  1.1275 -0.5652
   83MOL    H9534699   2.082   3.432   6.726 -0.7139 -0.0709  0.1133
   83MOL    H9634700   2.077   3.719   6.814 -2.9603  0.9802 -0.9173
   83MOL    H9734701   2.033   3.691   6.650  1.1769 -0.3443 -0.4620
   83MOL    H9834702   2.219   3.640   6.476  1.4273  0.7203 -0.9836
   83MOL    H9934703   2.225   3.480   6.552  2.7395 -0.8126 -0.2645
   83MOL   H10034704   2.369   3.575   6.534 -0.5907 -1.2860 -1.5254
   83MOL   H10134705   2.441   3.621   6.762 -0.3701 -1.7919  0.5153
   83MOL   H10234706   2.334   3.675   6.894 -1.4197  2.6646 -0.7601
   83MOL   H10334707   2.321   3.510   6.835  1.0280  0.8111  2.1177
   83MOL   H10434708   2.367   3.830   6.634  0.5883 -0.2220  1.6508
   83MOL   H10534709   2.202   3.862   6.600  1.4640  3.7739  1.2416
   83MOL   H10634710   2.250   3.870   6.753  0.5158 -0.5649  0.3942
   83MOL   C10734711   1.882   3.504   6.720  0.2758 -0.5018  0.2116
   83MOL   C10834712   1.864   3.456   6.569 -0.8363 -0.1951  0.2292
   83MOL   C10934713   1.899   3.309   6.543  0.0539 -0.3565 -0.1337
   83MOL   C11034714   1.951   3.259   6.407 -0.1263  0.0424  0.0149
   83MOL   C11134715   2.018   3.120   6.431 -0.0956  0.0064 -0.0992
   83MOL   C11234716   2.051   3.353   6.331  0.6996  0.2084 -0.0255
   83MOL   C11334717   1.829   3.231   6.309  0.6586 -0.3463  0.1814
   83MOL   H11434718   1.834   3.601   6.735 -0.8453 -0.9750 -0.2121
   83MOL   H11534719   1.827   3.435   6.784  0.4740 -1.2418 -0.4007
   83MOL   H11634720   1.934   3.513   6.508 -0.4506  1.1931  1.9211
   83MOL   H11734721   1.974   3.287   6.618  1.7808  0.6875 -1.5073
   83MOL   H11834722   1.814   3.258   6.590  0.9773  0.8922  2.9791
   83MOL   H11934723   2.020   3.054   6.344  0.0335  1.2841 -1.0799
   83MOL   H12034724   2.123   3.140   6.453 -0.0901  1.8980 -1.7063
   83MOL   H12134725   1.963   3.067   6.509 -0.0057 -0.9693 -0.6780
   83MOL   H12234726   2.016   3.455   6.311  1.0816  0.7282  1.8389
   83MOL   H12334727   2.064   3.326   6.227 -2.3893  0.1300 -0.4344
   83MOL   H12434728   2.150   3.359   6.377  0.1865  0.6152  1.0475
   83MOL   H12534729   1.751   3.168   6.353 -0.5404 -0.3017 -1.7984
   83MOL   H12634730   1.859   3.204   6.207 -1.0603  4.7774 -1.8132
   83MOL   H12734731   1.787   3.331   6.304  0.8544 -0.3199 -1.0636
   83MOL   C12834732   1.716   3.490   6.528  0.9463 -0.1978 -0.6559
   83MOL   C12934733   1.705   3.638   6.474  0.7506 -0.8358 -0.1720
   83MOL   C13034734   1.757   3.646   6.332 -0.7813 -0.6605  0.1915
   83MOL   C13134735   1.845   3.760   6.279 -0.3522  0.3464 -0.6296
   83MOL   C13234736   1.859   3.734   6.126 -0.0968 -0.8144 -0.0868
   83MOL   C13334737   1.982   3.760   6.344 -0.2157  0.5694  0.2419
   83MOL   C13434738   1.788   3.896   6.288  0.7832 -1.0089 -0.0629
   83MOL   H13534739   1.660   3.480   6.621  2.2139 -0.7465  0.0701
   83MOL   H13634740   1.685   3.423   6.448 -0.7082 -2.3143  1.6986
   83MOL   H13734741   1.778   3.700   6.527 -0.7263  2.3884 -1.8048
   83MOL   H13834742   1.833   3.569   6.321  1.8791  2.0890 -1.3480
   83MOL   H13934743   1.673   3.638   6.263 -0.9685  1.8956  0.0718
   83MOL   H14034744   1.912   3.816   6.078 -0.5769 -0.4585 -0.0075
   83MOL   H14134745   1.766   3.750   6.072  0.1556  1.6220  0.1408
   83MOL   H14234746   1.915   3.645   6.099  0.6812 -0.5641  0.6602
   83MOL   H14334747   1.967   3.757   6.452 -3.1147 -0.4404 -0.1506
   83MOL   H14434748   2.040   3.852   6.333  0.5051  0.1482  0.4819
   83MOL   H14534749   2.045   3.679   6.307  2.3175  1.9277  1.3841
   83MOL   H14634750   1.696   3.909   6.231  0.1455 -0.1624  1.1313
   83MOL   H14734751   1.767   3.925   6.392  0.5565 -1.0567 -0.0949
   83MOL   H14834752   1.852   3.978   6.257  0.6779 -1.0979 -0.5078
   83MOL   C14934753   1.561   3.692   6.485 -0.3905 -0.0394 -0.4605
   83MOL   C15034754   1.498   3.729   6.626  0.0874  0.1146  0.6823
   83MOL   C15134755   1.565   3.867   6.663  0.1607 -0.8864  0.0792
   83MOL   C15234756   1.604   3.896   6.817 -0.6279 -0.3521  0.1199
   83MOL   C15334757   1.723   3.815   6.868 -0.1845 -0.1357 -0.0072
   83MOL   C15434758   1.486   3.870   6.915  0.1151 -0.2682  1.1701
   83MOL   C15534759   1.637   4.044   6.818 -0.2410 -0.1768  0.5909
   83MOL   H15634760   1.496   3.615   6.443 -1.0731  0.0977  0.3315
   83MOL   H15734761   1.555   3.776   6.417  0.9875 -0.7951 -1.5489
   83MOL   H15834762   1.533   3.668   6.708  2.2211  1.5819  0.9112
   83MOL   H15934763   1.490   3.938   6.630 -0.1216 -1.8901 -1.4958
   83MOL   H16034764   1.651   3.892   6.600 -1.2053  0.1494 -1.4002
   83MOL   H16134765   1.700   3.710   6.878  0.8919 -0.5169 -1.2821
   83MOL   H16234766   1.805   3.829   6.796 -2.9276  0.3528 -3.1645
   83MOL   H16334767   1.759   3.865   6.958  2.4775  2.6841 -2.5140
   83MOL   H16434768   1.462   3.767   6.940  1.6069 -0.4524  1.8430
   83MOL   H16534769   1.395   3.907   6.867  0.5875 -0.4466  0.1107
   83MOL   H16634770   1.505   3.908   7.015  0.0989  0.3701  0.9327
   83MOL   H16734771   1.672   4.075   6.916 -0.4048 -2.9851  1.5798
   83MOL   H16834772   1.713   4.070   6.744  0.6480  0.3977  1.6847
   83MOL   H16934773   1.544   4.097   6.794  0.5445  1.8851  1.9014
   83MOL   C17034774   1.341   3.727   6.628 -0.0126  0.4076 -0.4533
   83MOL   C17134775   1.284   3.589   6.593  0.2410  0.0281 -0.4398
   83MOL   C17234776   1.133   3.605   6.548  0.2470  0.3423  0.1471
   83MOL   C17334777   1.111   3.624   6.395  0.2291 -0.6834  0.3910
   83MOL   C17434778   1.215   3.709   6.323  0.3555 -0.2063  0.8132
   83MOL   C17534779   0.975   3.688   6.363  0.0642  0.2953  0.5256
   83MOL   C17634780   1.115   3.483   6.334  0.0255  0.1281  0.2308
   83MOL   H17734781   1.294   3.803   6.565  2.0871  1.2905 -0.9837
   83MOL   H17834782   1.299   3.756   6.724  1.6381  2.3194 -0.2810
   83MOL   H17934783   1.342   3.547   6.512 -0.9654  0.1714 -1.3884
   83MOL   H18034784   1.074   3.519   6.578  2.3547 -0.5393  1.8824
   83MOL   H18134785   1.079   3.685   6.599 -0.4417 -1.1263  1.7866
   83MOL   H18234786   1.184   3.716   6.219 -2.0926  0.0427  1.5450
   83MOL   H18334787   1.207   3.812   6.358  0.9653  0.8448 -2.0063
   83MOL   H18434788   1.319   3.674   6.326  0.2971 -0.6168 -1.6064
   83MOL   H18534789   0.968   3.791   6.397  0.4057  0.3698  0.3669
   83MOL   H18634790   0.955   3.711   6.259 -0.3304 -0.2113  0.4869
   83MOL   H18734791   0.887   3.642   6.408  0.8779 -0.1588  1.6741
   83MOL   H18834792   1.114   3.482   6.225  0.8547  1.8874  0.1827
   83MOL   H18934793   1.215   3.449   6.361 -0.1103  1.3953  2.4689
   83MOL   H19034794   1.033   3.415   6.356  0.3560  0.0824  1.3875
   83MOL   C19134795   1.289   3.490   6.716  0.3763 -0.9869 -0.3760
   83MOL   C19234796   1.275   3.341   6.689  0.1868  0.3003  0.0879
   83MOL   C19334797   1.255   3.271   6.825 -0.0306  0.0136  0.4634
   83MOL   C19434798   1.114   3.226   6.849 -0.3386  0.5867 -0.5940
   83MOL   C19534799   1.013   3.345   6.856 -0.5768  0.0488 -0.3348
   83MOL   C19634800   1.116   3.160   6.990  0.0966  1.0103 -0.4508
   83MOL   C19734801   1.051   3.127   6.751 -0.4251 -0.0710  0.1948
   83MOL   H19834802   1.377   3.511   6.778 -0.5837  0.6365  0.4554
   83MOL   H19934803   1.211   3.532   6.779  0.3964  0.5330 -1.3706
   83MOL   H20034804   1.196   3.330   6.614 -1.2475  0.2663  1.5798
   83MOL   H20134805   1.297   3.338   6.901  1.9065 -0.8761  0.2155
   83MOL   H20234806   1.308   3.176   6.831 -0.9737 -0.4286  2.3482
   83MOL   H20334807   1.034   3.416   6.935 -1.2768  1.0524 -1.0454
   83MOL   H20434808   0.994   3.400   6.764 -0.6407 -0.1805 -0.4598
   83MOL   H20534809   0.916   3.303   6.880 -0.1952 -0.6908 -0.0543
   83MOL   H20634810   1.178   3.221   7.055  0.7604 -0.6500  0.5239
   83MOL   H20734811   1.013   3.147   7.026  0.5979 -0.1570  0.6017
   83MOL   H20834812   1.156   3.059   6.993 -3.4246 -0.4949 -1.1594
   83MOL   H20934813   0.947   3.114   6.781 -0.4656  0.1325  0.1430
   83MOL   H21034814   1.068   3.153   6.646  0.4369 -0.6176  0.1923
   83MOL   H21134815   1.106   3.033   6.758  1.3087  0.8675 -0.7500
   83MOL   C21234816   1.402   3.279   6.628 -0.1462  0.3714 -0.5865
   83MOL   C21334817   1.392   3.135   6.564 -0.7807  0.2718 -0.0304
   83MOL   C21434818   1.531   3.070   6.543 -0.3536  0.2795  0.0909
   83MOL   C21534819   1.581   2.970   6.648  0.0988  0.3936  0.0291
   83MOL   C21634820   1.724   2.916   6.604 -0.7620 -0.0476 -0.5970
   83MOL   C21734821   1.600   3.038   6.788  0.1666  0.0032  0.1417
   83MOL   C21834822   1.486   2.851   6.663 -0.8823  0.8485  0.4835
   83MOL   H21934823   1.428   3.343   6.543  0.1333  0.8640 -0.1346
   83MOL   H22034824   1.483   3.277   6.700 -2.2938 -0.7298  1.8784
   83MOL   H22134825   1.340   3.073   6.638 -0.8535  1.7533  1.1926
   83MOL   H22234826   1.598   3.156   6.541 -0.2735  0.2179  0.0869
   83MOL   H22334827   1.532   3.024   6.444  2.8036 -1.7945  0.9977
   83MOL   H22434828   1.810   2.979   6.625  0.2935 -0.9038 -2.2815
   83MOL   H22534829   1.720   2.906   6.496 -0.4023 -0.8152 -0.5389
   83MOL   H22634830   1.746   2.819   6.649 -1.0681  0.0084 -0.3217
   83MOL   H22734831   1.653   2.971   6.856  1.6243  0.3540 -0.6409
   83MOL   H22834832   1.665   3.125   6.789 -1.6980  1.4527 -0.7643
   83MOL   H22934833   1.508   3.052   6.845  0.0586  1.3747 -0.3611
   83MOL   H23034834   1.488   2.794   6.570 -1.3027  2.6751 -0.6911
   83MOL   H23134835   1.385   2.891   6.677 -1.6383 -0.4367 -1.1621
   83MOL   H23234836   1.515   2.785   6.744 -1.5373  0.4893  0.4313
   83MOL   C23334837   1.309   3.143   6.432 -0.5703  1.1781 -0.0882
   83MOL   C23434838   1.267   3.009   6.369 -0.2565 -0.1239 -0.0131
   83MOL   C23534839   1.137   2.959   6.442 -0.2738 -0.1487 -0.0819
   83MOL   C23634840   1.076   2.815   6.426 -0.2287  0.0681  0.1109
   83MOL   C23734841   0.959   2.789   6.528 -0.4814  0.1112  0.4602
   83MOL   C23834842   1.032   2.779   6.281  0.8034  0.2761  0.3615
   83MOL   C23934843   1.188   2.714   6.458 -0.1739 -0.3877 -0.3984
   83MOL   H24034844   1.380   3.194   6.367  0.7572  0.3823  0.7156
   83MOL   H24134845   1.220   3.201   6.456 -0.6863  1.3806 -0.9681
   83MOL   H24234846   1.340   2.929   6.373 -2.5273 -2.2932 -0.6779
   83MOL   H24334847   1.173   2.946   6.544 -0.9845 -0.5214  0.1188
   83MOL   H24434848   1.065   3.041   6.441 -2.0847 -1.7013 -0.1353
   83MOL   H24534849   0.983   2.858   6.609 -0.3430  0.8554 -0.2112
   83MOL   H24634850   0.957   2.688   6.570 -1.7972 -0.6142 -1.2922
   83MOL   H24734851   0.864   2.801   6.476 -1.0417  1.8597  1.8382
   83MOL   H24834852   0.979   2.684   6.284 -0.4607  0.9884  1.5372
   83MOL   H24934853   0.956   2.850   6.249  0.2104 -1.0837 -1.3137
   83MOL   H25034854   1.113   2.763   6.210  1.1214  1.4347  0.4464
   83MOL   H25134855   1.260   2.702   6.376  1.4932 -1.7218  1.2217
   83MOL   H25234856   1.240   2.729   6.552  0.5632  0.4108 -0.9147
   83MOL   H25334857   1.144   2.617   6.479  0.4147 -0.5507  0.0860
   83MOL   C25434858   1.229   3.039   6.214  0.0323  0.1390  0.0844
   83MOL   C25534859   1.357   3.012   6.127  0.0813  0.0567 -0.0940
   83MOL   C25634860   1.363   3.096   5.997  0.1562 -0.1086 -0.9197
   83MOL   C25734861   1.440   3.233   5.996 -0.3966  0.0206 -0.7343
   83MOL   C25834862   1.357   3.337   6.068  0.6765  1.1446  0.5359
   83MOL   C25934863   1.458   3.277   5.850 -0.0490  0.1850  0.2289
   83MOL   C26034864   1.570   3.226   6.072  0.0647  0.1086 -0.2100
   83MOL   H26134865   1.199   3.143   6.201  0.4908  0.1491 -0.9009
   83MOL   H26234866   1.145   2.980   6.178  0.3034  1.5756 -3.0955
   83MOL   H26334867   1.441   3.028   6.195 -0.8259 -0.1659  1.1112
   83MOL   H26434868   1.399   3.033   5.915  0.3042 -1.1291 -0.0919
   83MOL   H26534869   1.265   3.107   5.951 -0.3884  3.2402  0.9127
   83MOL   H26634870   1.329   3.311   6.170 -0.1312  1.1085  0.3089
   83MOL   H26734871   1.265   3.355   6.012 -0.9887 -1.7776  2.1493
   83MOL   H26834872   1.402   3.436   6.074 -1.9171  2.3299  1.1295
   83MOL   H26934873   1.504   3.202   5.785  1.1814 -0.5123  1.8747
   83MOL   H27034874   1.519   3.367   5.842  0.9866 -0.6201 -1.1656
   83MOL   H27134875   1.368   3.305   5.796  0.2923  0.6367 -0.1066
   83MOL   H27234876   1.617   3.324   6.075 -0.5196  0.3524  1.5284
   83MOL   H27334877   1.562   3.196   6.177 -2.5312  1.0538 -0.1106
   83MOL   H27434878   1.648   3.163   6.030  0.0846  0.7433 -1.1311
   83MOL   C27534879   1.362   2.861   6.097 -0.3216  0.3130 -0.2305
   83MOL   C27634880   1.496   2.812   6.040 -0.2154  0.0040 -0.3130
   83MOL   C27734881   1.581   2.748   6.145 -0.1860  0.0856  0.4087
   83MOL   C27834882   1.730   2.767   6.137 -0.3408  0.4772  0.2436
   83MOL   C27934883   1.793   2.683   6.254 -1.0528  0.4127  0.0015
   83MOL   C28034884   1.811   2.724   6.012 -0.2061  0.3364  0.6692
   83MOL   C28134885   1.772   2.912   6.171 -0.4182 -0.1245 -0.3077
   83MOL   H28234886   1.342   2.790   6.177  0.0654 -0.7995 -1.0914
   83MOL   H28334887   1.280   2.833   6.031 -0.7945 -0.0904  0.5218
   83MOL   H28434888   1.553   2.897   6.004  2.2643 -1.7388 -0.6199
   83MOL   H28534889   1.575   2.643   6.115 -0.5395  0.5613 -1.2341
   83MOL   H28634890   1.537   2.738   6.244 -0.4189 -0.2255  0.2760
   83MOL   H28734891   1.900   2.702   6.258 -0.9145 -0.2732 -0.2936
   83MOL   H28834892   1.752   2.707   6.352 -0.9868 -2.0498  0.6735
   83MOL   H28934893   1.784   2.576   6.238  0.7757  0.2028  0.2022
   83MOL   H29034894   1.793   2.789   5.927 -1.5404  0.2171  0.8549
   83MOL   H29134895   1.783   2.628   5.971  1.6423  0.6382 -1.4201
   83MOL   H29234896   1.919   2.723   6.026 -0.0792  1.3455 -0.1599
   83MOL   H29334897   1.771   2.970   6.079  2.7128 -0.3207 -0.5226
   83MOL   H29434898   1.870   2.921   6.217 -1.0373  0.3083  0.9599
   83MOL   H29534899   1.704   2.960   6.242  0.5207  0.3044  0.3215
   83MOL   C29634900   1.474   2.720   5.916 -0.1802 -0.0038  0.1010
   83MOL   C29734901   1.409   2.772   5.781 -0.0533  0.1593  0.7378
   83MOL   C29834902   1.329   2.654   5.718  0.4749 -0.3521  0.3814
   83MOL   C29934903   1.179   2.631   5.748 -0.2009  0.1598  0.6426
   83MOL   C30034904   1.110   2.770   5.728 -0.5178  0.4435 -0.5402
   83MOL   C30134905   1.120   2.535   5.639  0.1138  0.7098 -0.3486
   83MOL   C30234906   1.137   2.577   5.881  0.2642 -1.0020 -1.0955
   83MOL   H30334907   1.412   2.637   5.950  0.1926  0.2296  1.3795
   83MOL   H30434908   1.571   2.679   5.891 -1.0771 -1.6429 -0.7638
   83MOL   H30534909   1.344   2.854   5.813 -0.9386 -0.7003  1.1631
   83MOL   H30634910   1.376   2.557   5.734  0.2324 -0.5746 -0.2351
   83MOL   H30734911   1.334   2.671   5.611 -1.0475 -1.0205  0.1856
   83MOL   H30834912   1.131   2.841   5.808  2.2576 -2.0793  1.0961
   83MOL   H30934913   1.150   2.825   5.643 -0.6493 -1.4080 -1.8531
   83MOL   H31034914   1.004   2.755   5.708 -0.5295 -1.0134  0.5057
   83MOL   H31134915   1.172   2.441   5.622 -2.4044 -0.5386 -1.4806
   83MOL   H31234916   1.015   2.513   5.659  0.1217  0.8830 -0.1120
   83MOL   H31334917   1.099   2.588   5.546 -0.6717  1.7458  0.4102
   83MOL   H31434918   1.029   2.569   5.885  0.2388 -0.4748 -0.6918
   83MOL   H31534919   1.190   2.482   5.895 -0.6827 -1.4865 -0.7608
   83MOL   H31634920   1.160   2.646   5.963 -0.1143 -0.6359 -1.2990
   83MOL   C31734921   1.524   2.835   5.700 -0.8228 -0.6582  0.2044
   83MOL   C31834922   1.496   2.887   5.560  0.4570  0.2982  0.3290
   83MOL   C31934923   1.386   2.995   5.565 -0.1901  1.2402 -0.0161
   83MOL   C32034924   1.310   3.067   5.446 -0.7328  0.5536  0.3133
   83MOL   C32134925   1.380   3.204   5.424  0.4675 -0.9756  0.4226
   83MOL   C32234926   1.171   3.110   5.509  0.1322  0.0444 -0.0862
   83MOL   C32334927   1.301   2.983   5.314  0.3842  0.6957  0.0419
   83MOL   H32434928   1.582   2.904   5.762  0.2250  1.3147 -2.8998
   83MOL   H32534929   1.592   2.753   5.678 -2.2904 -2.3717  1.7702
   83MOL   H32634930   1.463   2.812   5.488 -0.2793  1.8655 -1.0031
   83MOL   H32734931   1.429   3.070   5.632  1.6414 -0.4735  0.7743
   83MOL   H32834932   1.304   2.958   5.628 -1.5430  0.5317 -2.1391
   83MOL   H32934933   1.332   3.270   5.351  0.3124 -1.9011 -0.3244
   83MOL   H33034934   1.478   3.185   5.381  0.9697  0.2502  1.0023
   83MOL   H33134935   1.390   3.264   5.514 -1.2573 -0.4048  0.2682
   83MOL   H33234936   1.124   3.183   5.445  2.0678  1.0187 -0.4388
   83MOL   H33334937   1.112   3.021   5.532  1.8499 -1.1986 -0.3237
   83MOL   H33434938   1.192   3.173   5.596  0.8726  0.3109 -0.4581
   83MOL   H33534939   1.249   2.890   5.336  1.3153  0.2218  0.2581
   83MOL   H33634940   1.403   2.961   5.283  0.7573 -0.5699  2.0342
   83MOL   H33734941   1.238   3.020   5.233 -1.3557  0.2102  1.1415
   83MOL   C33834942   1.633   2.942   5.505  0.3129 -0.0189 -0.2055
   83MOL   C33934943   1.748   2.842   5.482 -0.7081  0.1393  0.1210
   83MOL   C34034944   1.882   2.910   5.445  0.8315  0.3090  0.4642
   83MOL   C34134945   1.979   2.915   5.564  1.0087  0.3948  0.5652
   83MOL   C34234946   2.042   2.778   5.603  0.0888  0.4563  0.0905
   83MOL   C34334947   2.093   3.001   5.527  0.8256 -0.1890  0.3066
   83MOL   C34434948   1.912   2.971   5.697 -0.1915  0.0296 -0.5614
   83MOL   H34534949   1.659   3.023   5.573  0.3386 -1.3074  1.3655
   83MOL   H34634950   1.610   2.989   5.409  1.5395  0.7189 -0.1497
   83MOL   H34734951   1.765   2.796   5.579  2.4001  0.0257 -0.4278
   83MOL   H34834952   1.862   3.013   5.414 -1.5056  0.3722  2.0607
   83MOL   H34934953   1.927   2.850   5.366  2.2012  3.2424 -1.0678
   83MOL   H35034954   2.075   2.761   5.706 -1.8195  0.5118  0.7305
   83MOL   H35134955   1.990   2.686   5.578 -1.2668  1.1053  0.5194
   83MOL   H35234956   2.120   2.758   5.529  0.1974  1.2576 -0.0145
   83MOL   H35334957   2.154   2.951   5.451  0.9002  0.3521 -0.0001
   83MOL   H35434958   2.058   3.085   5.467 -2.4514 -1.0650  0.9330
   83MOL   H35534959   2.153   3.045   5.607  0.5682  1.6646 -0.4943
   83MOL   H35634960   1.826   2.915   5.732 -0.9950  0.3104 -2.0338
   83MOL   H35734961   1.990   2.958   5.772 -1.8157 -1.1039  0.9664
   83MOL   H35834962   1.875   3.073   5.686  1.2084  0.7199  0.9179
   83MOL   C35934963   1.706   2.711   5.400  0.2028 -0.0365 -0.3866
   83MOL   C36034964   1.642   2.723   5.264  0.6423  0.4943  0.0795
   83MOL   C36134965   1.599   2.578   5.223 -0.3779 -0.2067 -0.2104
   83MOL   C36234966   1.450   2.530   5.196  0.3554  0.1747  0.5549
   83MOL   C36334967   1.362   2.561   5.319  0.2200  0.0036 -0.1108
   83MOL   C36434968   1.456   2.379   5.168  0.0707 -0.2824 -0.5178
   83MOL   C36534969   1.388   2.608   5.082 -0.1303  0.0173 -0.0850
   83MOL   H36634970   1.642   2.644   5.458  1.4136  0.5775  1.7466
   83MOL   H36734971   1.792   2.644   5.389  0.0198 -0.7357  2.0072
   83MOL   H36834972   1.544   2.769   5.279 -0.4578 -0.2166 -4.1682
   83MOL   H36934973   1.664   2.560   5.137  2.0344  1.3240  1.2329
   83MOL   H37034974   1.641   2.507   5.294 -0.6524  1.3690  1.5644
   83MOL   H37134975   1.373   2.662   5.357 -0.0742  0.2695 -0.7202
   83MOL   H37234976   1.258   2.537   5.295  0.8558 -2.1431 -0.8412
   83MOL   H37334977   1.382   2.506   5.411 -2.3879 -0.3970  0.2638
   83MOL   H37434978   1.512   2.321   5.241 -0.6090  0.7695  0.8530
   83MOL   H37534979   1.514   2.357   5.078  1.6181  0.2871  0.3289
   83MOL   H37634980   1.353   2.343   5.174  0.7025 -2.0121  0.3859
   83MOL   H37734981   1.442   2.595   4.988  0.6664 -1.4791  0.5484
   83MOL   H37834982   1.381   2.715   5.101 -0.3744 -0.1754  0.9559
   83MOL   H37934983   1.288   2.579   5.050 -0.0200  0.3189 -0.7128
   83MOL   C38034984   1.727   2.801   5.161 -0.2499  0.3879 -0.2003
   83MOL   C38134985   1.682   2.807   5.009  0.2848  1.0527  0.1290
   83MOL   C38234986   1.806   2.840   4.917  0.3686  0.2869 -0.2766
   83MOL   C38334987   1.891   2.723   4.864  0.6308  0.5235 -0.8735
   83MOL   C38434988   1.970   2.635   4.970  0.0858  0.9194  0.1457
   83MOL   C38534989   1.997   2.787   4.779  0.5563 -0.8630  0.6182
   83MOL   C38634990   1.806   2.619   4.781 -0.1125 -0.3955 -0.3478
   83MOL   H38734991   1.820   2.746   5.174 -1.6181 -1.3299  3.1039
   83MOL   H38834992   1.756   2.899   5.199 -0.9235  0.7234 -0.5388
   83MOL   H38934993   1.646   2.708   4.981 -1.3118  1.7558 -0.3740
   83MOL   H39034994   1.777   2.897   4.829  1.6702  0.6017 -0.5040
   83MOL   H39134995   1.858   2.918   4.973  2.2998 -0.2316 -1.3102
   83MOL   H39234996   2.023   2.692   5.047  3.2951 -1.2097 -0.3881
   83MOL   H39334997   1.897   2.575   5.025  0.6326  0.9920  0.9650
   83MOL   H39434998   2.041   2.565   4.925  0.6364  0.8232  1.1296
   83MOL   H39534999   2.035   2.873   4.836  0.2312 -0.0406 -0.3789
   83MOL   H39635000   1.954   2.810   4.681  0.0268 -0.1626  1.0121
   83MOL   H39735001   2.076   2.722   4.742  1.1498  0.7225 -1.0457
   83MOL   H39835002   1.756   2.547   4.846  0.2256 -0.6949 -0.4126
   83MOL   H39935003   1.865   2.554   4.715  0.0999 -1.8868  1.2715
   83MOL   H40035004   1.717   2.662   4.735  0.4460 -0.1991 -1.2611
   83MOL   C40135005   1.568   2.906   4.989  0.0758  0.0942  0.2015
   83MOL   C40235006   1.599   3.056   4.999 -0.0090  0.3715  0.0799
   83MOL   C40335007   1.480   3.148   4.985 -0.4994  0.1834 -0.2201
   83MOL   C40435008   1.496   3.305   5.001 -0.8284 -0.4993  0.2008
   83MOL   C40535009   1.598   3.337   5.123 -0.1743 -0.9252  0.1344
   83MOL   C40635010   1.359   3.356   5.023 -0.3755  0.5413  0.0665
   83MOL   C40735011   1.551   3.373   4.876 -0.0301  0.2946  1.0869
   83MOL   H40835012   1.528   2.889   4.888  0.1390  0.8855  0.0349
   83MOL   H40935013   1.486   2.899   5.061  1.5719 -2.7931  1.6980
   83MOL   H41035014   1.644   3.072   5.097  1.3160  0.6816 -0.5580
   83MOL   H41135015   1.408   3.122   5.062 -0.7854  0.6454 -0.3274
   83MOL   H41235016   1.425   3.127   4.894 -1.0222  0.8960 -0.0729
   83MOL   H41335017   1.567   3.280   5.210 -2.0591  1.8443  1.3506
   83MOL   H41435018   1.608   3.441   5.155 -0.6633 -0.2608 -1.7899
   83MOL   H41535019   1.698   3.306   5.093  0.0808 -0.5262  0.5573
   83MOL   H41635020   1.355   3.465   5.024 -0.7675  0.5394  2.8168
   83MOL   H41735021   1.326   3.305   5.114 -0.4509 -0.5076 -0.5463
   83MOL   H41835022   1.289   3.333   4.943 -1.2515  2.7188  0.1619
   83MOL   H41935023   1.472   3.347   4.805  1.4220  0.3727 -0.5905
   83MOL   H42035024   1.568   3.478   4.901 -0.8816  1.2797 -2.2804
   83MOL   H42135025   1.648   3.331   4.850  0.0115  0.0887  1.5752
   83MOL   H42235026   1.666   3.085   4.917  1.9978  1.6813  2.1249
   84MOL     C135027   6.156   1.685   5.202  0.5334  0.0584 -0.0924
   84MOL     C235028   6.105   1.623   5.336  0.9857  0.2546  0.9481
   84MOL     C335029   6.167   1.489   5.354  0.5274 -0.0794  0.0489
   84MOL     C435030   6.264   1.474   5.472 -0.3417  0.0261  0.5437
   84MOL     C535031   6.299   1.321   5.479 -0.0420  0.7951  0.5456
   84MOL     C635032   6.388   1.562   5.440 -0.0700  0.3436 -0.0822
   84MOL     C735033   6.203   1.516   5.611 -0.3670 -0.1941 -0.8970
   84MOL     H835034   6.127   1.616   5.123  1.4553  1.0488 -1.3328
   84MOL     H935035   6.101   1.777   5.181 -0.1788  0.0967  1.8333
   84MOL    H1035036   6.147   1.686   5.414  0.7459 -2.2226  3.1357
   84MOL    H1135037   6.218   1.458   5.263 -1.1002 -2.5011 -0.0984
   84MOL    H1235038   6.087   1.415   5.359  1.6972 -1.6644 -3.0185
   84MOL    H1335039   6.362   1.298   5.564  0.3412  0.0531  0.0704
   84MOL    H1435040   6.362   1.294   5.395 -0.3857 -0.5533  0.7055
   84MOL    H1535041   6.213   1.254   5.475 -0.3601  1.2767 -1.5339
   84MOL    H1635042   6.360   1.664   5.414 -2.8518 -0.2496  0.4228
   84MOL    H1735043   6.465   1.573   5.517 -0.8346  0.9935  0.5927
   84MOL    H1835044   6.427   1.523   5.346 -1.4416  0.1907 -0.5903
   84MOL    H1935045   6.118   1.452   5.634 -1.2385  0.9510 -0.9609
   84MOL    H2035046   6.170   1.619   5.619 -0.0945  0.0529 -2.6750
   84MOL    H2135047   6.286   1.498   5.680  0.5849  0.2634 -1.9046
   84MOL    H2235048   6.264   1.699   5.212  0.1971  2.4483  0.6020
   84MOL    C2335049   5.948   1.614   5.337 -0.0847  0.0565  0.3659
   84MOL    C2435050   5.878   1.739   5.390 -0.2285  0.0783  0.6962
   84MOL    C2535051   5.881   1.760   5.547 -0.5736  0.4014  0.1164
   84MOL    C2635052   5.908   1.901   5.595 -0.5552  0.2897  0.1716
   84MOL    C2735053   5.897   1.902   5.750  0.4604 -0.2723  0.3372
   84MOL    C2835054   6.051   1.943   5.555 -0.3311 -0.1876  0.1029
   84MOL    C2935055   5.806   2.003   5.543  0.9471 -1.1729 -0.2499
   84MOL    H3035056   5.918   1.584   5.236  0.6936 -3.1576  1.0623
   84MOL    H3135057   5.916   1.538   5.407 -0.1154 -0.4804 -0.2238
   84MOL    H3235058   5.918   1.822   5.333 -0.4550 -0.4275 -0.1955
   84MOL    H3335059   5.943   1.685   5.597 -1.6014 -1.5449 -1.4828
   84MOL    H3435060   5.784   1.734   5.591  0.4854  2.0257  3.6100
   84MOL    H3535061   5.962   1.822   5.785 -1.2334 -1.9396 -0.2663
   84MOL    H3635062   5.932   1.992   5.801  2.9639  0.2191 -2.0902
   84MOL    H3735063   5.801   1.884   5.798  1.0521  0.0904  1.6578
   84MOL    H3835064   6.118   1.865   5.593 -0.5663 -0.5688 -0.2733
   84MOL    H3935065   6.077   1.948   5.449 -1.2260  1.6485 -0.0458
   84MOL    H4035066   6.085   2.037   5.599  0.9397 -1.0074  0.9303
   84MOL    H4135067   5.814   2.095   5.600 -0.7630 -1.1971  0.0337
   84MOL    H4235068   5.705   1.964   5.556  0.1901  1.0776  0.7221
   84MOL    H4335069   5.815   2.031   5.438  1.5090 -2.0503 -0.4394
   84MOL    C4435070   5.730   1.728   5.343 -0.1321  0.2595  0.3172
   84MOL    C4535071   5.684   1.728   5.197  0.3680 -0.3295 -0.6986
   84MOL    C4635072   5.699   1.873   5.143  0.6821 -0.2606 -0.6478
   84MOL    C4735073   5.721   1.905   4.996 -0.7981 -0.0034 -0.1588
   84MOL    C4835074   5.617   1.859   4.898 -0.3415  0.3230 -0.0484
   84MOL    C4935075   5.861   1.856   4.948  0.6132 -0.5191  0.4857
   84MOL    C5035076   5.728   2.064   4.991  0.2946  0.1344 -0.6140
   84MOL    H5135077   5.682   1.644   5.393  0.3792 -0.4180 -0.3329
   84MOL    H5235078   5.673   1.808   5.392 -2.3238 -1.6805  1.0146
   84MOL    H5335079   5.758   1.670   5.143  1.2613 -0.4399  0.6103
   84MOL    H5435080   5.776   1.923   5.202  1.1459  0.6279 -1.9917
   84MOL    H5535081   5.603   1.920   5.163  0.4938  0.7418 -3.7452
   84MOL    H5635082   5.518   1.872   4.944  0.1809  2.9518  0.4091
   84MOL    H5735083   5.614   1.754   4.869 -0.5801  1.2437 -3.5658
   84MOL    H5835084   5.614   1.925   4.812  0.4432  1.0988  0.5078
   84MOL    H5935085   5.872   1.751   4.918  0.7631  0.0818 -1.6215
   84MOL    H6035086   5.884   1.909   4.856 -0.8958  2.6740  1.8722
   84MOL    H6135087   5.936   1.887   5.020 -0.0914  1.0550  0.5601
   84MOL    H6235088   5.818   2.109   5.034 -0.3374  1.1352 -0.3133
   84MOL    H6335089   5.745   2.095   4.887  0.1790 -1.8538 -1.2412
   84MOL    H6435090   5.639   2.120   5.020  0.1282  0.1567 -1.1520
   84MOL    C6535091   5.545   1.653   5.184  0.2553 -0.1791 -0.7353
   84MOL    C6635092   5.552   1.499   5.193  0.2050  0.9749  0.0734
   84MOL    C6735093   5.546   1.435   5.053  0.4070 -0.0420  0.4595
   84MOL    C6835094   5.666   1.352   4.999 -0.0502  0.5638  0.6577
   84MOL    C6935095   5.805   1.418   5.018  0.2814  0.6906 -0.0338
   84MOL    C7035096   5.668   1.208   5.063 -0.5776 -1.0013  0.0994
   84MOL    C7135097   5.635   1.325   4.845 -0.4552  0.2469  0.6691
   84MOL    H7235098   5.486   1.696   5.265  2.3833 -0.6919  1.1368
   84MOL    H7335099   5.490   1.677   5.093 -0.1828 -1.8156 -0.9122
   84MOL    H7435100   5.647   1.484   5.246  1.1768  1.1618 -1.5859
   84MOL    H7535101   5.518   1.517   4.986  1.0273  0.7842  1.1925
   84MOL    H7635102   5.453   1.380   5.040  0.7308 -0.7476  1.1120
   84MOL    H7735103   5.838   1.420   5.122 -0.1616  0.1899  0.1233
   84MOL    H7835104   5.873   1.363   4.952 -0.9865 -0.8477 -0.0998
   84MOL    H7935105   5.804   1.516   4.972  0.8636  0.8544  0.3031
   84MOL    H8035106   5.703   1.208   5.166 -0.9348 -0.4778  0.2263
   84MOL    H8135107   5.717   1.128   5.008 -0.0283 -0.3780 -0.3336
   84MOL    H8235108   5.568   1.167   5.075 -0.8301 -0.6523 -0.7403
   84MOL    H8335109   5.549   1.262   4.823 -0.9140  0.5325  1.6099
   84MOL    H8435110   5.724   1.283   4.799 -0.2230  1.7054 -0.2385
   84MOL    H8535111   5.604   1.421   4.804 -0.3625 -0.8183 -1.9635
   84MOL    C8635112   5.436   1.451   5.293 -0.3905  0.7126 -0.2452
   84MOL    C8735113   5.472   1.312   5.363 -0.3097  0.1137  0.8464
   84MOL    C8835114   5.348   1.238   5.424  0.3419  0.3280  0.3300
   84MOL    C8935115   5.300   1.108   5.361  0.0382 -0.3934  0.2743
   84MOL    C9035116   5.176   1.063   5.456  0.1333 -0.1679  1.0933
   84MOL    C9135117   5.401   0.989   5.372 -0.0750  0.1836  0.4575
   84MOL    C9235118   5.250   1.130   5.213  0.3854 -0.3202 -0.6755
   84MOL    H9335119   5.343   1.437   5.238 -0.1610 -1.4802 -0.0918
   84MOL    H9435120   5.413   1.517   5.377 -1.2259 -1.0723  0.9684
   84MOL    H9535121   5.496   1.257   5.272  0.5098  0.9823  0.5322
   84MOL    H9635122   5.259   1.300   5.424 -0.0592 -0.2372  0.8518
   84MOL    H9735123   5.358   1.226   5.532 -2.5430 -3.2647  0.2849
   84MOL    H9835124   5.135   0.965   5.431 -0.9010 -0.2479  3.0529
   84MOL    H9935125   5.098   1.139   5.448  0.7130  0.2738 -0.6037
   84MOL   H10035126   5.203   1.058   5.561  1.3187  0.2197  0.8213
   84MOL   H10135127   5.465   0.973   5.285  0.3280 -4.1077  1.4589
   84MOL   H10235128   5.459   0.985   5.464  0.0712  0.2801  0.3708
   84MOL   H10335129   5.357   0.890   5.361 -0.3036  0.3768 -0.3898
   84MOL   H10435130   5.229   1.029   5.177  1.7012 -1.2348  1.0074
   84MOL   H10535131   5.153   1.180   5.214  1.9206  2.7718 -1.3579
   84MOL   H10635132   5.321   1.171   5.141  2.7747 -0.4432  1.5302
   84MOL   C10735133   5.592   1.317   5.455 -0.1697  0.0255  0.1343
   84MOL   C10835134   5.585   1.340   5.616 -0.2782 -0.1316 -0.0740
   84MOL   C10935135   5.730   1.347   5.683 -0.3944 -0.3845 -0.1106
   84MOL   C11035136   5.805   1.211   5.714 -0.7533  0.3290 -0.2248
   84MOL   C11135137   5.842   1.125   5.590  0.8301  0.9027  0.0778
   84MOL   C11235138   5.716   1.129   5.808  0.2473 -0.2837  0.2167
   84MOL   C11335139   5.933   1.243   5.786  0.9824 -0.0898 -0.5183
   84MOL   H11435140   5.671   1.378   5.410 -1.9213  1.0382 -1.6641
   84MOL   H11535141   5.637   1.218   5.452 -1.2917 -0.4553 -2.3296
   84MOL   H11635142   5.527   1.256   5.655 -1.0284  0.2367 -0.3931
   84MOL   H11735143   5.786   1.396   5.602  0.2424 -1.1325 -0.1305
   84MOL   H11835144   5.734   1.414   5.769  0.8995 -2.1076  1.2277
   84MOL   H11935145   5.904   1.174   5.515 -0.0215  2.2262  0.2321
   84MOL   H12035146   5.904   1.043   5.625  0.3998  1.1736  1.5040
   84MOL   H12135147   5.754   1.085   5.537  0.7897  1.0305  0.0498
   84MOL   H12235148   5.637   1.077   5.755  0.2972 -0.1000 -0.0358
   84MOL   H12335149   5.674   1.189   5.889 -1.2112 -2.0167  0.7712
   84MOL   H12435150   5.771   1.054   5.865 -0.7008 -1.5125 -0.4691
   84MOL   H12535151   6.006   1.299   5.727  1.4666  0.7825  0.8711
   84MOL   H12635152   5.988   1.151   5.810 -0.7899 -0.6970  1.3855
   84MOL   H12735153   5.917   1.293   5.882  3.4731 -0.7628  0.3124
   84MOL   C12835154   5.508   1.470   5.642 -0.2670  0.3580 -0.0281
   84MOL   C12935155   5.470   1.494   5.794  0.3527 -0.9120 -0.5584
   84MOL   C13035156   5.560   1.615   5.850  0.0322 -0.3454  0.2142
   84MOL   C13135157   5.586   1.625   6.009  0.3193  0.6157  0.0202
   84MOL   C13235158   5.465   1.672   6.081  0.4519 -0.4906 -0.2098
   84MOL   C13335159   5.699   1.728   6.035  0.5294 -0.0150 -0.0713
   84MOL   C13435160   5.637   1.496   6.076 -0.2511 -0.9789  0.4712
   84MOL   H13535161   5.416   1.445   5.590 -0.4663 -0.3245  0.6516
   84MOL   H13635162   5.547   1.561   5.596 -0.5912 -0.1413 -1.3146
   84MOL   H13735163   5.498   1.404   5.849  0.7586 -0.3333  0.1880
   84MOL   H13835164   5.656   1.618   5.798  0.6675 -0.1047  1.3790
   84MOL   H13935165   5.505   1.705   5.824 -1.3522 -0.9077  1.0989
   84MOL   H14035166   5.390   1.594   6.068 -1.1474  0.5825  2.4012
   84MOL   H14135167   5.414   1.751   6.025  1.2815 -1.1052 -1.8856
   84MOL   H14235168   5.481   1.702   6.184 -0.8059 -1.4535  0.2750
   84MOL   H14335169   5.792   1.725   5.979 -0.2123 -2.1543 -1.2225
   84MOL   H14435170   5.728   1.725   6.140  4.2823  1.3302 -0.9839
   84MOL   H14535171   5.655   1.822   6.001  0.9702  0.4298  0.5614
   84MOL   H14635172   5.565   1.415   6.081 -0.6037 -0.7466 -0.5908
   84MOL   H14735173   5.719   1.457   6.016  0.6632  1.2666  0.2041
   84MOL   H14835174   5.671   1.514   6.178 -0.5983  0.1791  0.3913
   84MOL   C14935175   5.311   1.515   5.801  0.5191  0.1395  0.2480
   84MOL   C15035176   5.215   1.397   5.802 -0.2072  0.0566 -0.2104
   84MOL   C15135177   5.240   1.296   5.915  0.6282  0.7852 -0.2235
   84MOL   C15235178   5.227   1.143   5.888 -0.6084 -0.1797 -1.2382
   84MOL   C15335179   5.345   1.080   5.814  0.4223 -0.1142 -0.7201
   84MOL   C15435180   5.090   1.110   5.818 -0.2028 -0.0004 -0.0407
   84MOL   C15535181   5.232   1.071   6.023 -0.1525  0.0343  0.0192
   84MOL   H15635182   5.290   1.587   5.722 -1.5517  0.1615  0.7909
   84MOL   H15735183   5.281   1.566   5.893  0.4798  1.3573 -0.4351
   84MOL   H15835184   5.231   1.348   5.706 -1.3649  2.5555 -1.7381
   84MOL   H15935185   5.160   1.316   5.987 -0.4153 -0.8694 -0.8970
   84MOL   H16035186   5.334   1.313   5.966  1.0997  3.1346 -1.8010
   84MOL   H16135187   5.428   1.120   5.872  0.0099  0.4349 -0.4994
   84MOL   H16235188   5.338   0.972   5.819  1.1099 -0.0178  4.2666
   84MOL   H16335189   5.352   1.112   5.710  1.6492  0.1296 -0.5716
   84MOL   H16435190   5.006   1.159   5.869 -0.3331 -0.9195  0.6362
   84MOL   H16535191   5.062   1.005   5.810 -3.1885  0.7232  0.1796
   84MOL   H16635192   5.096   1.156   5.719  1.7940 -0.0683  0.0268
   84MOL   H16735193   5.215   0.963   6.021  1.4413 -0.2339  0.6328
   84MOL   H16835194   5.327   1.102   6.067  0.0572  1.2697 -1.2797
   84MOL   H16935195   5.160   1.124   6.086 -0.0698 -0.0047  0.1447
   84MOL   C17035196   5.068   1.445   5.805 -0.2596 -0.1472 -0.4532
   84MOL   C17135197   5.026   1.534   5.684 -0.3685  0.0611 -0.3846
   84MOL   C17235198   4.889   1.598   5.718  0.3426  0.5104  0.1154
   84MOL   C17335199   4.886   1.737   5.788 -0.4788  0.3345 -0.8122
   84MOL   C17435200   4.742   1.753   5.848  0.1496 -0.4038 -0.3725
   84MOL   C17535201   4.917   1.850   5.688  0.3449 -0.1838 -0.0295
   84MOL   C17635202   4.982   1.747   5.906 -0.1984  0.4074 -0.5790
   84MOL   H17735203   5.054   1.487   5.905 -0.5778 -2.0355  0.3090
   84MOL   H17835204   5.004   1.357   5.804 -1.4866  0.7135  0.5747
   84MOL   H17935205   5.100   1.610   5.659 -1.5915  0.7303 -2.0911
   84MOL   H18035206   4.824   1.612   5.631 -0.8072  2.8958  1.2910
   84MOL   H18135207   4.831   1.522   5.769 -0.4447 -0.3954 -2.0448
   84MOL   H18235208   4.733   1.848   5.901  0.2973  0.0204 -1.0962
   84MOL   H18335209   4.677   1.756   5.761  1.5083 -0.5986 -1.4261
   84MOL   H18435210   4.721   1.667   5.911 -0.2150  1.5145  2.2168
   84MOL   H18535211   4.994   1.820   5.618 -1.0300 -1.2237 -1.1373
   84MOL   H18635212   4.827   1.876   5.632 -0.1441  0.7059  1.1456
   84MOL   H18735213   4.946   1.939   5.744  0.8496 -0.0919 -0.4412
   84MOL   H18835214   4.974   1.849   5.944 -0.4936  0.5910 -1.1314
   84MOL   H18935215   4.955   1.677   5.986 -0.3195  0.3900 -0.6350
   84MOL   H19035216   5.085   1.717   5.889 -0.0620 -1.2326  2.6470
   84MOL   C19135217   4.993   1.436   5.565 -0.4048 -0.5169  0.1779
   84MOL   C19235218   4.961   1.490   5.419 -0.0453 -0.2748  0.4417
   84MOL   C19335219   4.922   1.370   5.319 -0.0939 -0.0079 -0.7640
   84MOL   C19435220   4.770   1.342   5.301  0.1689 -0.0178  0.0538
   84MOL   C19535221   4.719   1.453   5.206  0.3285 -0.7330 -0.4767
   84MOL   C19635222   4.686   1.331   5.430  0.0890 -0.2203  0.0646
   84MOL   C19735223   4.757   1.206   5.236 -0.1021  0.5659  0.8219
   84MOL   H19835224   5.081   1.372   5.555 -0.0404  0.1123 -0.7744
   84MOL   H19935225   4.910   1.367   5.581 -0.6755 -0.1824  0.2304
   84MOL   H20035226   4.873   1.555   5.423 -0.5169 -0.9126  0.4223
   84MOL   H20135227   4.960   1.277   5.362  0.7602  1.9226  2.8846
   84MOL   H20235228   4.971   1.371   5.222  2.2590  1.1130  0.3787
   84MOL   H20335229   4.767   1.458   5.109  0.5585 -0.5739 -0.3537
   84MOL   H20435230   4.616   1.433   5.178  0.1611  1.4982 -1.5124
   84MOL   H20535231   4.719   1.556   5.241  0.3866 -0.6360 -0.7680
   84MOL   H20635232   4.663   1.430   5.468 -3.0976 -0.1856 -1.7161
   84MOL   H20735233   4.586   1.289   5.415 -0.1986 -1.5062  4.7166
   84MOL   H20835234   4.736   1.266   5.501  0.6216  1.1820  0.9903
   84MOL   H20935235   4.776   1.125   5.306  2.5256  0.0866 -0.4021
   84MOL   H21035236   4.667   1.179   5.180  2.1640 -0.2098 -2.5995
   84MOL   H21135237   4.838   1.202   5.163 -0.0067  1.1486  0.8895
   84MOL   C21235238   5.067   1.593   5.353 -0.3366  0.2340 -0.0400
   84MOL   C21335239   5.020   1.661   5.219  0.0791  0.1266 -0.3234
   84MOL   C21435240   5.132   1.675   5.111  0.3433  0.4878 -0.0473
   84MOL   C21535241   5.092   1.683   4.961 -0.7547 -0.3327  0.1378
   84MOL   C21635242   5.000   1.801   4.919 -0.3644  0.0110 -0.1861
   84MOL   C21735243   5.226   1.698   4.884 -0.1138  0.0945 -0.2523
   84MOL   C21835244   5.016   1.553   4.923  0.4526  0.3877  0.7252
   84MOL   H21935245   5.090   1.663   5.434 -0.9462 -0.8408  1.0740
   84MOL   H22035246   5.162   1.544   5.334  0.3946  1.9067 -0.8198
   84MOL   H22135247   4.960   1.588   5.166  0.5917  1.5431 -2.9947
   84MOL   H22235248   5.209   1.599   5.123  0.3897  0.7765  1.5832
   84MOL   H22335249   5.183   1.770   5.129  0.6401 -0.0922  2.3790
   84MOL   H22435250   4.983   1.788   4.812 -0.2760 -0.1650 -0.1798
   84MOL   H22535251   5.055   1.892   4.945 -0.6469  0.7652 -2.1826
   84MOL   H22635252   4.906   1.790   4.973 -0.6069 -0.0955 -0.6261
   84MOL   H22735253   5.267   1.597   4.881  1.1161  0.6022 -1.5999
   84MOL   H22835254   5.207   1.722   4.779 -1.7249  1.1482  0.2654
   84MOL   H22935255   5.300   1.761   4.933  0.8887  1.1464 -2.9884
   84MOL   H23035256   5.020   1.535   4.816 -0.6376  1.3101  0.5244
   84MOL   H23135257   4.916   1.560   4.966  0.6460  0.3682  1.1912
   84MOL   H23235258   5.053   1.466   4.979  3.3381  0.4062 -1.0489
   84MOL   C23335259   4.932   1.784   5.251  0.2532 -0.0819 -0.3115
   84MOL   C23435260   4.990   1.932   5.243  0.7366 -0.4049 -0.2108
   84MOL   C23535261   4.887   2.036   5.291  0.5104 -0.4407 -0.3728
   84MOL   C23635262   4.738   2.034   5.243  0.6290 -0.2777 -0.6110
   84MOL   C23735263   4.730   2.016   5.085  0.0704 -0.1687  0.5490
   84MOL   C23835264   4.644   1.934   5.318 -1.1906 -0.8594  1.0939
   84MOL   C23935265   4.685   2.175   5.282 -0.2084 -0.3013 -0.1854
   84MOL   H24035266   4.888   1.784   5.350  0.9720  1.5167  0.0275
   84MOL   H24135267   4.847   1.781   5.183  2.2897 -2.8416 -2.8853
   84MOL   H24235268   5.008   1.951   5.137  1.8623 -1.2486 -0.1915
   84MOL   H24335269   4.873   2.022   5.398  3.2289 -0.3578  0.0288
   84MOL   H24435270   4.929   2.136   5.277 -2.1130  0.6174 -1.0531
   84MOL   H24535271   4.795   2.087   5.036 -0.4714  0.1871  0.3390
   84MOL   H24635272   4.628   2.036   5.052 -0.4958 -0.4602  2.0471
   84MOL   H24735273   4.766   1.915   5.062  2.9503  0.7341  0.9386
   84MOL   H24835274   4.700   1.842   5.333  1.7551  0.8030  0.7106
   84MOL   H24935275   4.622   1.968   5.419  0.1082  1.1902  0.7265
   84MOL   H25035276   4.550   1.918   5.265 -1.2889 -0.8358  1.2609
   84MOL   H25135277   4.733   2.264   5.241 -2.7636  0.8440 -0.7554
   84MOL   H25235278   4.580   2.178   5.254 -0.1947 -2.4331 -0.6057
   84MOL   H25335279   4.696   2.187   5.390 -0.6865 -0.2477 -0.1403
   84MOL   C25435280   5.123   1.952   5.320 -0.3065 -0.5965 -0.3761
   84MOL   C25535281   5.215   2.076   5.289  0.1686  0.0034 -0.1799
   84MOL   C25635282   5.284   2.062   5.149 -0.1498  0.2235  0.2056
   84MOL   C25735283   5.276   2.186   5.055  0.5027  0.0527 -0.1308
   84MOL   C25835284   5.328   2.140   4.918  0.6033  0.1074 -0.6413
   84MOL   C25935285   5.377   2.302   5.101 -0.1210 -0.0635 -0.2219
   84MOL   C26035286   5.132   2.246   5.042 -0.0633  0.6492  0.0043
   84MOL   H26135287   5.175   1.857   5.328 -0.0564 -0.3799  0.5710
   84MOL   H26235288   5.096   1.964   5.425 -1.1493 -3.1091 -0.2742
   84MOL   H26335289   5.152   2.165   5.283 -0.4695 -0.4221  0.0877
   84MOL   H26435290   5.384   2.031   5.178 -0.2144 -0.4444 -0.2698
   84MOL   H26535291   5.244   1.970   5.107  0.6607 -0.1759  0.2964
   84MOL   H26635292   5.326   2.228   4.853 -1.0393  1.9583  1.7801
   84MOL   H26735293   5.261   2.066   4.876  0.6427 -0.8512  0.9555
   84MOL   H26835294   5.433   2.111   4.917  0.9359  1.2371 -0.3285
   84MOL   H26935295   5.337   2.329   5.198 -0.9740 -0.9799 -0.3108
   84MOL   H27035296   5.380   2.382   5.027 -0.0487  0.0754 -0.0682
   84MOL   H27135297   5.482   2.273   5.115 -0.4376 -1.5687 -0.9053
   84MOL   H27235298   5.126   2.338   4.983  3.0723  0.7862 -0.1715
   84MOL   H27335299   5.064   2.176   4.994  1.7457 -0.0857 -1.5492
   84MOL   H27435300   5.077   2.275   5.132 -0.1543  0.1797  0.1014
   84MOL   C27535301   5.323   2.106   5.393 -0.7557  0.5047  0.0273
   84MOL   C27635302   5.280   2.163   5.532  0.2567 -0.1273 -0.2809
   84MOL   C27735303   5.389   2.135   5.644 -0.1934 -0.1701  0.8635
   84MOL   C27835304   5.373   2.014   5.739 -0.1846  0.1456  0.3884
   84MOL   C27935305   5.491   2.021   5.838  0.6148  0.8342  0.5889
   84MOL   C28035306   5.247   2.022   5.819  0.4731  0.1983 -0.5038
   84MOL   C28135307   5.374   1.884   5.657  0.6057  0.2301 -0.3711
   84MOL   H28235308   5.392   2.021   5.402  0.7750  1.6214 -0.9821
   84MOL   H28335309   5.384   2.182   5.346 -1.6223  1.1343 -0.0924
   84MOL   H28435310   5.185   2.111   5.541  0.6199 -0.6656  0.5607
   84MOL   H28535311   5.420   2.220   5.704 -1.8827  0.0953  1.4063
   84MOL   H28635312   5.483   2.116   5.593 -1.5105 -0.7652 -1.4222
   84MOL   H28735313   5.481   1.942   5.913 -0.6220 -0.3805 -0.8210
   84MOL   H28835314   5.588   2.004   5.790  0.2303  1.4604 -0.4302
   84MOL   H28935315   5.503   2.119   5.884  0.5875 -0.5374  3.6511
   84MOL   H29035316   5.157   2.016   5.757  0.0298 -0.5494  0.2077
   84MOL   H29135317   5.251   2.116   5.876 -1.2825  1.8274 -2.9619
   84MOL   H29235318   5.233   1.943   5.892  0.6488  0.0605 -0.6196
   84MOL   H29335319   5.473   1.859   5.620  0.8510 -1.1066  1.1418
   84MOL   H29435320   5.305   1.890   5.572 -0.2899 -0.8996  0.2550
   84MOL   H29535321   5.352   1.793   5.713 -0.7388  1.5230  1.2720
   84MOL   C29635322   5.255   2.311   5.513  0.4222 -0.1064 -0.3279
   84MOL   C29735323   5.122   2.373   5.577 -0.2825  0.0609  0.0675
   84MOL   C29835324   5.093   2.522   5.542  0.1647 -0.0540  0.0057
   84MOL   C29935325   5.026   2.559   5.410  0.2636 -0.1023  0.0318
   84MOL   C30035326   5.121   2.563   5.292  0.1951 -0.1238 -1.3570
   84MOL   C30135327   4.919   2.457   5.369  0.0401  0.1436 -1.3728
   84MOL   C30235328   4.964   2.695   5.425 -0.1760  0.1576  0.2083
   84MOL   H30335329   5.243   2.329   5.406 -0.3693 -0.1563 -0.2488
   84MOL   H30435330   5.334   2.378   5.546 -0.4926  0.6325  0.3962
   84MOL   H30535331   5.037   2.313   5.547 -0.9104  0.3992  1.1215
   84MOL   H30635332   5.190   2.571   5.546 -0.1376  0.3992  3.6373
   84MOL   H30735333   5.038   2.575   5.619  0.7658  0.5230  0.0420
   84MOL   H30835334   5.215   2.608   5.324  0.3105  2.1535 -4.5754
   84MOL   H30935335   5.123   2.457   5.267 -1.2650 -0.7027  0.8516
   84MOL   H31035336   5.074   2.615   5.208 -0.5523  1.4415  0.0068
   84MOL   H31135337   4.831   2.455   5.434 -0.2401  2.4122 -1.6252
   84MOL   H31235338   4.869   2.485   5.276  0.1513 -0.3801 -1.5902
   84MOL   H31335339   4.954   2.357   5.344  1.8619 -0.8117  4.3452
   84MOL   H31435340   5.038   2.773   5.438  1.5836 -1.3311 -0.6205
   84MOL   H31535341   4.914   2.727   5.333 -1.3635 -1.0618  0.4064
   84MOL   H31635342   4.885   2.701   5.499 -0.6267  2.4589 -0.4254
   84MOL   C31735343   5.128   2.357   5.735 -0.1954 -0.1806  0.2053
   84MOL   C31835344   5.000   2.374   5.818  0.1801  0.7488 -0.3281
   84MOL   C31935345   4.922   2.242   5.828  1.1171 -0.5543  0.1640
   84MOL   C32035346   4.764   2.252   5.801 -0.1493  0.0570 -1.0353
   84MOL   C32135347   4.712   2.346   5.905  0.4316 -0.2476  1.1563
   84MOL   C32235348   4.688   2.124   5.822  0.0823  0.1030 -0.1404
   84MOL   C32335349   4.732   2.287   5.656  0.4209  0.9091 -0.2083
   84MOL   H32435350   5.163   2.254   5.750  0.1757  0.0328  0.8136
   84MOL   H32535351   5.204   2.426   5.772  1.2182 -0.1974 -2.5001
   84MOL   H32635352   4.946   2.453   5.766 -0.4548 -1.1091 -2.5947
   84MOL   H32735353   4.951   2.200   5.924  0.3737  0.9280  1.0476
   84MOL   H32835354   4.958   2.174   5.750  0.9147 -0.4050 -0.0588
   84MOL   H32935355   4.749   2.329   6.007  1.5957 -2.0261  0.4666
   84MOL   H33035356   4.603   2.349   5.901  0.5068  1.3813 -0.2367
   84MOL   H33135357   4.749   2.445   5.883 -0.4736 -0.0778  0.3639
   84MOL   H33235358   4.588   2.122   5.778  0.5658 -3.2311 -1.2549
   84MOL   H33335359   4.736   2.046   5.764 -0.5866  0.2391 -0.8891
   84MOL   H33435360   4.692   2.078   5.921  0.7350 -0.8203 -0.5876
   84MOL   H33535361   4.763   2.209   5.586 -0.3806 -0.6858  1.1883
   84MOL   H33635362   4.788   2.379   5.639 -0.7431  2.0103  1.7061
   84MOL   H33735363   4.625   2.301   5.641  0.0223  0.6745  2.3029
   84MOL   C33835364   5.047   2.417   5.958 -1.1031  0.0327  0.1405
   84MOL   C33935365   5.091   2.562   5.978 -0.4763  0.5898 -0.7272
   84MOL   C34035366   5.184   2.568   6.103 -0.1003  0.5409 -0.8053
   84MOL   C34135367   5.338   2.574   6.080  0.1757  0.0565 -0.3259
   84MOL   C34235368   5.371   2.708   6.015  0.1583 -0.2432 -0.3324
   84MOL   C34335369   5.410   2.582   6.218 -0.1882 -0.5532 -0.1354
   84MOL   C34435370   5.394   2.470   5.987  0.2134 -0.6672 -0.5398
   84MOL   H34535371   5.131   2.355   5.991 -0.2710  0.4029 -1.2655
   84MOL   H34635372   4.973   2.376   6.028 -0.4080 -1.9843 -0.2704
   84MOL   H34735373   5.137   2.601   5.888 -0.2817  0.3996 -0.7111
   84MOL   H34835374   5.162   2.484   6.169 -4.5736  2.3618  0.2064
   84MOL   H34935375   5.159   2.652   6.168 -0.0719  0.3917 -0.6027
   84MOL   H35035376   5.479   2.714   6.000  0.4096 -2.4071  0.4067
   84MOL   H35135377   5.328   2.714   5.915  1.6128  1.2357 -0.8899
   84MOL   H35235378   5.338   2.796   6.071 -2.6170 -1.2140 -0.3309
   84MOL   H35335379   5.358   2.645   6.290  0.1329  0.3768 -0.7112
   84MOL   H35435380   5.400   2.488   6.271 -3.1048  1.1231  2.4340
   84MOL   H35535381   5.516   2.605   6.209 -0.9712  2.9503 -1.1994
   84MOL   H35635382   5.503   2.477   5.999  0.2248 -0.9065 -0.5123
   84MOL   H35735383   5.360   2.370   6.014 -3.1996  0.4760 -0.4141
   84MOL   H35835384   5.375   2.493   5.883  1.2673 -1.1417 -0.8473
   84MOL   C35935385   4.954   2.639   6.001  0.2006  0.7279  0.0880
   84MOL   C36035386   4.970   2.794   6.006 -0.0098  0.2525 -0.4642
   84MOL   C36135387   4.842   2.869   6.063 -0.8903 -0.1280  0.1084
   84MOL   C36235388   4.841   2.916   6.218 -0.1911 -0.1617  0.6345
   84MOL   C36335389   4.941   3.039   6.228 -0.0792 -0.4871  0.0085
   84MOL   C36435390   4.877   2.812   6.320 -0.0149  0.0009  0.5070
   84MOL   C36535391   4.696   2.964   6.250 -0.5465  0.5385  0.8894
   84MOL   H36635392   4.893   2.601   6.083 -2.5003  1.4197 -1.5384
   84MOL   H36735393   4.892   2.619   5.913 -0.2702 -0.6877  0.7307
   84MOL   H36835394   5.053   2.819   6.073  0.4296  0.5115 -1.0977
   84MOL   H36935395   4.808   2.950   5.999 -0.0669  0.1014 -0.0341
   84MOL   H37035396   4.757   2.802   6.048 -0.2876 -0.5495 -1.5692
   84MOL   H37135397   4.910   3.129   6.175 -0.2492  0.4966  1.7249
   84MOL   H37235398   4.960   3.080   6.328  0.4467 -0.4588 -0.1034
   84MOL   H37335399   5.027   3.019   6.165 -1.8566 -1.3017 -2.1935
   84MOL   H37435400   4.977   2.774   6.300  0.3889  2.1289 -1.6592
   84MOL   H37535401   4.805   2.731   6.310 -1.3989  1.1729  0.7559
   84MOL   H37635402   4.860   2.850   6.421 -1.1071 -1.6204  0.9659
   84MOL   H37735403   4.659   3.035   6.175 -0.0433  0.6842  0.7783
   84MOL   H37835404   4.694   3.003   6.352  1.0589 -0.2260  1.2193
   84MOL   H37935405   4.634   2.874   6.253  1.2027 -0.6929  0.6759
   84MOL   C38035406   5.005   2.846   5.865 -0.2428  0.2752 -0.9041
   84MOL   C38135407   5.088   2.977   5.852  0.0698  0.3800 -0.2512
   84MOL   C38235408   5.009   3.100   5.796  0.2057 -0.4435 -0.3440
   84MOL   C38335409   5.062   3.244   5.810 -0.3259 -0.2481  0.2155
   84MOL   C38435410   5.143   3.278   5.943 -0.0641  0.4080  0.1941
   84MOL   C38535411   4.940   3.342   5.807 -0.6124  0.1401  0.1929
   84MOL   C38635412   5.148   3.284   5.686 -0.3257 -0.0144 -0.0557
   84MOL   H38735413   4.914   2.862   5.807  0.5899  0.6745 -2.1023
   84MOL   H38835414   5.059   2.769   5.810 -1.1627 -0.7521 -0.4191
   84MOL   H38935415   5.129   3.007   5.948 -1.0066 -1.3533  0.7723
   84MOL   H39035416   4.981   3.082   5.692  1.0373  0.4863 -0.7385
   84MOL   H39135417   4.926   3.100   5.866  1.4227 -0.4900  1.1217
   84MOL   H39235418   5.233   3.217   5.947  1.2040  2.1962 -0.6702
   84MOL   H39335419   5.182   3.379   5.957  2.3250 -0.3570 -0.7039
   84MOL   H39435420   5.082   3.253   6.030 -0.0683 -0.9938 -0.2019
   84MOL   H39535421   4.854   3.331   5.740 -2.1870  2.2768  1.8001
   84MOL   H39635422   4.984   3.441   5.815 -0.1298 -0.0721  0.2061
   84MOL   H39735423   4.898   3.339   5.908  2.0012  1.6468  1.3579
   84MOL   H39835424   5.237   3.227   5.661  1.4813  2.6559  0.0269
   84MOL   H39935425   5.190   3.382   5.712  0.5784 -0.3901 -0.0714
   84MOL   H40035426   5.080   3.286   5.601 -2.0756 -0.9517  1.3136
   84MOL   C40135427   5.221   2.963   5.769 -0.2051 -0.8884  0.0536
   84MOL   C40235428   5.220   2.949   5.616  0.6037 -0.2383  0.6243
   84MOL   C40335429   5.352   2.898   5.552  0.9792 -0.0512 -0.6838
   84MOL   C40435430   5.382   2.948   5.407  0.8115 -0.1801  0.0766
   84MOL   C40535431   5.264   2.912   5.318  0.4017  0.3605 -0.0103
   84MOL   C40635432   5.507   2.869   5.361  0.5102 -0.5935 -0.2499
   84MOL   C40735433   5.403   3.106   5.406 -0.1168 -0.0589  0.1747
   84MOL   H40835434   5.291   3.046   5.775 -2.4523  1.1259 -0.5306
   84MOL   H40935435   5.278   2.887   5.821  0.6113 -0.2873  0.0393
   84MOL   H41035436   5.146   2.874   5.588  0.8810 -1.1413  2.2824
   84MOL   H41135437   5.354   2.789   5.550  1.3465 -0.1708  3.0528
   84MOL   H41235438   5.425   2.943   5.620 -2.0845  1.2318  1.8928
   84MOL   H41335439   5.189   2.991   5.326  0.7146  0.8208 -1.4792
   84MOL   H41435440   5.223   2.816   5.350 -4.7118  2.6867  0.9773
   84MOL   H41535441   5.291   2.903   5.213 -0.7526  0.4114 -0.3138
   84MOL   H41635442   5.598   2.883   5.420  1.2617 -2.3557 -0.9300
   84MOL   H41735443   5.523   2.889   5.255 -1.2080  2.5553  0.0429
   84MOL   H41835444   5.484   2.762   5.357  0.3459 -0.5353 -0.9837
   84MOL   H41935445   5.418   3.136   5.302 -0.4928 -1.1173 -0.1820
   84MOL   H42035446   5.320   3.160   5.450 -2.6199 -2.1927 -1.7525
   84MOL   H42135447   5.496   3.137   5.455 -0.6347  0.7885  0.6426
   84MOL   H42235448   5.178   3.042   5.576 -0.9345 -0.9688  0.5103
   85MOL     C135449   6.459   2.973   2.124  0.1855 -0.5204 -0.4158
   85MOL     C235450   6.580   3.069   2.135  1.0781  0.2467 -0.2411
   85MOL     C335451   6.558   3.165   2.257 -0.0522 -0.0177 -1.1272
   85MOL     C435452   6.629   3.144   2.396  0.3159  0.1711  0.4989
   85MOL     C535453   6.777   3.137   2.389  0.2384 -0.3960  0.3178
   85MOL     C635454   6.574   3.257   2.499 -0.0118  0.0529 -0.1404
   85MOL     C735455   6.584   3.011   2.447  0.4366  0.3346  0.0150
   85MOL     H835456   6.364   3.021   2.105 -0.1891 -0.6795  0.9866
   85MOL     H935457   6.474   2.895   2.049  2.8244  0.3886 -0.9184
   85MOL    H1035458   6.670   3.011   2.151  0.9205 -0.3594 -1.5044
   85MOL    H1135459   6.451   3.177   2.269 -0.3103 -1.6226 -1.7766
   85MOL    H1235460   6.584   3.264   2.219 -1.5270  0.8074 -0.0193
   85MOL    H1335461   6.826   3.118   2.485 -0.0364 -1.4323  0.2679
   85MOL    H1435462   6.832   3.228   2.369 -0.0788 -0.4200 -0.6684
   85MOL    H1535463   6.824   3.067   2.320 -1.9070 -1.9908  0.4241
   85MOL    H1635464   6.587   3.353   2.449  0.0264 -0.4236 -1.0475
   85MOL    H1735465   6.471   3.238   2.529  0.0205  1.2673  0.7577
   85MOL    H1835466   6.644   3.266   2.583  1.0184 -1.1723 -0.8487
   85MOL    H1935467   6.607   2.996   2.553 -0.1472  0.0634  0.1057
   85MOL    H2035468   6.638   2.931   2.397  0.3313 -0.0368  0.4885
   85MOL    H2135469   6.477   2.997   2.432  0.1837  2.0723  0.1225
   85MOL    H2235470   6.445   2.931   2.223  0.1895 -0.6363 -0.4638
   85MOL    C2335471   6.584   3.141   2.000 -0.3683 -0.0657 -0.2369
   85MOL    C2435472   6.717   3.141   1.931 -0.3712  0.3580 -0.7192
   85MOL    C2535473   6.799   3.261   1.995  0.3543 -0.1866  0.1509
   85MOL    C2635474   6.948   3.272   1.981 -0.0157  0.4657 -0.1787
   85MOL    C2735475   6.999   3.385   2.075 -0.3726  0.2934 -0.1599
   85MOL    C2835476   7.016   3.145   2.034  0.3688 -0.2512 -0.6401
   85MOL    C2935477   7.003   3.294   1.843 -0.0775  0.1552 -0.4057
   85MOL    H3035478   6.508   3.101   1.933  0.3101  0.2735 -1.2234
   85MOL    H3135479   6.537   3.238   2.016  1.3831  0.8131 -0.3068
   85MOL    H3235480   6.758   3.045   1.964  0.0283  0.9775  0.6123
   85MOL    H3335481   6.778   3.258   2.102 -0.4231  1.2767  0.0511
   85MOL    H3435482   6.754   3.354   1.960  0.2361 -1.1488 -2.3567
   85MOL    H3535483   6.969   3.380   2.180 -1.1539 -0.2168 -0.3995
   85MOL    H3635484   7.104   3.394   2.051 -1.1445 -0.5673 -4.1038
   85MOL    H3735485   6.955   3.484   2.059 -0.7715  0.1067 -0.2196
   85MOL    H3835486   6.971   3.060   1.983  0.0008 -1.1511  1.1551
   85MOL    H3935487   7.125   3.149   2.026  0.5322 -1.5006  0.6783
   85MOL    H4035488   7.002   3.137   2.142  2.8155 -1.3896 -0.3747
   85MOL    H4135489   6.989   3.211   1.773 -1.7019  0.7851 -0.8606
   85MOL    H4235490   7.110   3.311   1.837 -0.0953 -0.2757 -2.1541
   85MOL    H4335491   6.949   3.373   1.790 -0.4698  0.8430  1.0048
   85MOL    C4435492   6.704   3.155   1.772 -0.0033 -0.3380 -0.0254
   85MOL    C4535493   6.672   3.032   1.692 -0.4987  0.3502 -0.3723
   85MOL    C4635494   6.797   2.937   1.689  0.4003 -0.0290  0.1470
   85MOL    C4735495   6.793   2.775   1.709  0.2293  0.3126  1.0363
   85MOL    C4835496   6.732   2.740   1.849  0.0005 -0.3764  0.3921
   85MOL    C4935497   6.934   2.713   1.700 -0.2134  0.1023 -0.0392
   85MOL    C5035498   6.698   2.714   1.607  0.1714  0.0717 -0.2192
   85MOL    H5135499   6.616   3.217   1.753 -0.9566 -2.1724 -1.7743
   85MOL    H5235500   6.795   3.200   1.731 -0.7537  0.6605 -0.5997
   85MOL    H5335501   6.589   2.978   1.738 -1.2461  1.3829 -0.4845
   85MOL    H5435502   6.874   2.969   1.759  0.6906 -0.7960  0.1846
   85MOL    H5535503   6.858   2.955   1.600  2.2735  0.1360  1.4459
   85MOL    H5635504   6.627   2.766   1.863 -0.1292 -2.3045  3.4859
   85MOL    H5735505   6.782   2.798   1.926 -3.1174  0.6210  1.7361
   85MOL    H5835506   6.734   2.637   1.886  0.0155 -0.2205  0.8325
   85MOL    H5935507   6.943   2.613   1.742  0.0987  0.5896  1.0780
   85MOL    H6035508   6.966   2.713   1.596 -0.0341  1.6168  0.0105
   85MOL    H6135509   7.012   2.762   1.758 -1.1676  1.5983 -0.0045
   85MOL    H6235510   6.732   2.734   1.505 -1.4282 -1.0413 -0.9768
   85MOL    H6335511   6.679   2.608   1.621  2.3160 -0.4179 -0.8558
   85MOL    H6435512   6.602   2.764   1.608 -0.2279 -0.6268 -2.3796
   85MOL    C6535513   6.636   3.073   1.547  0.1572 -0.5060 -0.2712
   85MOL    C6635514   6.504   3.152   1.534 -0.8676 -0.1614  0.5301
   85MOL    C6735515   6.388   3.043   1.520 -0.0580  0.2143 -0.3239
   85MOL    C6835516   6.261   3.063   1.607 -0.1442 -0.0422 -0.0586
   85MOL    C6935517   6.173   3.184   1.569 -0.4748  0.1140  0.3646
   85MOL    C7035518   6.170   2.936   1.595 -0.4999  0.0213  0.2293
   85MOL    C7135519   6.292   3.073   1.758  0.5186 -0.0164  0.4297
   85MOL    H7235520   6.720   3.127   1.503 -0.1733 -0.3571 -0.7190
   85MOL    H7335521   6.633   2.986   1.481  2.3355 -0.6253 -0.2770
   85MOL    H7435522   6.485   3.212   1.622  2.1953 -0.1326  1.2003
   85MOL    H7535523   6.428   2.945   1.548 -0.2821  0.0514 -0.5671
   85MOL    H7635524   6.366   3.019   1.416 -1.6274  3.5418 -0.8242
   85MOL    H7735525   6.143   3.183   1.465 -0.8058 -1.8230  0.4606
   85MOL    H7835526   6.082   3.182   1.629 -0.1917 -0.9519  0.7797
   85MOL    H7935527   6.226   3.274   1.601 -1.6422 -0.2537  3.5537
   85MOL    H8035528   6.141   2.917   1.492 -0.5753  1.4327 -0.0176
   85MOL    H8135529   6.080   2.948   1.655  0.4611  0.2699  1.6584
   85MOL    H8235530   6.215   2.847   1.640  0.2787  0.5270  0.4669
   85MOL    H8335531   6.206   3.082   1.825  0.3334 -1.1112  0.3437
   85MOL    H8435532   6.355   3.159   1.782 -0.8675  0.7038  1.5203
   85MOL    H8535533   6.343   2.980   1.785  1.5992  1.0153  2.0894
   85MOL    C8635534   6.505   3.246   1.413  0.1368 -0.7035  0.3048
   85MOL    C8735535   6.476   3.396   1.452  0.5492 -0.1377 -0.0665
   85MOL    C8835536   6.442   3.481   1.330  0.0292  0.0050 -0.6093
   85MOL    C8935537   6.303   3.505   1.278 -0.4907  0.2375  0.2824
   85MOL    C9035538   6.216   3.567   1.385 -0.0189  0.6780  0.0964
   85MOL    C9135539   6.226   3.381   1.226 -0.4856  0.5097 -0.0195
   85MOL    C9235540   6.317   3.611   1.166 -0.4129 -0.0990  0.0898
   85MOL    H9335541   6.427   3.229   1.339 -0.2454 -0.4104  0.6328
   85MOL    H9435542   6.602   3.248   1.363 -0.0074 -2.5622 -0.0679
   85MOL    H9535543   6.390   3.396   1.519  0.2763  1.0401 -0.4012
   85MOL    H9635544   6.506   3.441   1.251  0.7554 -0.3546  0.1616
   85MOL    H9735545   6.478   3.582   1.348  0.4347 -0.6136  2.1249
   85MOL    H9835546   6.124   3.604   1.340  0.0794  0.6965 -0.0904
   85MOL    H9935547   6.259   3.651   1.440  0.5416 -0.3284  1.2156
   85MOL   H10035548   6.179   3.495   1.456 -0.2422  1.0028  0.3114
   85MOL   H10135549   6.267   3.348   1.130  0.6638  1.2929  0.1959
   85MOL   H10235550   6.229   3.295   1.292 -0.0397  0.7467  0.2664
   85MOL   H10335551   6.123   3.412   1.205 -0.6355  1.5580  2.1134
   85MOL   H10435552   6.339   3.709   1.209 -2.0383 -0.5915  2.1474
   85MOL   H10535553   6.398   3.597   1.096  0.9663  2.6062  1.0525
   85MOL   H10635554   6.220   3.623   1.118 -1.1876 -0.7776  1.4296
   85MOL   C10735555   6.591   3.447   1.540 -0.2643  0.0089 -0.3740
   85MOL   C10835556   6.564   3.557   1.642 -0.0392  0.8219  0.0388
   85MOL   C10935557   6.484   3.506   1.769 -0.9143 -0.7826  0.6864
   85MOL   C11035558   6.391   3.595   1.848 -0.0903 -0.6050 -0.4443
   85MOL   C11135559   6.367   3.530   1.986  0.0982 -0.0241 -0.2857
   85MOL   C11235560   6.260   3.610   1.769 -0.4326 -0.0176 -0.1417
   85MOL   C11335561   6.453   3.733   1.878 -0.0884 -0.3131  0.6370
   85MOL   H11435562   6.672   3.480   1.475  0.9765 -2.5131 -0.1689
   85MOL   H11535563   6.642   3.371   1.599 -0.1997 -1.2277 -2.0155
   85MOL   H11635564   6.512   3.638   1.589 -0.3959  0.6086  0.0625
   85MOL   H11735565   6.431   3.416   1.737 -2.1067 -0.4079  1.5768
   85MOL   H11835566   6.559   3.470   1.839 -0.0740  0.6635  0.5391
   85MOL   H11935567   6.456   3.493   2.036 -0.0201  0.2752  0.1536
   85MOL   H12035568   6.314   3.587   2.062 -1.4749  0.8280 -1.9804
   85MOL   H12135569   6.297   3.447   1.975 -0.9270  0.4299  2.4990
   85MOL   H12235570   6.289   3.640   1.669 -0.3969  0.0613 -0.1077
   85MOL   H12335571   6.206   3.684   1.828  3.2529  1.2711  1.7677
   85MOL   H12435572   6.210   3.514   1.756  0.2300 -0.7574  2.4766
   85MOL   H12535573   6.547   3.727   1.934  0.8557  1.3176 -0.7143
   85MOL   H12635574   6.395   3.797   1.945  2.0420  0.8526  1.4319
   85MOL   H12735575   6.474   3.788   1.786 -1.2908  0.9950  1.1308
   85MOL   C12835576   6.701   3.620   1.681  0.1402  1.0630  0.3829
   85MOL   C12935577   6.741   3.767   1.629 -0.4435 -0.1327  0.4761
   85MOL   C13035578   6.894   3.796   1.643 -0.3738  0.0694 -0.0707
   85MOL   C13135579   6.957   3.825   1.782  0.1952  0.1753 -0.5253
   85MOL   C13235580   7.106   3.854   1.757 -0.3375  0.0646 -0.0780
   85MOL   C13335581   6.942   3.721   1.891 -0.2593  0.3337 -0.2225
   85MOL   C13435582   6.894   3.960   1.831  0.4474 -0.2396 -0.0638
   85MOL   H13535583   6.778   3.552   1.643 -0.6540  0.8554 -0.8641
   85MOL   H13635584   6.718   3.609   1.788  1.0853  0.0677  0.1508
   85MOL   H13735585   6.683   3.841   1.686 -1.0462 -0.9104  0.8768
   85MOL   H13835586   6.943   3.718   1.584  1.5456  1.0330  0.1991
   85MOL   H13935587   6.921   3.883   1.583 -0.5669 -0.8461 -1.5368
   85MOL   H14035588   7.163   3.865   1.849 -1.5295  0.0574  0.6582
   85MOL   H14135589   7.127   3.947   1.705 -0.0012  0.6307  1.0649
   85MOL   H14235590   7.142   3.776   1.690 -2.3449 -0.3223 -0.7373
   85MOL   H14335591   6.840   3.703   1.927  0.2675 -0.4427  0.9242
   85MOL   H14435592   7.010   3.725   1.976  0.0401 -0.1494 -0.4414
   85MOL   H14535593   6.974   3.626   1.848 -2.3592 -1.5022  2.0639
   85MOL   H14635594   6.945   4.002   1.918 -3.0048  3.8153  0.1963
   85MOL   H14735595   6.908   4.033   1.751 -0.5551  0.6430  0.5438
   85MOL   H14835596   6.786   3.952   1.848  0.7661 -2.5373  1.0385
   85MOL   C14935597   6.679   3.795   1.484  0.5764 -0.4271  0.4500
   85MOL   C15035598   6.749   3.900   1.389 -0.0453 -0.1508  0.7270
   85MOL   C15135599   6.681   3.910   1.241  0.0249  0.5049 -0.0811
   85MOL   C15235600   6.733   3.811   1.134  0.0786  0.8937  0.6777
   85MOL   C15335601   6.635   3.820   1.007 -0.4186 -0.1862  0.1311
   85MOL   C15435602   6.758   3.664   1.178 -0.1910  0.0132 -0.7130
   85MOL   C15535603   6.866   3.878   1.092  0.0003 -0.7901 -0.4131
   85MOL   H15635604   6.579   3.837   1.494 -0.3574 -2.0934 -1.4151
   85MOL   H15735605   6.676   3.700   1.430 -1.4002 -0.3023  0.2844
   85MOL   H15835606   6.853   3.869   1.374  0.3941  1.6609 -0.0863
   85MOL   H15935607   6.690   4.014   1.208 -0.7763  0.4129 -0.6184
   85MOL   H16035608   6.577   3.884   1.259  0.5392 -0.7083  1.1812
   85MOL   H16135609   6.694   3.813   0.916 -0.7917  1.0077 -0.2130
   85MOL   H16235610   6.562   3.742   0.986  0.3627 -0.3092 -2.2497
   85MOL   H16335611   6.577   3.912   0.996  1.1543  0.9568  1.1680
   85MOL   H16435612   6.822   3.657   1.266  0.0314 -2.0658 -1.0279
   85MOL   H16535613   6.807   3.615   1.094 -2.3221  0.5781 -2.3271
   85MOL   H16635614   6.665   3.608   1.191  1.9393 -3.2043  1.4170
   85MOL   H16735615   6.945   3.874   1.167  1.3048  0.7808 -1.6852
   85MOL   H16835616   6.912   3.809   1.022 -0.5149 -0.7705 -0.7740
   85MOL   H16935617   6.858   3.981   1.059 -0.0180 -0.3466  0.9263
   85MOL   C17035618   6.755   4.040   1.461  0.0909 -0.1292 -0.2275
   85MOL   C17135619   6.851   4.145   1.399 -0.0745 -0.2358 -0.0502
   85MOL   C17235620   7.007   4.130   1.435 -0.2059  0.1610 -0.9933
   85MOL   C17335621   7.115   4.177   1.337  0.1322  0.0698 -0.1133
   85MOL   C17435622   7.253   4.133   1.383  0.0694 -0.1481 -0.5470
   85MOL   C17535623   7.114   4.326   1.309 -0.3202 -0.6842 -0.2423
   85MOL   C17635624   7.103   4.116   1.197  0.2532 -1.1896  0.3058
   85MOL   H17735625   6.786   4.036   1.565  1.2810  1.7019 -0.4925
   85MOL   H17835626   6.653   4.078   1.459  0.7782  1.7425 -1.5546
   85MOL   H17935627   6.839   4.168   1.293 -2.5260 -1.0371  0.0261
   85MOL   H18035628   7.028   4.158   1.538 -1.0128 -1.2003 -0.4375
   85MOL   H18135629   7.012   4.021   1.433 -1.6725  0.0732 -0.7707
   85MOL   H18235630   7.245   4.024   1.390  2.4273 -0.2134  1.6280
   85MOL   H18335631   7.329   4.165   1.311  0.2360 -2.2307 -1.3499
   85MOL   H18435632   7.277   4.168   1.483  0.1267 -1.7172 -0.0012
   85MOL   H18535633   7.014   4.362   1.285 -0.3003 -0.9394 -0.7268
   85MOL   H18635634   7.155   4.391   1.385  1.0184  0.0613 -1.5825
   85MOL   H18735635   7.170   4.343   1.217  1.9736 -1.6079  0.9425
   85MOL   H18835636   7.023   4.133   1.125  1.3469 -2.0409 -1.1248
   85MOL   H18935637   7.190   4.145   1.139 -0.9843  0.7360 -0.6391
   85MOL   H19035638   7.113   4.008   1.213 -0.4094 -1.4160 -0.7299
   85MOL   C19135639   6.799   4.278   1.470  0.0310 -0.0433 -0.6433
   85MOL   C19235640   6.676   4.347   1.403 -0.6438  0.3147  0.0950
   85MOL   C19335641   6.726   4.427   1.275  0.1130  0.0486  0.3472
   85MOL   C19435642   6.625   4.431   1.155  0.5212  0.6749 -0.4143
   85MOL   C19535643   6.702   4.505   1.041  0.3827 -0.1826 -0.0694
   85MOL   C19635644   6.505   4.515   1.184 -0.2024 -0.0735 -0.3921
   85MOL   C19735645   6.586   4.293   1.098 -0.2354  0.2539 -0.3159
   85MOL   H19835646   6.772   4.258   1.574  0.5979 -0.9842 -0.6699
   85MOL   H19935647   6.876   4.354   1.483  2.6698 -2.6168 -0.7757
   85MOL   H20035648   6.605   4.268   1.380 -0.5101  0.0819  0.4863
   85MOL   H20135649   6.817   4.376   1.244 -0.4908 -0.6778 -0.2380
   85MOL   H20235650   6.761   4.526   1.306 -1.2995  0.1412  1.7098
   85MOL   H20335651   6.727   4.604   1.079  1.5210 -0.3661 -0.3436
   85MOL   H20435652   6.799   4.469   1.009  1.6276  2.0394  1.0981
   85MOL   H20535653   6.642   4.532   0.954  1.8073  0.3268 -0.8955
   85MOL   H20635654   6.455   4.533   1.088  0.5244 -0.5254 -0.8682
   85MOL   H20735655   6.429   4.473   1.250 -2.4248  3.6302 -0.4431
   85MOL   H20835656   6.531   4.609   1.230  0.8546 -0.5397 -0.0208
   85MOL   H20935657   6.670   4.226   1.084 -0.7148 -0.0380 -1.8990
   85MOL   H21035658   6.511   4.245   1.160  1.1576 -0.9468  0.4725
   85MOL   H21135659   6.543   4.308   0.999  0.8603  3.0283 -0.4309
   85MOL   C21235660   6.611   4.446   1.506 -1.2519  0.3675 -0.7187
   85MOL   C21335661   6.468   4.407   1.575 -0.6329 -0.9815  0.0373
   85MOL   C21435662   6.407   4.529   1.659 -0.0593 -0.4377 -0.5379
   85MOL   C21535663   6.309   4.634   1.599  0.2151  0.4821 -0.2884
   85MOL   C21635664   6.266   4.728   1.722  0.3311 -0.8901 -0.0905
   85MOL   C21735665   6.366   4.711   1.487 -0.9095 -0.1682  0.5732
   85MOL   C21835666   6.180   4.570   1.538  0.5092  0.5236 -0.1577
   85MOL   H21935667   6.683   4.483   1.579 -0.2568 -1.0874 -0.9438
   85MOL   H22035668   6.597   4.546   1.466  0.2303  2.6126  3.9931
   85MOL   H22135669   6.400   4.399   1.489 -0.4938 -0.8017 -0.0894
   85MOL   H22235670   6.492   4.576   1.710 -1.3498 -0.6269  1.8642
   85MOL   H22335671   6.352   4.478   1.738 -0.1201 -1.7424 -1.4165
   85MOL   H22435672   6.340   4.805   1.746  0.4152 -0.6634 -1.0706
   85MOL   H22535673   6.254   4.671   1.814 -0.3676  0.1333  0.4536
   85MOL   H22635674   6.171   4.778   1.704  1.6755  2.5684  1.9790
   85MOL   H22735675   6.308   4.802   1.479  0.1148  0.4776  0.3922
   85MOL   H22835676   6.467   4.733   1.521 -0.8426 -0.3168  0.4763
   85MOL   H22935677   6.375   4.653   1.395 -2.3328 -2.1777  1.6609
   85MOL   H23035678   6.119   4.531   1.620  1.0912 -1.1062 -0.4676
   85MOL   H23135679   6.194   4.489   1.466 -1.5418 -0.4125  0.4465
   85MOL   H23235680   6.115   4.643   1.491  1.5918 -0.0110 -2.5339
   85MOL   C23335681   6.463   4.280   1.659 -0.3937 -0.2434 -0.6834
   85MOL   C23435682   6.335   4.197   1.657  0.9864  0.2493  0.5212
   85MOL   C23535683   6.324   4.108   1.524 -0.1687  0.3988  0.9280
   85MOL   C23635684   6.188   4.065   1.461 -0.9024 -0.2737 -0.4256
   85MOL   C23735685   6.197   4.005   1.322  0.3146 -0.2243 -0.1874
   85MOL   C23835686   6.105   3.962   1.540 -0.3098  0.2161 -0.1429
   85MOL   C23935687   6.101   4.189   1.453  0.2455  0.7744 -1.0592
   85MOL   H24035688   6.495   4.298   1.762 -2.1005 -0.2173 -0.1437
   85MOL   H24135689   6.547   4.216   1.631  0.0200  1.0971 -2.5865
   85MOL   H24235690   6.253   4.269   1.653  1.5592  0.8075 -2.1966
   85MOL   H24335691   6.374   4.157   1.440  1.1995 -2.0005  0.2828
   85MOL   H24435692   6.379   4.014   1.531 -1.8633 -0.6006  0.9665
   85MOL   H24535693   6.248   3.909   1.321 -0.0090 -0.4165 -3.6045
   85MOL   H24635694   6.250   4.075   1.258  0.1545 -0.6882 -0.8197
   85MOL   H24735695   6.095   3.985   1.289 -0.4533 -0.5216  2.1952
   85MOL   H24835696   6.017   3.928   1.485 -0.2601 -0.0439 -0.0609
   85MOL   H24935697   6.159   3.868   1.549  0.0606  0.6975  3.0099
   85MOL   H25035698   6.065   3.996   1.635 -0.9819  0.2204 -0.4266
   85MOL   H25135699   6.140   4.274   1.398  0.2919  0.9084 -0.8216
   85MOL   H25235700   5.995   4.170   1.441  0.2096  0.9571 -1.0325
   85MOL   H25335701   6.093   4.244   1.547  2.0912 -2.8236  1.3515
   85MOL   C25435702   6.329   4.118   1.787  0.3608  0.1044 -0.2788
   85MOL   C25535703   6.246   4.180   1.902 -0.7830  0.5207  0.8009
   85MOL   C25635704   6.280   4.106   2.040  0.6515 -0.5227  0.4297
   85MOL   C25735705   6.364   4.188   2.142 -0.2353 -0.4433 -0.0901
   85MOL   C25835706   6.285   4.306   2.190 -0.1655  0.4379 -0.9045
   85MOL   C25935707   6.493   4.250   2.084  0.6254  0.1766  0.8973
   85MOL   C26035708   6.409   4.096   2.255 -0.8076 -0.0911 -0.0230
   85MOL   H26135709   6.429   4.106   1.828  0.5568  1.5997 -0.2914
   85MOL   H26235710   6.285   4.019   1.772 -0.5544  0.3254  0.9234
   85MOL   H26335711   6.269   4.287   1.906  0.4708  0.2673  0.6380
   85MOL   H26435712   6.186   4.067   2.079  0.4412 -1.2740 -0.7784
   85MOL   H26535713   6.339   4.017   2.018 -1.3551 -1.5816 -0.8383
   85MOL   H26635714   6.335   4.355   2.274 -2.6217  0.2061  0.7447
   85MOL   H26735715   6.184   4.283   2.223 -0.7694  0.6071 -2.5955
   85MOL   H26835716   6.268   4.378   2.110 -1.3829  0.2334 -0.8287
   85MOL   H26935717   6.466   4.316   2.002 -1.7034 -2.2358 -0.3573
   85MOL   H27035718   6.554   4.171   2.041  0.4292  0.8103 -0.5790
   85MOL   H27135719   6.560   4.292   2.160  1.0749  0.9018  0.1106
   85MOL   H27235720   6.478   4.136   2.329  1.4446 -1.5521 -1.2643
   85MOL   H27335721   6.313   4.065   2.298 -0.3271 -0.7965  0.5522
   85MOL   H27435722   6.468   4.011   2.221 -0.7664  0.8125 -2.2743
   85MOL   C27535723   6.095   4.169   1.869  0.3899  0.0862  0.3881
   85MOL   C27635724   5.996   4.248   1.960  0.5419 -0.6363 -0.2049
   85MOL   C27735725   5.993   4.401   1.921 -0.7348 -0.4581  0.1087
   85MOL   C27835726   5.904   4.505   1.995  0.1497 -0.0897 -0.2387
   85MOL   C27935727   5.912   4.483   2.151 -0.3002 -0.1397 -0.2302
   85MOL   C28035728   5.951   4.646   1.965 -0.1008  0.0601  1.0467
   85MOL   C28135729   5.757   4.498   1.949  0.3055 -0.0828  0.6694
   85MOL   H28235730   6.080   4.200   1.765  2.3401  0.0203  0.0595
   85MOL   H28335731   6.075   4.062   1.858  0.7618  0.1307 -0.9295
   85MOL   H28435732   6.024   4.237   2.065 -0.8314 -1.0909  0.1299
   85MOL   H28535733   5.966   4.414   1.816 -1.7440  0.9496  0.5233
   85MOL   H28635734   6.097   4.432   1.923 -0.5002 -1.2292 -0.2540
   85MOL   H28735735   5.847   4.562   2.189  0.5944 -1.1222  3.5368
   85MOL   H28835736   5.880   4.383   2.178 -0.1263 -0.1235  0.0364
   85MOL   H28935737   6.015   4.499   2.185  0.4232  1.1913 -2.8978
   85MOL   H29035738   5.878   4.722   1.992 -0.1144  0.8560 -1.1409
   85MOL   H29135739   5.972   4.670   1.861 -1.3999 -0.2310  0.7087
   85MOL   H29235740   6.043   4.674   2.016  1.4754 -0.9112 -1.1643
   85MOL   H29335741   5.696   4.588   1.959 -1.7815 -1.2037 -1.3744
   85MOL   H29435742   5.703   4.409   1.982  1.1698 -0.7976  0.1688
   85MOL   H29535743   5.759   4.488   1.840 -1.5259 -0.6208  0.6597
   85MOL   C29635744   5.844   4.188   1.961 -0.8315 -0.8781  0.5248
   85MOL   C29735745   5.839   4.034   1.998 -0.1184  0.0770 -0.5678
   85MOL   C29835746   5.821   3.936   1.877 -0.4461 -0.0629  0.0429
   85MOL   C29935747   5.860   3.778   1.877 -0.3193  0.2974 -0.5090
   85MOL   C30035748   5.734   3.696   1.897  0.6944  0.3421 -0.8970
   85MOL   C30135749   5.929   3.739   1.742 -0.0325  0.0263 -0.4811
   85MOL   C30235750   5.966   3.743   1.982  0.2238  0.3807 -0.4972
   85MOL   H30335751   5.793   4.209   1.867 -1.1872  0.1294  0.9337
   85MOL   H30435752   5.794   4.239   2.043 -0.0072  0.0584  0.4568
   85MOL   H30535753   5.935   4.011   2.045  0.6519 -0.7325 -2.4767
   85MOL   H30635754   5.876   3.982   1.795  0.2169 -1.0179 -0.0541
   85MOL   H30735755   5.719   3.945   1.839 -0.4428  0.3330  0.1205
   85MOL   H30835756   5.676   3.734   1.981  2.6503  0.5425  0.3618
   85MOL   H30935757   5.672   3.710   1.808 -0.0023  3.9600  0.0829
   85MOL   H31035758   5.745   3.589   1.914 -2.5470  0.1999  0.8091
   85MOL   H31135759   6.021   3.796   1.735  0.2439 -0.1825  1.2558
   85MOL   H31235760   5.936   3.630   1.739 -0.9884  0.0005 -2.2651
   85MOL   H31335761   5.872   3.756   1.650  0.6873  0.4934 -0.8473
   85MOL   H31435762   6.052   3.810   1.993  1.2524 -0.8504 -0.9341
   85MOL   H31535763   5.931   3.748   2.085  4.1779  3.2079  0.8512
   85MOL   H31635764   6.005   3.643   1.964 -2.0051 -1.1114  2.5219
   85MOL   C31735765   5.735   4.011   2.116 -0.3930  0.6807 -0.0547
   85MOL   C31835766   5.759   4.073   2.263  0.0697 -0.2728  0.6557
   85MOL   C31935767   5.631   4.060   2.352 -0.9371  0.6244 -0.2751
   85MOL   C32035768   5.519   4.166   2.346 -0.5069  0.6933  0.2312
   85MOL   C32135769   5.570   4.304   2.379 -0.3402 -0.6837 -1.0199
   85MOL   C32235770   5.411   4.125   2.453  0.2507 -0.0376 -0.0400
   85MOL   C32335771   5.447   4.185   2.214  0.0642  0.3936 -0.0483
   85MOL   H32435772   5.638   4.043   2.077 -1.2240  0.9127  2.1580
   85MOL   H32535773   5.718   3.904   2.124  0.6096  0.4703 -0.6162
   85MOL   H32635774   5.777   4.176   2.235  4.5514 -0.9290  0.7507
   85MOL   H32735775   5.664   4.048   2.456 -0.4946 -0.3142 -0.5204
   85MOL   H32835776   5.594   3.960   2.330  2.0884 -0.4504 -0.7073
   85MOL   H32935777   5.649   4.337   2.313  1.3056 -0.3441  1.0600
   85MOL   H33035778   5.605   4.297   2.482 -0.3527  0.3047 -0.9489
   85MOL   H33135779   5.493   4.381   2.377 -0.4106 -0.7036  0.1815
   85MOL   H33235780   5.383   4.021   2.435  0.2280  0.5231 -3.6157
   85MOL   H33335781   5.459   4.124   2.551  1.9637 -1.0346 -0.8697
   85MOL   H33435782   5.315   4.176   2.444  0.4392  0.4995  0.8742
   85MOL   H33535783   5.504   4.226   2.131 -0.0154  0.3026 -0.1492
   85MOL   H33635784   5.364   4.254   2.228 -1.1817 -0.9454 -0.7137
   85MOL   H33735785   5.397   4.092   2.186 -0.7821  1.3713 -1.8258
   85MOL   C33835786   5.889   4.028   2.326 -0.0044 -0.5413  0.0326
   85MOL   C33935787   5.937   4.100   2.456  0.1639 -0.3780 -0.1475
   85MOL   C34035788   5.957   4.252   2.429 -0.4494 -0.0183  0.1110
   85MOL   C34135789   5.990   4.343   2.546  0.1482  0.0062 -0.3796
   85MOL   C34235790   6.139   4.359   2.582 -0.2838  0.1767  0.1357
   85MOL   C34335791   5.957   4.490   2.490 -0.2986 -0.1731 -0.0268
   85MOL   C34435792   5.896   4.319   2.667 -0.3508 -0.1440  0.3467
   85MOL   H34535793   5.966   4.048   2.251 -0.0949 -1.1474 -0.2269
   85MOL   H34635794   5.870   3.922   2.339  0.8886 -0.6889  0.1116
   85MOL   H34735795   5.852   4.094   2.525  1.8658 -1.2201  1.9413
   85MOL   H34835796   5.863   4.295   2.396  0.1729  0.5940 -0.8841
   85MOL   H34935797   6.013   4.283   2.341 -1.2207  0.9596 -0.0479
   85MOL   H35035798   6.158   4.434   2.659 -1.3324 -1.0392  1.6257
   85MOL   H35135799   6.182   4.267   2.622  0.1021  0.0576 -0.5394
   85MOL   H35235800   6.198   4.385   2.494 -0.3865  3.0272  0.8598
   85MOL   H35335801   5.852   4.505   2.462 -0.3136 -0.2067  0.0110
   85MOL   H35435802   5.971   4.573   2.560 -0.3838  1.6545 -2.1342
   85MOL   H35535803   6.004   4.514   2.395 -0.7351 -2.0170 -0.7277
   85MOL   H35635804   5.912   4.222   2.713 -1.5198 -0.5873 -0.1608
   85MOL   H35735805   5.906   4.392   2.748  1.8002  0.8290 -0.7581
   85MOL   H35835806   5.791   4.325   2.638  0.3716  0.1986 -2.2507
   85MOL   C35935807   6.057   4.031   2.535  0.7959  0.1722 -0.0871
   85MOL   C36035808   6.029   3.883   2.578 -0.9608  0.5888 -0.1648
   85MOL   C36135809   6.069   3.791   2.453 -0.5302 -0.9409  0.8457
   85MOL   C36235810   6.185   3.687   2.471  0.2608 -0.0833  0.9189
   85MOL   C36335811   6.208   3.626   2.329  0.2959  0.2355 -0.1481
   85MOL   C36435812   6.136   3.571   2.564  0.5522 -0.1070 -1.0820
   85MOL   C36535813   6.313   3.749   2.528 -0.2609  0.5141 -0.6486
   85MOL   H36635814   6.079   4.089   2.624  0.3459  1.7737 -0.9986
   85MOL   H36735815   6.152   4.029   2.481  1.2608 -2.7957  0.7599
   85MOL   H36835816   6.107   3.859   2.650 -1.1307  0.9912  0.1510
   85MOL   H36935817   5.981   3.752   2.402  0.8401 -1.8113 -0.9272
   85MOL   H37035818   6.109   3.861   2.379  2.2718 -0.9847  2.2621
   85MOL   H37135819   6.250   3.696   2.257 -0.4466 -0.6688 -1.5042
   85MOL   H37235820   6.282   3.547   2.333 -0.8050 -0.7546  1.3182
   85MOL   H37335821   6.122   3.592   2.271  1.1007  0.8372 -1.7133
   85MOL   H37435822   6.051   3.530   2.509 -1.6621 -0.0181  2.1365
   85MOL   H37535823   6.091   3.598   2.660  1.6994  2.4903 -1.2211
   85MOL   H37635824   6.209   3.495   2.591 -0.3222 -0.3574  0.6878
   85MOL   H37735825   6.399   3.682   2.527 -1.0464 -0.4886 -1.1630
   85MOL   H37835826   6.302   3.778   2.632 -0.4470 -1.6077 -0.0623
   85MOL   H37935827   6.331   3.844   2.476  3.1283  0.8061  0.9660
   85MOL   C38035828   5.886   3.846   2.631 -0.5511 -0.2326  0.1208
   85MOL   C38135829   5.848   3.915   2.767  0.2408 -0.1826  0.0683
   85MOL   C38235830   5.923   3.850   2.885 -0.5217  0.5939  0.7604
   85MOL   C38335831   6.005   3.941   2.974  0.7156 -0.5711  0.0700
   85MOL   C38435832   6.066   3.846   3.085 -0.1336  0.0396 -0.0769
   85MOL   C38535833   5.921   4.042   3.047 -0.3057  0.0165 -0.9349
   85MOL   C38635834   6.122   4.018   2.905  0.5571  0.2391  0.1737
   85MOL   H38735835   5.893   3.740   2.653  1.1117  0.6544  4.3632
   85MOL   H38835836   5.813   3.871   2.555  0.0512  0.6734 -0.1696
   85MOL   H38935837   5.859   4.023   2.757  0.6102 -0.2803 -0.6702
   85MOL   H39035838   5.849   3.799   2.945 -0.8065  1.0382  0.7882
   85MOL   H39135839   5.981   3.766   2.847  0.0218  1.1522  0.3408
   85MOL   H39235840   6.134   3.772   3.043  0.1212 -1.1503  2.3586
   85MOL   H39335841   6.133   3.908   3.143  1.3759  0.9988 -2.7450
   85MOL   H39435842   5.995   3.799   3.153 -2.1258  3.3973  0.2513
   85MOL   H39535843   5.840   3.993   3.100 -0.4395  0.5214 -0.6817
   85MOL   H39635844   5.864   4.112   2.986 -2.4432 -0.3574  0.6027
   85MOL   H39735845   5.992   4.094   3.112  0.1497 -0.1237 -1.3166
   85MOL   H39835846   6.082   4.099   2.845  1.1343 -1.1609 -2.1666
   85MOL   H39935847   6.183   3.941   2.857 -2.2152  0.0261 -3.2847
   85MOL   H40035848   6.184   4.063   2.982 -0.4456  0.1467  1.0526
   85MOL   C40135849   5.699   3.897   2.784 -0.1612  1.0400 -0.2556
   85MOL   C40235850   5.621   3.976   2.887  0.2711  0.5668  0.0065
   85MOL   C40335851   5.476   3.982   2.848  0.5223  0.2505 -0.1284
   85MOL   C40435852   5.388   4.056   2.949  0.1460  0.9422 -0.5532
   85MOL   C40535853   5.241   4.007   2.934 -0.5782 -0.4796 -0.0437
   85MOL   C40635854   5.405   4.206   2.932  0.5209  0.2496 -0.2254
   85MOL   C40735855   5.426   4.014   3.094  0.1660  0.4251  0.0365
   85MOL   H40835856   5.659   3.925   2.687 -1.1083  1.6840  0.3099
   85MOL   H40935857   5.688   3.790   2.799 -2.7354  1.2890 -0.1559
   85MOL   H41035858   5.643   3.939   2.987  2.7206  0.4777 -0.5388
   85MOL   H41135859   5.453   3.876   2.862  1.0614  0.2938  1.1358
   85MOL   H41235860   5.457   4.015   2.746  1.6264 -0.1465 -0.4702
   85MOL   H41335861   5.223   3.899   2.940  0.1983 -0.6233 -0.3194
   85MOL   H41435862   5.199   4.038   2.839 -2.0493  0.9575  1.0444
   85MOL   H41535863   5.183   4.048   3.017  1.0693  0.7384  0.5286
   85MOL   H41635864   5.350   4.267   3.004  0.6457 -0.4118  0.4373
   85MOL   H41735865   5.365   4.242   2.838 -0.4097 -0.4713 -0.1092
   85MOL   H41835866   5.511   4.228   2.949  0.1609 -0.7332  3.9009
   85MOL   H41935867   5.348   4.036   3.167 -0.2605 -2.5930  0.5300
   85MOL   H42035868   5.410   3.907   3.104 -0.8657  0.7058  1.5779
   85MOL   H42135869   5.526   4.041   3.127  0.2799  1.6832 -1.2688
   85MOL   H42235870   5.660   4.078   2.886  1.5796  0.0972  1.3163
   86MOL     C135871   6.717   5.680   7.700 -0.0669  0.8602  0.8250
   86MOL     C235872   6.835   5.621   7.615  0.4253 -0.6581 -0.2427
   86MOL     C335873   6.804   5.479   7.581  0.0960 -0.3412 -0.4782
   86MOL     C435874   6.799   5.446   7.430 -0.0481  0.6684 -0.3615
   86MOL     C535875   6.684   5.526   7.367 -0.4645  0.0235 -0.2895
   86MOL     C635876   6.928   5.493   7.363  0.3489 -0.3836 -0.0286
   86MOL     C735877   6.785   5.299   7.399  0.3402  0.5883 -0.1540
   86MOL     H835878   6.715   5.639   0.035 -1.9803  0.4237  0.6321
   86MOL     H935879   6.737   5.787   7.701  2.1225  0.5040 -0.7128
   86MOL    H1035880   6.847   5.677   7.522 -3.4504 -3.4256 -2.5383
   86MOL    H1135881   6.716   5.440   7.633 -0.7022  1.6439 -0.3108
   86MOL    H1235882   6.886   5.422   7.625 -1.0304 -0.9201  0.9241
   86MOL    H1335883   6.708   5.529   7.260  2.0880  0.0167  0.2616
   86MOL    H1435884   6.681   5.628   7.407  0.4668 -1.4173  3.6196
   86MOL    H1535885   6.583   5.491   7.385  0.0776 -0.9639  0.8466
   86MOL    H1635886   7.016   5.461   7.419 -0.8790 -2.1630  0.9284
   86MOL    H1735887   6.943   5.453   7.262  3.0227  1.1547 -0.2950
   86MOL    H1835888   6.934   5.599   7.337  1.5607 -0.1595  1.0929
   86MOL    H1935889   6.799   5.275   7.294 -2.0849  0.2268 -0.4367
   86MOL    H2035890   6.690   5.266   7.443  0.3059 -0.2481 -0.8474
   86MOL    H2135891   6.862   5.236   7.444 -0.4015 -0.6675 -0.6012
   86MOL    H2235892   6.622   5.658   7.651  1.5382  1.0785 -2.4736
   86MOL    C2335893   6.971   5.639   7.686  0.5848  0.0385 -0.1846
   86MOL    C2435894   7.022   5.782   7.715  0.4696  0.4077  0.1000
   86MOL    C2535895   7.069   5.857   7.583  0.1878  0.3816  0.7021
   86MOL    C2635896   7.039   6.004   7.575 -0.4620 -0.1749  0.0212
   86MOL    C2735897   7.092   6.059   7.445 -0.0527 -1.2361 -0.2266
   86MOL    C2835898   6.885   6.037   7.581 -0.2182 -0.7106  0.2486
   86MOL    C2935899   7.109   6.083   7.688  0.2155  0.2856 -0.5173
   86MOL    H3035900   6.970   5.583   0.014  1.5909 -1.2347 -0.9237
   86MOL    H3135901   7.056   5.591   7.638  0.3448 -1.1358  0.5422
   86MOL    H3235902   6.939   5.838   7.758 -1.0146 -0.3385 -1.7404
   86MOL    H3335903   7.021   5.817   7.494  1.2840  2.4041 -0.8351
   86MOL    H3435904   7.177   5.849   7.574 -0.0014 -0.1885 -1.1434
   86MOL    H3535905   7.051   6.021   7.352  0.0900  0.7045 -1.1023
   86MOL    H3635906   7.077   6.166   7.436 -1.7438 -1.5450 -1.3852
   86MOL    H3735907   7.199   6.039   7.437  1.0884  4.4976 -1.2188
   86MOL    H3835908   6.832   5.996   7.667  0.9503  0.5601  1.6098
   86MOL    H3935909   6.878   6.146   7.584  0.5214 -0.6498 -0.0080
   86MOL    H4035910   6.830   6.012   7.491  1.9757  1.0014 -1.6166
   86MOL    H4135911   7.214   6.061   7.706  0.8748  1.2479 -3.0233
   86MOL    H4235912   7.044   6.065   0.008 -1.1945  1.8866 -1.2177
   86MOL    H4335913   7.093   6.190   7.678  3.0124  0.6674 -1.3312
   86MOL    C4435914   7.145   5.780   0.045  0.4823 -0.2479 -0.0089
   86MOL    C4535915   7.121   5.729   0.197  0.3036  0.3631 -0.5149
   86MOL    C4635916   7.047   5.838   0.271 -0.2296 -0.0504  0.3334
   86MOL    C4735917   6.960   5.818   0.406  0.3531  0.0244  0.0389
   86MOL    C4835918   7.052   5.813   0.530 -0.0658 -0.1200 -0.3486
   86MOL    C4935919   6.873   5.692   0.384  0.1571  1.0904  0.4667
   86MOL    C5035920   6.858   5.931   0.432 -0.2439  0.1540 -0.2802
   86MOL    H5135921   7.222   5.716   0.003 -0.0316 -1.5021  0.9201
   86MOL    H5235922   7.196   5.876   0.054 -0.5915  0.2994  0.3544
   86MOL    H5335923   7.073   5.633   0.215 -0.4588  0.9233  0.4522
   86MOL    H5435924   6.970   5.861   0.197 -0.4872 -0.7616  0.3719
   86MOL    H5535925   7.107   5.928   0.278 -0.3225  0.0369  0.0033
   86MOL    H5635926   7.065   5.706   0.546 -1.6840 -0.3214 -0.2632
   86MOL    H5735927   7.000   5.845   0.621 -0.1548 -0.0624 -0.4200
   86MOL    H5835928   7.145   5.866   0.511  0.0351  0.1819  0.9235
   86MOL    H5935929   6.790   5.685   0.454  0.3821  0.8683  0.7134
   86MOL    H6035930   6.831   5.692   0.283 -2.0802 -0.8814  1.3486
   86MOL    H6135931   6.923   5.595   0.387 -2.1560 -0.2278 -1.5388
   86MOL    H6235932   6.894   6.028   0.466  0.7202 -0.9818  2.0544
   86MOL    H6335933   6.803   5.947   0.339 -0.4062  0.8758 -0.0599
   86MOL    H6435934   6.786   5.900   0.507 -0.6255 -1.5585 -1.3201
   86MOL    C6535935   7.257   5.705   0.277 -0.0707 -0.4264 -0.4646
   86MOL    C6635936   7.356   5.595   0.225  0.4453 -0.1980 -0.7066
   86MOL    C6735937   7.298   5.454   0.270 -0.1170 -0.0134 -0.1347
   86MOL    C6835938   7.284   5.341   0.160 -0.2445 -0.2299  0.0726
   86MOL    C6935939   7.255   5.212   0.231  0.5437  0.4774 -0.4253
   86MOL    C7035940   7.182   5.376   0.054 -0.2202  0.2496  0.2815
   86MOL    C7135941   7.421   5.316   0.093 -0.7662 -0.4335 -0.1431
   86MOL    H7235942   7.319   5.795   0.284  0.0731 -0.5222 -0.5134
   86MOL    H7335943   7.230   5.678   0.379 -1.5329 -1.6500 -1.1664
   86MOL    H7435944   7.358   5.608   0.117  0.7506 -0.1197 -0.6929
   86MOL    H7535945   7.198   5.474   0.307 -0.0571 -0.4311  0.2550
   86MOL    H7635946   7.341   5.426   0.366 -1.7231  1.3398  0.9905
   86MOL    H7735947   7.254   5.124   0.166  1.1407  0.8526 -0.9525
   86MOL    H7835948   7.338   5.188   0.298  0.2408  0.0416 -0.2028
   86MOL    H7935949   7.160   5.215   0.285  1.2913 -0.4920  1.0029
   86MOL    H8035950   7.171   5.285   7.761  0.4582  0.4041 -0.0929
   86MOL    H8135951   7.200   5.459   7.752 -0.5978  0.4830  0.4623
   86MOL    H8235952   7.085   5.389   0.102  0.1380 -0.5899  1.2539
   86MOL    H8335953   7.411   5.228   0.029 -1.3647 -0.8515  0.5179
   86MOL    H8435954   7.487   5.291   0.177 -0.4081  0.1343 -0.2501
   86MOL    H8535955   7.477   5.390   0.035 -2.5481 -1.1459 -2.8492
   86MOL    C8635956   7.507   5.614   0.271  0.0061  0.0556 -0.1992
   86MOL    C8735957   7.602   5.682   0.159  0.1853 -0.6864 -0.3850
   86MOL    C8835958   7.740   5.722   0.222 -0.9914 -0.3479 -0.3766
   86MOL    C8935959   0.079   5.616   0.275  0.4483 -0.3749  0.4052
   86MOL    C9035960   0.218   5.677   0.288 -0.1208  0.2748  0.5819
   86MOL    C9135961   0.087   5.490   0.188  0.1175  0.0475  0.4331
   86MOL    C9235962   0.042   5.568   0.410  0.8163 -0.0974 -0.0809
   86MOL    H9335963   7.541   5.512   0.287  0.3934  0.1893 -0.1686
   86MOL    H9435964   7.518   5.658   0.370  0.6232 -3.0208  1.1366
   86MOL    H9535965   7.620   5.594   0.097 -0.9802 -0.0013 -1.7016
   86MOL    H9635966   7.729   5.789   0.307 -0.7851 -2.1104  1.0688
   86MOL    H9735967   0.032   5.776   0.147  0.1797 -0.9989  0.0522
   86MOL    H9835968   0.275   5.700   0.198  0.7083  2.0033  1.5477
   86MOL    H9935969   0.289   5.611   0.338 -0.6462  0.2606  1.3057
   86MOL   H10035970   0.217   5.774   0.337 -0.9736  0.4313  0.2691
   86MOL   H10135971   0.158   5.414   0.219  2.5649  1.3753 -1.7082
   86MOL   H10235972   7.758   5.435   0.182 -0.1669  0.5369  0.3935
   86MOL   H10335973   0.118   5.523   0.089 -0.7673 -0.7576 -0.1217
   86MOL   H10435974   0.110   5.486   0.432  0.6932 -0.1698  0.0305
   86MOL   H10535975   0.057   5.648   0.483  0.5722 -1.2107  1.2082
   86MOL   H10635976   7.705   5.532   0.419  1.0427 -1.0768 -1.3489
   86MOL   C10735977   7.544   5.799   0.077  0.9564  0.0618  0.4465
   86MOL   C10835978   7.571   5.805   7.694  0.2925 -0.6966  0.0941
   86MOL   C10935979   7.494   5.690   7.620  0.0297  0.2243 -0.6263
   86MOL   C11035980   7.558   5.631   7.489 -0.9000  0.1869  0.1536
   86MOL   C11135981   7.576   5.722   7.370  0.0162 -0.4258  0.1870
   86MOL   C11235982   7.447   5.533   7.439 -0.2229  0.3842  0.0673
   86MOL   C11335983   7.685   5.543   7.518 -0.1811 -0.4146 -0.3801
   86MOL   H11435984   7.571   5.896   0.119 -2.0052  1.1292  0.0162
   86MOL   H11535985   7.436   5.803   0.072  0.9234 -2.1316 -2.5478
   86MOL   H11635986   7.678   5.783   7.686  0.9287  1.5973  1.8537
   86MOL   H11735987   7.471   5.606   7.685 -0.7851  1.2861  0.4804
   86MOL   H11835988   7.395   5.730   7.599 -1.0784 -1.9595  0.3842
   86MOL   H11935989   7.604   5.665   7.282  2.2700 -0.6458  1.0263
   86MOL   H12035990   7.502   5.799   7.345  0.8937  0.4439  0.2127
   86MOL   H12135991   7.658   5.793   7.385 -0.0085 -0.3305 -0.1219
   86MOL   H12235992   7.362   5.595   7.412  1.8712  2.4327 -2.1161
   86MOL   H12335993   7.423   5.461   7.517  0.0205  0.0817 -0.1350
   86MOL   H12435994   7.476   5.480   7.348 -1.3719 -0.9757  0.4930
   86MOL   H12535995   0.001   5.601   7.560  1.6160 -3.5446  0.6511
   86MOL   H12635996   7.730   5.492   7.433 -0.3096 -0.9624 -0.1231
   86MOL   H12735997   7.666   5.462   7.588 -1.0067 -0.0484 -0.1798
   86MOL   C12835998   7.564   5.950   7.630 -0.4257 -0.2004 -0.0681
   86MOL   C12935999   7.688   6.036   7.616 -0.1027  0.3151 -0.1130
   86MOL   C13036000   7.645   6.174   7.546  0.8159  0.0006 -0.4122
   86MOL   C13136001   7.686   6.190   7.396 -0.1010 -0.4519  0.2014
   86MOL   C13236002   0.071   6.173   7.380  0.5959 -0.2397 -0.2665
   86MOL   C13336003   7.636   6.321   7.333  0.4331  0.2163 -0.9712
   86MOL   C13436004   7.624   6.077   7.308 -0.5466 -0.2367  0.0422
   86MOL   H13536005   7.481   5.996   7.685  1.2692  0.5491  1.9155
   86MOL   H13636006   7.528   5.932   7.529 -0.7861 -1.4360  0.2607
   86MOL   H13736007   7.761   5.987   7.552  0.3392  1.9759 -0.9337
   86MOL   H13836008   7.536   6.185   7.548  0.8941  0.4780  1.4954
   86MOL   H13936009   7.682   6.257   7.606  0.7934 -1.5893  1.8775
   86MOL   H14036010   0.106   6.209   7.283 -0.0270  1.5934  0.1573
   86MOL   H14136011   0.103   6.069   7.379 -2.4419 -1.2899  2.2972
   86MOL   H14236012   0.128   6.230   7.454 -1.6282  1.4844  0.1772
   86MOL   H14336013   7.535   6.347   7.363  0.6556 -1.7457  1.6607
   86MOL   H14436014   7.666   6.336   7.229  1.5241 -1.4324 -0.9240
   86MOL   H14536015   7.691   6.396   7.391 -2.3444 -0.6194  2.9096
   86MOL   H14636016   7.517   6.066   7.322 -0.2037 -0.9164  2.4641
   86MOL   H14736017   7.633   6.086   7.200  3.4552  0.2586  0.3321
   86MOL   H14836018   7.674   5.981   7.323 -0.8568 -0.2415  1.0833
   86MOL   C14936019   7.761   6.057   7.758  0.3435  0.8095  0.2319
   86MOL   C15036020   0.134   6.111   7.753  0.6668 -0.3158 -0.1852
   86MOL   C15136021   0.163   6.177   0.121 -0.2538  0.5192 -0.1161
   86MOL   C15236022   0.130   6.326   0.138  0.2067  0.8122  0.0548
   86MOL   C15336023   0.163   6.360   0.282  0.1162  0.3764 -0.0211
   86MOL   C15436024   7.749   6.358   0.121 -0.2448 -0.6770 -0.1393
   86MOL   C15536025   0.203   6.427   0.047  0.1762  1.0042 -0.5842
   86MOL   H15636026   7.762   5.957   0.038 -2.7678  0.9989  0.8470
   86MOL   H15736027   7.698   6.112   0.063 -0.5477  1.4347 -1.0259
   86MOL   H15836028   0.131   6.188   7.676 -1.5523  0.1580  0.3635
   86MOL   H15936029   0.269   6.175   0.146 -0.9465  2.5444  3.3709
   86MOL   H16036030   0.106   6.124   0.198 -1.6501  1.1392 -0.7061
   86MOL   H16136031   0.137   6.464   0.302 -1.4840  0.3987 -2.1170
   86MOL   H16236032   0.116   6.291   0.352  1.6139 -1.4275 -0.7580
   86MOL   H16336033   0.272   6.347   0.283  0.1617  0.5795 -1.3023
   86MOL   H16436034   7.710   6.333   0.022 -0.3023  0.8902 -0.5212
   86MOL   H16536035   7.735   6.464   0.139 -2.1723 -0.4027 -2.9509
   86MOL   H16636036   7.692   6.306   0.198 -0.8729  1.1791  0.6636
   86MOL   H16736037   0.311   6.416   0.056 -0.1035 -0.9397  0.8213
   86MOL   H16836038   0.176   6.433   7.708 -1.7955  0.3487 -0.1337
   86MOL   H16936039   0.180   6.530   0.078 -1.3395  1.0873 -1.9144
   86MOL   C17036040   0.240   6.006   7.721 -0.3410  0.7250  0.4104
   86MOL   C17136041   0.343   6.042   7.609  0.1119  0.3322 -0.2866
   86MOL   C17236042   0.445   5.930   7.584  0.2093 -0.3977 -0.0230
   86MOL   C17336043   0.426   5.845   7.455  0.1825 -0.6213  0.0259
   86MOL   C17436044   0.408   5.929   7.335 -0.2425  0.2701  0.4841
   86MOL   C17536045   0.303   5.757   7.462 -0.3249  0.4623 -0.7004
   86MOL   C17636046   0.541   5.745   7.444 -0.6314 -0.3690 -0.3919
   86MOL   H17736047   0.200   5.916   7.674  1.2418  0.4139 -0.3832
   86MOL   H17836048   0.294   5.970   0.043  0.9428  0.0125 -0.6405
   86MOL   H17936049   0.284   6.064   7.521 -0.2070  2.1322  0.3457
   86MOL   H18036050   0.548   5.959   7.564  0.8388 -1.0011  2.1906
   86MOL   H18136051   0.456   5.865   7.671 -0.2992  0.8455  0.9904
   86MOL   H18236052   0.487   6.005   7.331 -0.6885  0.6615 -1.8332
   86MOL   H18336053   0.428   5.868   7.247  0.8916 -0.5821  1.3254
   86MOL   H18436054   0.314   5.984   7.337  0.1741  1.0370 -0.3233
   86MOL   H18536055   0.202   5.800   7.463  0.2339  1.8475 -2.2943
   86MOL   H18636056   0.311   5.684   7.382 -2.5492 -0.5413 -0.0603
   86MOL   H18736057   0.316   5.697   7.553 -0.1014 -0.3254 -1.2523
   86MOL   H18836058   0.541   5.663   7.516  0.7787  0.4525  0.5838
   86MOL   H18936059   0.534   5.687   7.351  3.3132 -1.3314 -0.1929
   86MOL   H19036060   0.639   5.794   7.446 -0.9553  0.2502  2.0939
   86MOL   C19136061   0.422   6.162   7.649 -0.1150  0.2235 -0.3816
   86MOL   C19236062   0.498   6.242   7.538  0.0175  0.2168 -0.5035
   86MOL   C19336063   0.599   6.342   7.610 -0.3102 -0.0893 -0.7091
   86MOL   C19436064   0.746   6.282   7.613  0.7570 -0.2642 -0.6645
   86MOL   C19536065   0.798   6.233   7.474  0.7404 -0.2014  0.1687
   86MOL   C19636066   0.767   6.160   7.713 -0.0946  0.1154  0.4129
   86MOL   C19736067   0.842   6.393   7.668  0.2252 -0.0056  0.2748
   86MOL   H19836068   0.343   6.228   7.683 -0.5007 -0.4817  0.1099
   86MOL   H19936069   0.485   6.150   7.737 -1.5753  1.5361  0.8704
   86MOL   H20036070   0.553   6.173   7.474 -1.5542 -1.9065  0.3875
   86MOL   H20136071   0.561   6.365   7.709 -0.5724 -1.3563 -0.5103
   86MOL   H20236072   0.614   6.438   7.560  1.4167 -0.2845 -0.5997
   86MOL   H20336073   0.906   6.222   7.484  0.9015  0.7167 -0.5067
   86MOL   H20436074   0.760   6.138   7.435  1.1564 -0.0621 -0.5881
   86MOL   H20536075   0.776   6.311   7.401 -1.7265 -2.6613 -1.8190
   86MOL   H20636076   0.874   6.141   7.718 -0.6250 -3.3206  0.3323
   86MOL   H20736077   0.738   6.173   0.051  0.2507 -3.5763  1.0446
   86MOL   H20836078   0.717   6.068   7.684 -0.5214  0.4821 -0.0208
   86MOL   H20936079   0.829   6.488   7.617 -2.5436 -0.6090 -0.1836
   86MOL   H21036080   0.829   6.425   0.006  0.3450 -1.2912  0.7058
   86MOL   H21136081   0.946   6.362   7.653 -0.5747 -3.0031  0.5838
   86MOL   C21236082   0.397   6.311   7.435  0.0081 -0.2663 -0.6102
   86MOL   C21336083   0.453   6.412   7.329  0.4044  0.0355  0.0612
   86MOL   C21436084   0.331   6.485   7.258 -0.5447  0.5894 -0.3264
   86MOL   C21536085   0.281   6.623   7.310 -0.8782 -0.3061  0.4553
   86MOL   C21636086   0.156   6.653   7.228 -0.4225 -0.4353 -0.2148
   86MOL   C21736087   0.247   6.602   7.457 -0.1263  0.3246 -0.9513
   86MOL   C21836088   0.392   6.725   7.289  1.0575 -0.2970 -0.6857
   86MOL   H21936089   0.343   6.235   7.377  0.1071 -1.2500  0.5678
   86MOL   H22036090   0.316   6.350   7.496  0.2452 -1.2964  0.3793
   86MOL   H22136091   0.515   6.490   7.373 -1.6215  0.8999  1.4591
   86MOL   H22236092   0.244   6.420   7.259 -0.1275  0.0243 -0.6532
   86MOL   H22336093   0.349   6.489   7.151  0.8417 -1.4758 -0.2053
   86MOL   H22436094   0.151   6.760   7.208  1.9567 -0.5375 -1.5697
   86MOL   H22536095   0.063   6.625   7.277  0.6669 -0.8334  1.6360
   86MOL   H22636096   0.153   6.612   7.127 -1.2919  0.8973 -0.7483
   86MOL   H22736097   0.340   6.593   7.513 -0.7659  1.5670  0.3476
   86MOL   H22836098   0.196   6.688   7.501 -0.8842  0.7002 -2.5377
   86MOL   H22936099   0.179   6.517   7.463  1.7409 -1.1729 -0.4652
   86MOL   H23036100   0.357   6.827   7.294 -0.0610 -0.6486 -1.3767
   86MOL   H23136101   0.445   6.713   7.195 -0.4629  1.0120 -1.7196
   86MOL   H23236102   0.464   6.722   7.372 -1.0603 -0.4058  1.1977
   86MOL   C23336103   0.528   6.340   7.216  0.1937  0.0222 -0.2969
   86MOL   C23436104   0.601   6.416   7.099 -0.4156  0.1871 -0.0094
   86MOL   C23536105   0.695   6.524   7.158 -0.1698 -0.8025 -0.3691
   86MOL   C23636106   0.756   6.644   7.081 -0.0296 -0.0811  0.7659
   86MOL   C23736107   0.670   6.703   6.972  0.1906  0.1370 -0.0452
   86MOL   C23836108   0.777   6.763   7.175 -0.6716 -0.0984  0.4045
   86MOL   C23936109   0.901   6.607   7.034  0.1569  0.2026 -0.6514
   86MOL   H24036110   0.452   6.273   7.174  1.0029  0.3610 -2.3975
   86MOL   H24136111   0.608   6.293   7.271  1.0265  0.2517 -1.3012
   86MOL   H24236112   0.531   6.471   7.036  0.0817 -1.2200 -1.8253
   86MOL   H24336113   0.632   6.563   7.237 -0.5308 -1.6846 -0.2176
   86MOL   H24436114   0.762   6.474   7.227  0.8226  1.1910  0.1528
   86MOL   H24536115   0.577   6.745   7.010 -0.0584 -0.9862  0.6156
   86MOL   H24636116   0.643   6.633   6.893  1.8126  0.6469 -1.0563
   86MOL   H24736117   0.709   6.781   6.907 -0.4250 -0.5868 -1.3192
   86MOL   H24836118   0.678   6.795   7.209  0.4708  4.3361 -0.1502
   86MOL   H24936119   0.841   6.726   7.255  1.4654  0.8624 -0.8184
   86MOL   H25036120   0.815   6.854   7.127 -0.3227  0.2944  1.4057
   86MOL   H25136121   0.889   6.521   6.967 -1.0723 -0.7154  0.6926
   86MOL   H25236122   0.945   6.684   6.971 -0.1491  2.0006  1.2972
   86MOL   H25336123   0.962   6.572   7.117 -0.6831 -0.8335 -0.4486
   86MOL   C25436124   0.682   6.324   7.004  0.2963  0.5428 -0.3536
   86MOL   C25536125   0.594   6.215   6.933  0.1665  0.5503 -0.0970
   86MOL   C25636126   0.689   6.099   6.900 -0.8146 -0.0486  0.4970
   86MOL   C25736127   0.710   5.981   6.995 -0.1163  0.5516 -0.4597
   86MOL   C25836128   0.586   5.887   6.998 -0.1513  0.2840  0.2437
   86MOL   C25936129   0.756   6.021   7.137 -0.1368 -0.0391 -0.3867
   86MOL   C26036130   0.831   5.891   6.942  0.4365 -0.5117 -0.9575
   86MOL   H26136131   0.771   6.283   7.051  0.5829  1.7620  0.2025
   86MOL   H26236132   0.711   6.395   6.926 -0.3854  0.0856 -1.0245
   86MOL   H26336133   0.523   6.183   7.009  1.9123  0.1725  1.4199
   86MOL   H26436134   0.652   6.056   6.806 -2.5143  1.8573  0.2509
   86MOL   H26536135   0.781   6.145   6.866 -0.0688 -2.3580 -0.7454
   86MOL   H26636136   0.504   5.930   7.054 -0.6224 -0.9462  0.5205
   86MOL   H26736137   0.606   5.795   7.053 -0.5260 -0.9459 -1.6310
   86MOL   H26836138   0.554   5.850   6.901 -1.6497 -0.2336  0.9170
   86MOL   H26936139   0.732   5.931   7.193  0.7024  0.5116  0.8593
   86MOL   H27036140   0.700   6.100   7.186 -0.4767 -0.8698  0.5735
   86MOL   H27136141   0.863   6.035   7.155 -0.0992 -2.3884  1.5169
   86MOL   H27236142   0.872   5.827   7.019 -0.0373 -0.9593 -1.0709
   86MOL   H27336143   0.808   5.838   6.849 -0.3708 -1.0408 -0.4645
   86MOL   H27436144   0.918   5.952   6.918  0.9631  0.0484  2.1282
   86MOL   C27536145   0.524   6.268   6.809 -0.5169  0.1358  0.4500
   86MOL   C27636146   0.388   6.199   6.774 -0.4851 -0.6110  0.9996
   86MOL   C27736147   0.280   6.269   6.862  0.3478  0.3287  0.6581
   86MOL   C27836148   0.162   6.184   6.919  0.4020  0.3240  0.3686
   86MOL   C27936149   0.060   6.273   6.994 -0.0192  0.3095  0.0711
   86MOL   C28036150   0.084   6.101   6.808  0.7063 -0.3354 -0.4194
   86MOL   C28136151   0.213   6.085   7.017  0.2000  0.1447  0.2872
   86MOL   H28236152   0.506   6.374   6.823 -0.4499  0.7708 -3.6420
   86MOL   H28336153   0.598   6.270   6.728 -1.1660 -0.6373 -0.1776
   86MOL   H28436154   0.396   6.094   6.802  1.9841 -0.5010  0.7896
   86MOL   H28536155   0.246   6.349   6.796  0.3274  0.4111  0.7670
   86MOL   H28636156   0.319   6.329   6.945  0.4599  1.1852 -0.0038
   86MOL   H28736157   7.757   6.226   7.064 -1.7237  2.5198 -0.0720
   86MOL   H28836158   0.107   6.358   7.044  0.3287  0.4419 -0.4710
   86MOL   H28936159   0.001   6.327   6.920 -2.1167 -1.1192  0.6520
   86MOL   H29036160   0.004   6.044   6.855  4.2266 -2.8184  2.9095
   86MOL   H29136161   0.145   6.033   6.749 -1.2047 -1.5130 -1.0884
   86MOL   H29236162   0.024   6.165   6.743 -0.1196  1.6380  2.1983
   86MOL   H29336163   0.299   6.030   6.981  0.5112  0.9841 -0.2815
   86MOL   H29436164   0.130   6.029   7.059  0.5287 -2.0447 -1.8853
   86MOL   H29536165   0.264   6.145   7.093  4.6818 -0.3952 -2.1321
   86MOL   C29636166   0.351   6.215   6.616  1.0020  0.1058 -0.4124
   86MOL   C29736167   0.469   6.170   6.512 -0.1653  0.0734 -0.1794
   86MOL   C29836168   0.434   6.200   6.364 -0.0757  0.1930  0.2747
   86MOL   C29936169   0.498   6.317   6.287  0.3401  0.1801  0.3991
   86MOL   C30036170   0.428   6.329   6.151 -0.1039 -0.3766  0.4114
   86MOL   C30136171   0.475   6.449   6.365  0.1323 -0.1482  0.0890
   86MOL   C30236172   0.648   6.300   6.264  0.4803 -0.6565  0.0808
   86MOL   H30336173   0.329   6.321   6.606 -0.2654  0.3615  4.0897
   86MOL   H30436174   0.258   6.160   6.600  1.0315 -0.7890  2.2822
   86MOL   H30536175   0.561   6.221   6.539 -0.8109  1.7003 -0.9478
   86MOL   H30636176   0.329   6.227   6.368 -0.5199 -1.4570  0.0871
   86MOL   H30736177   0.449   6.119   6.293  1.7799  0.5028  0.2896
   86MOL   H30836178   0.437   6.243   6.084  0.5761  0.1089 -0.1159
   86MOL   H30936179   0.319   6.331   6.157 -0.3369 -1.6880 -2.3958
   86MOL   H31036180   0.451   6.425   6.107  0.4733 -0.5923  0.2367
   86MOL   H31136181   0.525   6.532   6.314  2.2942 -0.6174  1.3652
   86MOL   H31236182   0.368   6.464   6.370 -0.0600 -1.7746  0.9640
   86MOL   H31336183   0.518   6.459   6.464 -0.7625 -0.2139  0.4821
   86MOL   H31436184   0.695   6.296   6.363 -0.2193  3.1158  0.6575
   86MOL   H31536185   0.658   6.204   6.214 -1.4031 -0.2053 -1.1919
   86MOL   H31636186   0.708   6.376   6.215  2.1485 -1.8932  0.1560
   86MOL   C31736187   0.489   6.018   6.514 -1.0622 -0.2877  0.0291
   86MOL   C31836188   0.628   5.968   6.456  0.1641  0.0182 -0.5159
   86MOL   C31936189   0.756   6.008   6.541  0.8301 -0.4594 -0.1121
   86MOL   C32036190   0.895   5.991   6.480  0.2157  1.4813  1.0654
   86MOL   C32136191   0.955   5.865   6.547 -0.6519  0.0805  0.1199
   86MOL   C32236192   0.990   6.107   6.524 -0.5616  0.1972 -0.4217
   86MOL   C32336193   0.911   5.975   6.331  0.2965  0.0692 -0.5981
   86MOL   H32436194   0.488   5.982   6.617 -0.4139  0.5938  0.3565
   86MOL   H32536195   0.401   5.973   6.468 -1.5385  1.5383 -0.9042
   86MOL   H32636196   0.653   6.013   6.360  0.4059 -0.0234 -0.4734
   86MOL   H32736197   0.759   5.954   6.636  0.6336  1.3269  0.9232
   86MOL   H32836198   0.757   6.114   6.564 -0.6654 -0.5383  0.3925
   86MOL   H32936199   0.900   5.771   6.536 -0.2114 -0.2711  0.8794
   86MOL   H33036200   0.972   5.880   6.653  0.2727 -0.8573  0.1163
   86MOL   H33136201   1.057   5.848   6.512 -1.4963 -1.5120 -1.6630
   86MOL   H33236202   0.965   6.208   6.493 -2.7176 -0.2852 -0.3690
   86MOL   H33336203   0.999   6.120   6.632 -0.7413  0.3754 -0.4277
   86MOL   H33436204   1.091   6.090   6.486 -0.1566  0.1640  0.6372
   86MOL   H33536205   0.894   6.072   6.285 -1.9799  0.4051  0.8679
   86MOL   H33636206   0.840   5.899   6.298 -0.7410  0.7210  0.0942
   86MOL   H33736207   1.009   5.939   6.301  0.1359 -0.8977  0.0026
   86MOL   C33836208   0.608   5.810   6.447  0.0798 -0.4426 -0.1063
   86MOL   C33936209   0.501   5.746   6.343 -0.3100 -0.1841 -0.5415
   86MOL   C34036210   0.506   5.584   6.354  0.8432 -0.8234  0.0877
   86MOL   C34136211   0.397   5.516   6.447 -0.9188  0.1157 -0.3127
   86MOL   C34236212   0.250   5.547   6.394 -0.7281 -0.3816  0.1032
   86MOL   C34336213   0.410   5.366   6.454 -0.2606  0.0058 -0.2883
   86MOL   C34436214   0.390   5.576   6.594 -0.2704  0.2295  0.0874
   86MOL   H34536215   0.586   5.773   6.548 -0.6732 -0.6754 -0.3564
   86MOL   H34636216   0.707   5.771   6.422  0.9520  1.2390  0.6199
   86MOL   H34736217   0.397   5.774   6.365 -0.0260  0.6737 -0.2770
   86MOL   H34836218   0.605   5.541   6.362  2.8234  3.3540 -0.9566
   86MOL   H34936219   0.474   5.553   6.254 -0.1034  2.1049 -0.5711
   86MOL   H35036220   0.237   5.535   6.287 -0.6655  1.8679 -0.1967
   86MOL   H35136221   0.185   5.478   6.447 -0.7589  0.2014  0.8533
   86MOL   H35236222   0.218   5.648   6.422 -1.5256 -1.2389  2.4071
   86MOL   H35336223   0.338   5.329   6.527 -0.8120  0.3338 -0.6600
   86MOL   H35436224   0.394   5.310   6.362  0.5811 -0.7218 -0.0015
   86MOL   H35536225   0.499   5.335   6.509  1.1196  0.8830 -2.0029
   86MOL   H35636226   0.335   5.515   6.666 -2.1076 -0.1399 -1.5610
   86MOL   H35736227   0.490   5.565   6.634  0.0176 -1.0295 -0.9459
   86MOL   H35836228   0.352   5.679   6.597 -1.4215 -0.0849 -2.1988
   86MOL   C35936229   0.526   5.786   6.196  0.7377  0.1260 -0.1786
   86MOL   C36036230   0.412   5.797   6.091  0.2854  0.2940  0.7291
   86MOL   C36136231   0.475   5.791   5.950 -0.1601  0.0353  0.0892
   86MOL   C36236232   0.439   5.668   5.858 -0.7537  0.2109 -0.0399
   86MOL   C36336233   0.462   5.528   5.929 -0.2600  0.1075 -0.1940
   86MOL   C36436234   0.522   5.679   5.732 -0.1682 -0.2123  0.2637
   86MOL   C36536235   0.295   5.680   5.803 -0.4101  0.2679  0.2533
   86MOL   H36636236   0.598   5.711   6.164 -1.1204 -1.5432 -0.5526
   86MOL   H36736237   0.581   5.880   6.195  0.5445  0.2421 -0.0204
   86MOL   H36836238   0.348   5.708   6.091  0.0676  0.4372 -1.0984
   86MOL   H36936239   0.459   5.885   5.898 -0.6428 -0.7497 -1.1911
   86MOL   H37036240   0.583   5.792   5.964  0.0442 -1.8979 -1.2394
   86MOL   H37136241   0.555   5.503   5.979 -1.3902  0.1420  1.9907
   86MOL   H37236242   0.386   5.522   6.007  0.0199  1.9831  0.2423
   86MOL   H37336243   0.451   5.443   5.861  0.0069 -1.0278  1.1700
   86MOL   H37436244   0.483   5.608   5.660 -1.0078 -1.6757  2.1122
   86MOL   H37536245   0.626   5.653   5.753 -0.6922 -1.1448  1.8420
   86MOL   H37636246   0.510   5.778   5.689  2.2319 -0.1419 -0.3325
   86MOL   H37736247   0.271   5.769   5.745  1.4713 -0.3835 -1.6123
   86MOL   H37836248   0.223   5.674   5.884 -2.2569  0.9028 -1.2987
   86MOL   H37936249   0.267   5.593   5.743  0.0346 -0.2924  0.8565
   86MOL   C38036250   0.329   5.925   6.116  0.7254  0.5059  0.3025
   86MOL   C38136251   0.189   5.922   6.055  0.2859 -0.5299  0.1829
   86MOL   C38236252   0.134   6.066   6.042  0.6523 -0.0573  0.5481
   86MOL   C38336253   0.126   6.131   5.900  0.1433 -0.2328 -0.3704
   86MOL   C38436254   0.263   6.154   5.835  0.2625  0.2187  0.3891
   86MOL   C38536255   0.061   6.266   5.895 -0.3721 -0.3167 -0.0530
   86MOL   C38636256   0.035   6.042   5.814 -0.2327  0.5135 -0.2612
   86MOL   H38736257   0.383   6.014   6.084  1.2061 -0.4951 -1.7219
   86MOL   H38836258   0.314   5.924   6.224  0.2003  2.5764  0.2620
   86MOL   H38936259   0.194   5.878   5.956  1.8058  0.9759 -0.4226
   86MOL   H39036260   0.032   6.078   6.076  1.2899 -0.6005  2.7201
   86MOL   H39136261   0.187   6.126   6.115 -2.0929  0.7137  1.9547
   86MOL   H39236262   0.255   6.210   5.742 -1.3443 -1.0568 -0.2669
   86MOL   H39336263   0.337   6.206   5.896  0.2170 -1.2648  1.7333
   86MOL   H39436264   0.300   6.054   5.816 -2.4247 -0.1563 -3.3016
   86MOL   H39536265   0.110   6.348   5.947 -3.9841  0.7368  1.8439
   86MOL   H39636266   7.734   6.252   5.949 -0.3853 -2.4047 -0.5923
   86MOL   H39736267   0.038   6.300   5.794 -1.3735  0.3024  0.3736
   86MOL   H39836268   7.702   6.019   5.854 -0.6830 -1.3599 -2.3181
   86MOL   H39936269   0.087   5.949   5.790  0.8215  1.1808 -0.5644
   86MOL   H40036270   0.014   6.091   5.719  0.0519  0.6198 -0.2690
   86MOL   C40136271   0.092   5.818   6.136  0.1355 -0.5727 -0.3280
   86MOL   C40236272   7.726   5.800   6.056  0.1868 -0.2392  0.0309
   86MOL   C40336273   7.648   5.671   6.097  0.1843 -0.5696 -0.6735
   86MOL   C40436274   7.527   5.624   6.010  0.5140  0.5677 -0.0407
   86MOL   C40536275   7.477   5.490   6.068  0.2285  0.7578 -0.1425
   86MOL   C40636276   7.570   5.609   5.862 -0.1644 -0.1616 -0.2343
   86MOL   C40736277   7.419   5.729   6.032  0.3332 -0.2866  0.1102
   86MOL   H40836278   0.149   5.726   6.147  0.4349 -0.0264  3.2761
   86MOL   H40936279   0.064   5.853   6.235 -0.9062 -0.1690 -0.7628
   86MOL   H41036280   7.660   5.887   6.063 -0.7849 -1.1146  2.0720
   86MOL   H41136281   7.610   5.686   6.198  0.1665 -0.6203 -0.6726
   86MOL   H41236282   7.716   5.585   6.103 -1.4324 -1.7629  0.8989
   86MOL   H41336283   7.524   5.395   6.046 -0.8072  0.4703 -1.1427
   86MOL   H41436284   7.381   5.468   6.022  0.7017  0.3292 -0.9391
   86MOL   H41536285   7.460   5.491   6.176 -1.1926  0.4748 -0.3539
   86MOL   H41636286   7.603   5.703   5.819 -2.5651  1.3426  1.1477
   86MOL   H41736287   7.481   5.589   5.803 -1.4556  0.0193  1.6268
   86MOL   H41836288   7.638   5.524   5.847 -0.4011 -0.3966  0.0229
   86MOL   H41936289   7.393   5.748   6.136  1.8836  0.1879  0.4153
   86MOL   H42036290   7.461   5.817   5.982 -1.1505 -0.7245 -2.0009
   86MOL   H42136291   7.321   5.724   5.985  0.4138 -2.3667  0.1212
   86MOL   H42236292   7.746   5.787   5.950 -1.5981  0.0624 -0.3587
   87MOL     C136293   2.012   6.260   7.531  0.4999  0.2176  0.0030
   87MOL     C236294   2.117   6.253   7.418  0.1519 -0.2055  0.4349
   87MOL     C336295   2.265   6.214   7.450  0.2670  0.9996  0.2583
   87MOL     C436296   2.304   6.060   7.467 -0.2569 -0.4007 -0.1133
   87MOL     C536297   2.350   6.005   7.332 -0.0990 -0.3691 -0.5993
   87MOL     C636298   2.424   6.055   7.569 -0.7712 -0.4567  0.5277
   87MOL     C736299   2.188   5.966   7.513  0.2818  0.9201 -0.2116
   87MOL     H836300   1.916   6.278   7.482 -0.4657 -0.4557  1.6188
   87MOL     H936301   1.997   6.166   7.584  1.3824 -0.0303 -0.1711
   87MOL    H1036302   2.086   6.170   7.355  1.0078 -0.7581  0.7304
   87MOL    H1136303   2.303   6.278   7.530 -0.9030 -0.5569  2.1217
   87MOL    H1236304   2.317   6.259   7.365  0.1320 -1.3840 -1.1179
   87MOL    H1336305   2.397   5.907   7.335  0.1637 -0.2076  1.1795
   87MOL    H1436306   2.426   6.069   7.287 -0.0601 -0.5483 -0.7887
   87MOL    H1536307   2.271   6.001   7.257  2.7701  3.6593 -4.1341
   87MOL    H1636308   2.383   6.066   7.670  1.9423 -1.0357  1.7188
   87MOL    H1736309   2.477   5.960   7.573  0.3998  0.2303  2.1128
   87MOL    H1836310   2.491   6.139   7.553  1.3535 -1.5944  3.0929
   87MOL    H1936311   2.092   5.968   7.463 -0.1039  0.1455  0.4828
   87MOL    H2036312   2.172   5.955   7.620  0.0318 -3.2654 -0.5945
   87MOL    H2136313   2.229   5.869   7.485 -0.7870  0.9279 -1.9063
   87MOL    H2236314   2.013   6.340   7.604  0.0613 -0.2262  0.4997
   87MOL    C2336315   2.115   6.389   7.347  0.2449  0.1087 -0.4328
   87MOL    C2436316   2.055   6.393   7.202 -0.3360 -1.0572  0.9128
   87MOL    C2536317   2.163   6.330   7.095 -1.6680 -0.4506  0.1152
   87MOL    C2636318   2.126   6.258   6.966  0.3598  0.1307 -0.4971
   87MOL    C2736319   2.016   6.157   6.999 -0.3820  0.5628 -0.2762
   87MOL    C2836320   2.071   6.359   6.869  0.0026 -0.6524 -0.4058
   87MOL    C2936321   2.251   6.202   6.909  0.3064  0.7977  0.2025
   87MOL    H3036322   2.057   6.454   7.411  0.0760  0.0894 -0.5676
   87MOL    H3136323   2.210   6.443   7.349 -0.5565  1.5507 -1.0571
   87MOL    H3236324   1.966   6.329   7.196  0.1148 -1.4681 -1.8218
   87MOL    H3336325   2.223   6.264   7.157 -0.2451  0.2828 -0.4537
   87MOL    H3436326   2.241   6.401   7.070 -0.7148 -1.8544 -0.9765
   87MOL    H3536327   2.040   6.089   7.081 -1.2016 -1.8074 -1.9323
   87MOL    H3636328   1.923   6.209   7.020 -2.1560 -1.7040 -2.1214
   87MOL    H3736329   1.986   6.094   6.915 -1.3062  0.3461  0.2127
   87MOL    H3836330   1.980   6.407   6.905 -0.4122 -2.3633  0.8729
   87MOL    H3936331   2.140   6.444   6.865 -0.2670 -0.4676 -1.0451
   87MOL    H4036332   2.041   6.323   6.771 -3.0820  0.1348  0.2114
   87MOL    H4136333   2.235   6.140   6.820  0.4631  0.1587  0.6189
   87MOL    H4236334   2.302   6.127   6.969 -1.3540 -0.0276  0.6290
   87MOL    H4336335   2.338   6.266   6.895  0.7779  0.0491 -0.3712
   87MOL    C4436336   2.022   6.541   7.153 -0.7089  0.0924  0.2355
   87MOL    C4536337   1.913   6.626   7.221 -0.2515 -0.1205  0.6649
   87MOL    C4636338   1.765   6.580   7.182 -0.1321 -0.4330  0.0009
   87MOL    C4736339   1.668   6.592   7.306  0.3834  0.3967 -0.2718
   87MOL    C4836340   1.525   6.566   7.255 -0.2508  0.1168  0.0687
   87MOL    C4936341   1.653   6.732   7.355 -0.0826 -0.0516 -0.9257
   87MOL    C5036342   1.711   6.484   7.409  0.5877 -0.4523  0.1223
   87MOL    H5136343   2.119   6.583   7.178 -0.3124 -0.8967  0.3816
   87MOL    H5236344   2.005   6.546   7.046 -0.2484  0.1664  0.1646
   87MOL    H5336345   1.923   6.610   7.328  0.3030 -0.7011  0.5354
   87MOL    H5436346   1.762   6.478   7.142  0.5785 -0.5038  0.1181
   87MOL    H5536347   1.730   6.628   7.091 -1.8559 -2.3174 -0.3656
   87MOL    H5636348   1.470   6.553   7.348  3.0883 -2.0569  1.8086
   87MOL    H5736349   1.515   6.474   7.199  1.5930  0.0837 -0.2500
   87MOL    H5836350   1.478   6.649   7.202  1.7674  1.0368 -0.3278
   87MOL    H5936351   1.738   6.774   7.409  0.6939 -3.2027  0.3709
   87MOL    H6036352   1.626   6.813   7.287 -1.7829  0.7446  0.6686
   87MOL    H6136353   1.569   6.738   7.424  0.2905 -1.0819 -0.3748
   87MOL    H6236354   1.787   6.514   7.481  0.1513 -0.7081  0.7028
   87MOL    H6336355   1.617   6.449   7.452  0.1527 -0.6478 -0.9724
   87MOL    H6436356   1.758   6.401   7.356  3.8634  2.2713 -1.4596
   87MOL    C6536357   1.935   6.768   7.174  0.2837 -0.4132  0.1214
   87MOL    C6636358   2.048   6.848   7.246 -0.7441  0.1865 -0.5485
   87MOL    C6736359   2.006   6.902   7.387 -0.4878  0.1080  0.1304
   87MOL    C6836360   2.106   6.867   7.500  0.0846  0.5285  0.7624
   87MOL    C6936361   2.238   6.942   7.478  0.0196  0.3227  0.3079
   87MOL    C7036362   2.051   6.922   7.631  0.1217 -0.2538 -0.3979
   87MOL    C7136363   2.130   6.721   7.506  0.6991  0.0876  0.1825
   87MOL    H7236364   1.949   6.766   7.066 -0.7106 -0.8029 -0.0013
   87MOL    H7336365   1.839   6.817   7.182  0.1602 -0.4675 -0.9769
   87MOL    H7436366   2.138   6.788   7.248 -0.6882  0.2907  0.1377
   87MOL    H7536367   1.908   6.865   7.420 -0.0606 -0.3063  0.9506
   87MOL    H7636368   1.985   7.008   7.374  2.1772  0.4662 -1.5034
   87MOL    H7736369   2.237   7.051   7.472 -0.4426  0.2784 -0.5304
   87MOL    H7836370   2.315   6.925   7.553  0.6163  0.7642 -0.1962
   87MOL    H7936371   2.269   6.898   7.383 -0.6373  2.1818 -0.8038
   87MOL    H8036372   1.960   6.878   7.670  1.0827 -2.5388 -0.6243
   87MOL    H8136373   2.039   7.030   7.636 -0.3653 -0.1125 -3.4129
   87MOL    H8236374   2.114   6.919   7.720 -1.8080 -0.5166  0.9923
   87MOL    H8336375   2.176   6.681   7.597 -0.4042 -0.2669  0.5935
   87MOL    H8436376   2.202   6.687   7.431  0.5539  0.7655 -0.2583
   87MOL    H8536377   2.040   6.660   7.498  1.2592 -0.6471 -0.6451
   87MOL    C8636378   2.091   6.972   7.150  0.1349 -0.3522 -0.4302
   87MOL    C8736379   2.193   6.949   7.032 -0.7122 -0.4060 -0.0538
   87MOL    C8836380   2.336   6.951   7.097 -0.3261 -0.0627  0.4491
   87MOL    C8936381   2.449   6.861   7.041 -0.4123  0.3301 -0.0330
   87MOL    C9036382   2.406   6.713   7.032  0.5022 -0.3540 -0.5082
   87MOL    C9136383   2.555   6.872   7.152 -0.3373  0.5745 -0.1478
   87MOL    C9236384   2.499   6.928   6.907 -0.3047 -0.5791 -0.0658
   87MOL    H9336385   2.131   7.056   7.207 -0.0076 -1.2107  0.9709
   87MOL    H9436386   1.996   7.011   7.114 -0.4682 -0.1698  1.2941
   87MOL    H9536387   2.179   6.853   6.984 -0.8411  0.4321 -1.7218
   87MOL    H9636388   2.308   6.907   7.193 -0.7127  0.1008  0.4137
   87MOL    H9736389   2.370   7.053   7.113 -0.2827 -0.3761  2.4108
   87MOL    H9836390   2.488   6.653   6.992 -1.3679 -1.3782 -2.9511
   87MOL    H9936391   2.315   6.700   6.974 -2.4757  0.8752  3.7024
   87MOL   H10036392   2.381   6.661   7.124 -0.6310  0.3983 -0.3891
   87MOL   H10136393   2.641   6.810   7.127 -0.3648 -0.0118  1.1533
   87MOL   H10236394   2.595   6.972   7.167 -0.9304  1.2365 -2.6636
   87MOL   H10336395   2.530   6.828   7.249 -0.0880 -0.7505 -0.6715
   87MOL   H10436396   2.419   6.918   6.833  0.1053 -4.0208 -0.1210
   87MOL   H10536397   2.511   7.036   6.914 -1.5929 -0.4007 -0.4634
   87MOL   H10636398   2.590   6.884   6.867  0.4959  1.0583 -0.0615
   87MOL   C10736399   2.185   7.060   6.931  0.3105  0.3481  0.2172
   87MOL   C10836400   2.129   7.015   6.792 -0.1317 -0.0069  0.4350
   87MOL   C10936401   1.985   6.950   6.800  0.1288  0.4219 -0.8774
   87MOL   C11036402   1.973   6.815   6.729 -0.2717  0.9263  0.8326
   87MOL   C11136403   1.981   6.832   6.580  0.2227  0.2822  0.1269
   87MOL   C11236404   1.837   6.752   6.762  0.3083  0.0181 -0.1487
   87MOL   C11336405   2.073   6.709   6.777 -0.0816  0.2056 -0.4861
   87MOL   H11436406   2.278   7.115   6.919  0.2972  0.9751  2.6253
   87MOL   H11536407   2.123   7.141   6.972  1.8212  2.4291 -1.4960
   87MOL   H11636408   2.197   6.943   6.747 -1.1901 -0.1596 -0.9288
   87MOL   H11736409   1.965   6.937   6.906  1.1411  0.4798 -0.6848
   87MOL   H11836410   1.899   7.011   6.770  0.0656  0.1072 -1.3436
   87MOL   H11936411   1.965   6.733   6.537  1.5310 -0.4162  1.1958
   87MOL   H12036412   1.916   6.911   6.541  1.2603  1.3588  0.5582
   87MOL   H12136413   2.082   6.856   6.547  0.0316 -1.8803 -2.1585
   87MOL   H12236414   1.814   6.667   6.697 -3.1865  0.6669  0.1276
   87MOL   H12336415   1.752   6.821   6.758 -0.2882 -0.7443 -0.9062
   87MOL   H12436416   1.832   6.704   6.859  1.1767  1.4638  0.6349
   87MOL   H12536417   2.070   6.617   6.719 -0.1175  1.6862 -2.8842
   87MOL   H12636418   2.060   6.695   6.884  1.2725 -0.2898 -0.3827
   87MOL   H12736419   2.175   6.745   6.762  0.1266  0.0585  0.5483
   87MOL   C12836420   2.129   7.142   6.706  1.2711  0.0973  0.4108
   87MOL   C12936421   2.260   7.183   6.636  0.2655  0.0670 -0.4268
   87MOL   C13036422   2.309   7.100   6.518  0.4188 -0.0534 -0.0313
   87MOL   C13136423   2.460   7.094   6.478  0.4110  0.5571 -0.1926
   87MOL   C13236424   2.467   6.982   6.379 -0.2972  0.4364 -0.2366
   87MOL   C13336425   2.561   7.070   6.595 -0.8035  1.0909  0.2477
   87MOL   C13436426   2.516   7.220   6.412 -0.3200  0.5484  0.2563
   87MOL   H13536427   2.069   7.221   6.749 -3.0700 -1.9941 -1.4519
   87MOL   H13636428   2.059   7.108   6.630  4.5551 -2.2252 -1.7431
   87MOL   H13736429   2.340   7.176   6.709 -0.8470 -0.1410  0.8018
   87MOL   H13836430   2.262   7.002   6.520  1.6044 -0.6346 -0.0509
   87MOL   H13936431   2.255   7.136   6.430  0.4855 -0.8445 -0.3997
   87MOL   H14036432   2.552   6.961   6.315 -0.2897  0.2595 -0.1711
   87MOL   H14136433   2.377   6.959   6.322 -0.3363 -0.5350  0.1907
   87MOL   H14236434   2.461   6.894   6.443  1.1311 -0.5284 -1.3926
   87MOL   H14336435   2.526   6.990   6.661  1.5912 -1.2034 -1.1645
   87MOL   H14436436   2.568   7.166   6.647  1.2692  0.8150  0.5281
   87MOL   H14536437   2.659   7.038   6.560 -1.9552 -2.1022 -0.2137
   87MOL   H14636438   2.616   7.202   6.372  0.1764  0.5741  1.4755
   87MOL   H14736439   2.449   7.248   6.331  3.0421  0.6317 -2.6219
   87MOL   H14836440   2.513   7.306   6.478 -1.0428  0.0320  0.9007
   87MOL   C14936441   2.243   7.329   6.595 -0.2822 -0.3367  0.6391
   87MOL   C15036442   2.245   7.432   6.715 -0.6593 -0.1593  0.4069
   87MOL   C15136443   2.398   7.460   6.750  0.0041 -0.2747  0.1671
   87MOL   C15236444   2.440   7.487   6.895  0.4682  0.0844  0.7567
   87MOL   C15336445   2.344   7.579   6.968 -0.3107  0.0117  0.0300
   87MOL   C15436446   2.584   7.554   6.894 -0.0910 -0.6750 -0.0454
   87MOL   C15536447   2.437   7.352   6.972 -0.4259 -0.3561 -0.2494
   87MOL   H15636448   2.141   7.337   6.557  0.0718 -2.7533 -0.8999
   87MOL   H15736449   2.311   7.369   6.520  0.4480 -2.6652  0.0509
   87MOL   H15836450   2.185   7.392   6.797 -1.5573 -0.5079 -0.4054
   87MOL   H15936451   2.425   7.543   6.686 -1.1161 -0.1496 -0.1469
   87MOL   H16036452   2.452   7.377   6.703  0.7908  0.4108 -0.1463
   87MOL   H16136453   2.326   7.669   6.909 -0.7438  0.2642  0.5384
   87MOL   H16236454   2.249   7.533   6.996 -0.8713  0.5807 -0.9220
   87MOL   H16336455   2.375   7.611   7.068 -1.4056  2.0470 -0.2472
   87MOL   H16436456   2.652   7.474   6.864  0.2969 -0.4818  0.3092
   87MOL   H16536457   2.622   7.592   6.989 -0.2371 -2.1552  0.6309
   87MOL   H16636458   2.582   7.634   6.820 -2.8394  0.5747  1.3141
   87MOL   H16736459   2.489   7.269   6.924 -1.4458 -0.8016 -0.6138
   87MOL   H16836460   2.489   7.354   7.068 -0.0451 -0.2043 -0.4566
   87MOL   H16936461   2.335   7.318   6.988  0.3860 -2.5876  0.3467
   87MOL   C17036462   2.167   7.562   6.687 -0.5378  0.3148  0.0220
   87MOL   C17136463   2.038   7.600   6.763  0.3739 -0.2314 -0.3673
   87MOL   C17236464   1.929   7.501   6.726  0.0489  0.3983  0.0235
   87MOL   C17336465   1.824   7.451   6.835  0.2750  0.4843 -0.0469
   87MOL   C17436466   1.761   7.570   6.911  0.4279 -0.1634  0.0315
   87MOL   C17536467   1.894   7.352   6.934 -0.3091 -0.0392  0.5416
   87MOL   C17636468   1.706   7.378   6.766 -0.1041  0.9443 -0.9254
   87MOL   H17736469   2.141   7.568   6.581  0.9261  0.2735 -0.3452
   87MOL   H17836470   2.237   7.645   6.686 -0.6488  0.3949 -1.5296
   87MOL   H17936471   2.054   7.584   6.869  1.7457 -1.6674 -0.7714
   87MOL   H18036472   1.869   7.540   6.643  1.3534 -1.0731 -1.6632
   87MOL   H18136473   1.962   7.415   6.667 -2.3118 -0.3549 -0.2838
   87MOL   H18236474   1.706   7.626   6.835  0.2431 -0.3378  0.0385
   87MOL   H18336475   1.688   7.548   6.989 -1.0008  0.9591 -0.9637
   87MOL   H18436476   1.845   7.624   6.956  1.0713 -0.1389 -1.1909
   87MOL   H18536477   1.993   7.382   6.970  0.9610 -1.7823 -1.3689
   87MOL   H18636478   1.827   7.331   7.017 -0.1278 -2.8333  0.0473
   87MOL   H18736479   1.899   7.253   6.888  0.7419 -0.0674  0.6921
   87MOL   H18836480   1.735   7.281   6.727  0.2516 -0.2148  2.1030
   87MOL   H18936481   1.622   7.350   6.830 -0.7945 -0.2106 -2.3116
   87MOL   H19036482   1.656   7.449   6.700  0.7250  0.3372 -2.2012
   87MOL   C19136483   2.001   7.751   6.743  0.4029  0.0483 -0.4317
   87MOL   C19236484   2.104   0.097   6.780  0.6887 -0.3266 -0.3366
   87MOL   C19336485   2.047   0.208   6.873  0.4989  0.0671  0.0242
   87MOL   C19436486   2.092   0.198   7.025 -0.3975  0.0552  0.2308
   87MOL   C19536487   2.051   0.061   7.085 -0.0242  0.3896  0.0785
   87MOL   C19636488   2.023   0.310   7.105  0.5253 -0.3979  0.0758
   87MOL   C19736489   2.244   0.216   7.033 -0.3787  0.8475 -0.5190
   87MOL   H19836490   1.957   0.002   6.644 -1.5354  0.1125  0.4194
   87MOL   H19936491   1.912   0.005   6.801 -0.4856  1.2286 -2.1562
   87MOL   H20036492   2.179   0.052   6.846  1.3931  1.5905  0.1849
   87MOL   H20136493   1.938   0.197   6.874  0.3658  1.2816 -0.4456
   87MOL   H20236494   2.071   0.310   6.844  1.1827  0.2361  1.1352
   87MOL   H20336495   1.949   0.062   7.122 -0.7507  1.5054 -1.8767
   87MOL   H20436496   2.061   7.740   7.020 -0.0260  1.2759 -1.1123
   87MOL   H20536497   2.116   0.043   7.171 -0.4988 -1.2015  0.1228
   87MOL   H20636498   2.043   0.408   7.060  0.7519  0.0836  1.2143
   87MOL   H20736499   1.916   0.289   7.106  0.9234 -2.6644 -1.2943
   87MOL   H20836500   2.058   0.317   7.208  1.3714  2.0846 -0.3252
   87MOL   H20936501   2.304   0.143   6.978  2.3978  1.6560  1.3314
   87MOL   H21036502   2.269   0.315   6.995 -1.9833  1.4017 -0.1550
   87MOL   H21136503   2.289   0.215   7.132 -0.9716 -0.9817 -0.2396
   87MOL   C21236504   2.169   0.160   6.651 -0.4438  0.4213  0.4877
   87MOL   C21336505   2.290   0.251   6.671  0.6995  0.0046  1.1896
   87MOL   C21436506   2.298   0.341   6.544 -0.4641 -0.8100  0.3079
   87MOL   C21536507   2.223   0.479   6.561 -0.3788 -0.9157 -0.0593
   87MOL   C21636508   2.294   0.563   6.679 -0.0084 -0.4728  0.0824
   87MOL   C21736509   2.250   0.555   6.431 -0.1471  0.4512  0.0894
   87MOL   C21836510   2.075   0.471   6.574 -0.3901  0.3752 -0.0816
   87MOL   H21936511   2.195   0.083   6.579 -2.2824 -2.1179  2.4463
   87MOL   H22036512   2.099   0.219   6.592  0.6161  0.7306 -0.4747
   87MOL   H22136513   2.273   0.308   6.762  1.4533  1.2647  0.5642
   87MOL   H22236514   2.251   0.290   6.460 -1.6141  0.7200 -0.0114
   87MOL   H22336515   2.401   0.365   6.519  0.3631 -3.3824  1.0684
   87MOL   H22436516   2.267   0.526   6.779  0.2204  1.6311  0.9372
   87MOL   H22536517   2.265   0.664   6.705 -2.0344 -0.6976 -1.2215
   87MOL   H22636518   2.401   0.546   6.675 -0.2022 -1.7950 -0.0022
   87MOL   H22736519   2.195   0.649   6.436  0.2903  0.8286 -2.0826
   87MOL   H22836520   2.355   0.585   6.429 -0.2072  0.6040 -1.1828
   87MOL   H22936521   2.240   0.510   6.333  0.1303  0.4477  0.0623
   87MOL   H23036522   2.043   0.422   6.666 -1.2072  1.2222  0.0956
   87MOL   H23136523   2.036   0.404   6.497  2.8843  0.4770 -1.9187
   87MOL   H23236524   2.018   0.562   6.554 -0.8034 -0.0174 -0.6967
   87MOL   C23336525   2.422   0.166   6.669 -0.3565 -0.8319 -0.4247
   87MOL   C23436526   2.555   0.236   6.699  0.1079  0.4880  0.0557
   87MOL   C23536527   2.565   0.249   6.853 -0.2390 -0.8071 -0.2961
   87MOL   C23636528   2.654   0.363   6.918 -0.0603 -0.1229  0.5919
   87MOL   C23736529   2.648   0.355   7.072  0.0274 -0.3070 -0.0114
   87MOL   C23836530   2.804   0.356   6.884 -0.1981 -0.4248 -0.1523
   87MOL   C23936531   2.604   0.500   6.878 -0.0047  0.3412  0.0406
   87MOL   H24036532   2.422   0.117   6.572 -2.4717 -2.0602  0.1878
   87MOL   H24136533   2.408   0.091   6.746  2.1591  1.1957  2.1399
   87MOL   H24236534   2.546   0.336   6.657  0.2939  0.1686 -0.7500
   87MOL   H24336535   2.471   0.271   6.903  0.1994 -1.9988  1.0819
   87MOL   H24436536   2.601   0.160   6.905 -0.9899 -1.4663 -0.8839
   87MOL   H24536537   2.695   0.438   7.127 -0.5233  0.1260 -0.1896
   87MOL   H24636538   2.695   0.266   7.112 -0.9937 -0.6905  0.3448
   87MOL   H24736539   2.542   0.359   7.098 -0.0264 -2.0926  0.0993
   87MOL   H24836540   2.859   0.436   6.933 -2.1538  0.4951  0.6208
   87MOL   H24936541   2.849   0.259   6.901  0.0807 -0.3290 -0.3457
   87MOL   H25036542   2.825   0.391   6.782 -1.6588 -0.3624 -0.4471
   87MOL   H25136543   2.499   0.504   6.910 -0.3868 -0.1586 -1.1351
   87MOL   H25236544   2.652   0.590   6.915  1.6254 -0.7701  0.6854
   87MOL   H25336545   2.613   0.519   6.771  1.4454 -0.3731  0.0243
   87MOL   C25436546   2.672   0.161   6.635 -0.0814  0.0905 -0.1257
   87MOL   C25536547   2.686   0.190   6.485  0.4010  0.3304 -0.0603
   87MOL   C25636548   2.780   0.080   6.428  0.6384  0.1105 -0.0638
   87MOL   C25736549   2.734   7.703   6.393 -0.0478  0.3732 -0.9481
   87MOL   C25836550   2.597   7.700   6.337  0.4985  0.0192  0.2954
   87MOL   C25936551   2.746   7.611   6.508  0.7014 -0.2625  0.3777
   87MOL   C26036552   2.817   7.641   6.280 -0.1932 -0.4108  0.2190
   87MOL   H26136553   2.648   0.055   6.645 -0.0393  0.1648  0.8014
   87MOL   H26236554   2.765   0.181   6.688 -0.0295 -1.6802  0.4717
   87MOL   H26336555   2.592   0.186   6.430 -0.0969  2.0906  0.6325
   87MOL   H26436556   2.821   0.129   6.340  0.4146  1.8913  0.8009
   87MOL   H26536557   2.858   0.070   6.504  0.2896  1.5757  0.5192
   87MOL   H26636558   2.565   0.012   6.267 -1.1541  0.9832  2.0631
   87MOL   H26736559   2.522   7.701   6.416  0.6022  0.5718  0.3843
   87MOL   H26836560   2.572   7.605   6.288 -0.6167  0.8997 -0.8821
   87MOL   H26936561   2.687   7.617   6.599  0.5263  1.6820  0.1420
   87MOL   H27036562   2.848   7.616   6.545  1.4352  5.1202 -1.8996
   87MOL   H27136563   2.738   7.508   6.472  0.6642  0.2165 -1.0523
   87MOL   H27236564   2.809   7.711   6.196 -0.5828 -1.1748 -0.3823
   87MOL   H27336565   2.922   7.622   6.302 -0.0621  0.0406 -0.0051
   87MOL   H27436566   2.782   7.544   6.246  1.2032 -1.3245  1.3290
   87MOL   C27536567   2.747   0.332   6.460 -0.3921 -0.0091 -0.0184
   87MOL   C27636568   2.730   0.385   6.313 -0.1284  0.2427 -0.3780
   87MOL   C27736569   2.583   0.410   6.271 -0.2730  0.1889  0.1012
   87MOL   C27836570   2.545   0.397   6.122  0.4317 -0.2875 -0.0558
   87MOL   C27936571   2.398   0.446   6.107 -0.2412  0.1570 -0.0634
   87MOL   C28036572   2.630   0.487   6.027  0.6216 -0.0814  0.0797
   87MOL   C28136573   2.558   0.254   6.070  0.7547 -0.1984 -0.3846
   87MOL   H28236574   2.705   0.404   6.530 -1.6930 -0.4485 -0.3310
   87MOL   H28336575   2.848   0.343   6.500 -0.8196  0.7725  0.8675
   87MOL   H28436576   2.782   0.328   6.236 -2.1556 -3.4011  0.7901
   87MOL   H28536577   2.559   0.514   6.295 -1.1628 -0.0945  0.4693
   87MOL   H28636578   2.511   0.343   6.318 -0.8618 -1.0867 -2.5242
   87MOL   H28736579   2.372   0.434   6.002 -1.0515  0.1968  0.1356
   87MOL   H28836580   2.330   0.373   6.151 -0.1361  1.9878  3.3621
   87MOL   H28936581   2.381   0.542   6.156  0.1233  0.1933 -0.0043
   87MOL   H29036582   2.734   0.460   6.045  0.8919  0.4553 -0.6531
   87MOL   H29136583   2.609   0.591   6.054  2.6995  0.3198  0.2160
   87MOL   H29236584   2.613   0.480   5.920  2.5506  1.6668 -0.3736
   87MOL   H29336585   2.656   0.215   6.098  0.5197 -0.2733  0.3450
   87MOL   H29436586   2.536   0.249   5.963  3.5686 -0.5130 -0.9797
   87MOL   H29536587   2.484   0.188   6.115 -0.2753  1.6754  0.7306
   87MOL   C29636588   2.807   0.522   6.309  0.1795  0.3884 -0.1523
   87MOL   C29736589   2.962   0.515   6.317 -0.3253  0.3453  0.5039
   87MOL   C29836590   3.027   0.652   6.342  1.3742  0.5637  0.3922
   87MOL   C29936591   3.055   0.693   6.492 -1.1958  0.1863 -0.2992
   87MOL   C30036592   2.920   0.704   6.567 -0.0774 -0.2295  0.3986
   87MOL   C30136593   3.154   0.598   6.566  0.0593 -0.7441 -0.1073
   87MOL   C30236594   3.115   0.834   6.485 -0.3919  0.1374  0.1244
   87MOL   H30336595   2.766   0.593   6.381 -0.5893  0.9235 -1.1136
   87MOL   H30436596   2.798   0.582   6.219  0.3263  1.2946  0.4223
   87MOL   H30536597   3.000   0.452   6.397  0.6917  1.3389  0.8126
   87MOL   H30636598   2.965   0.731   6.301  0.1006  0.2636  1.7081
   87MOL   H30736599   3.124   0.662   6.293 -0.5633  0.8333 -3.5671
   87MOL   H30836600   2.856   0.786   6.534 -0.6358 -1.3694 -1.3777
   87MOL   H30936601   2.862   0.612   6.576  0.0522 -0.5897 -2.0835
   87MOL   H31036602   2.948   0.724   6.671 -0.2580 -0.7865  0.5551
   87MOL   H31136603   3.119   0.496   6.581 -2.7261  0.0214 -1.0414
   87MOL   H31236604   3.251   0.592   6.517  0.7357  0.4763  1.0563
   87MOL   H31336605   3.165   0.631   6.669 -2.6766 -0.1273  0.0263
   87MOL   H31436606   3.053   0.895   6.419  0.9452  0.5583 -0.7692
   87MOL   H31536607   3.109   0.874   6.586  0.4319  0.6053 -0.0046
   87MOL   H31636608   3.217   0.830   6.445 -0.3532 -2.4397  0.3998
   87MOL   C31736609   3.026   0.451   6.188  0.5010 -0.2243  0.2356
   87MOL   C31836610   3.183   0.436   6.166  0.1057  0.6578 -0.6765
   87MOL   C31936611   3.222   0.288   6.142 -0.0051 -0.6531 -0.4149
   87MOL   C32036612   3.219   0.186   6.259  0.5419  0.4377  0.4963
   87MOL   C32136613   3.081   0.151   6.313 -0.0813 -1.1677  0.2043
   87MOL   C32236614   3.310   0.235   6.374  0.3115  0.0574 -0.2201
   87MOL   C32336615   3.276   0.057   6.197  0.1120  0.0647  0.4781
   87MOL   H32436616   2.988   0.350   6.176  1.4804 -0.5158 -0.5227
   87MOL   H32536617   2.979   0.486   6.096 -0.7178 -1.8124  0.2465
   87MOL   H32636618   3.226   0.471   6.260  1.1159  1.2650 -1.3588
   87MOL   H32736619   3.323   0.287   6.101 -0.0319  0.4501 -0.5278
   87MOL   H32836620   3.158   0.250   6.061  1.6915 -0.3041 -1.9506
   87MOL   H32936621   3.019   0.125   6.227 -1.5663  0.2940  0.8250
   87MOL   H33036622   3.038   0.238   6.363  0.7530  0.4947 -1.8905
   87MOL   H33136623   3.097   0.069   6.383 -2.1630  0.5534  2.7905
   87MOL   H33236624   3.256   0.302   6.441 -0.7859 -0.3794 -0.6555
   87MOL   H33336625   3.345   0.154   6.439 -0.3262 -0.3219 -0.3384
   87MOL   H33436626   3.394   0.285   6.328 -0.4821  1.9036  0.2833
   87MOL   H33536627   3.293   7.749   6.275 -0.1079  0.3638  0.8079
   87MOL   H33636628   3.374   0.074   6.152 -0.0576  1.1761  0.5063
   87MOL   H33736629   3.198   0.013   6.135  0.2075  1.6818 -0.8347
   87MOL   C33836630   3.234   0.525   6.052  0.6852 -0.5403  0.3872
   87MOL   C33936631   3.382   0.569   6.049 -0.4281 -0.3504 -0.1951
   87MOL   C34036632   3.426   0.662   6.171  0.2289  1.3058 -0.4008
   87MOL   C34136633   3.566   0.639   6.235  0.6010 -0.7156 -0.1214
   87MOL   C34236634   3.583   0.747   6.344 -0.6224  0.9834  0.1820
   87MOL   C34336635   3.575   0.502   6.294 -0.3938 -0.1830 -0.0979
   87MOL   C34436636   3.675   0.648   6.135 -0.3893  0.1566 -0.0054
   87MOL   H34536637   3.174   0.616   6.065  0.7111 -0.8530  3.1898
   87MOL   H34636638   3.206   0.464   5.967 -2.0284  1.2331 -0.0465
   87MOL   H34736639   3.439   0.476   6.058 -1.4311 -0.7870  2.0054
   87MOL   H34836640   3.348   0.668   6.248 -0.3495 -2.4147 -0.5862
   87MOL   H34936641   3.445   0.762   6.131  2.4575 -0.0037 -2.7570
   87MOL   H35036642   3.675   0.737   6.400  0.9112 -0.4696 -2.5165
   87MOL   H35136643   3.593   0.848   6.305  1.0083  1.7269  2.4320
   87MOL   H35236644   3.510   0.746   6.425  1.0242 -1.6150  1.7086
   87MOL   H35336645   3.517   0.498   6.386  0.7758  0.8788  0.7016
   87MOL   H35436646   3.545   0.430   6.218 -0.9270 -1.2307  1.0822
   87MOL   H35536647   3.673   0.474   6.333 -0.7220  1.8994  2.2961
   87MOL   H35636648   3.663   0.571   6.059  1.0875  1.6950 -1.8795
   87MOL   H35736649   3.682   0.741   6.077 -0.1120  0.3831  0.3908
   87MOL   H35836650   3.765   0.638   6.194 -1.2972  0.2725  1.4145
   87MOL   C35936651   3.420   0.639   5.917  0.0248 -0.7187  0.3021
   87MOL   C36036652   3.417   0.547   5.791  0.0608 -0.5142 -0.1155
   87MOL   C36136653   3.525   0.436   5.793  0.4208  0.7248  0.3340
   87MOL   C36236654   3.496   0.292   5.738  0.4530 -0.6029 -0.0080
   87MOL   C36336655   3.459   0.300   5.592  0.3973 -0.2988  0.3686
   87MOL   C36436656   3.401   0.205   5.820  0.4856  0.4073  0.0825
   87MOL   C36536657   3.632   0.218   5.734 -0.3445  0.3400  0.1681
   87MOL   H36636658   3.524   0.670   5.923 -0.4101  0.6307  0.9823
   87MOL   H36736659   3.357   0.727   5.910  1.5231  0.3358 -0.2960
   87MOL   H36836660   3.325   0.491   5.776  0.2290 -0.3876 -1.7641
   87MOL   H36936661   3.617   0.479   5.751 -0.4241 -0.6080 -3.0283
   87MOL   H37036662   3.567   0.428   5.893  0.5379  0.3967  0.2590
   87MOL   H37136663   3.535   0.355   5.536 -0.9678 -1.0846 -2.3405
   87MOL   H37236664   3.454   0.202   5.545 -0.9221  0.0365 -0.2224
   87MOL   H37336665   3.365   0.355   5.583 -0.1464 -1.3914 -0.8663
   87MOL   H37436666   3.347   0.275   5.884 -0.9568 -0.5645 -0.0426
   87MOL   H37536667   3.453   0.135   5.885  1.1761  0.6509 -0.2087
   87MOL   H37636668   3.331   0.154   5.754 -1.2711 -0.8580  2.8244
   87MOL   H37736669   3.703   0.262   5.663 -1.2390  0.3584 -0.7218
   87MOL   H37836670   3.618   0.114   5.705  0.2182  0.0185  1.0315
   87MOL   H37936671   3.678   0.214   5.833 -3.1083  0.1590  1.4982
   87MOL   C38036672   3.436   0.633   5.663 -0.2883  0.1127 -0.4369
   87MOL   C38136673   3.311   0.718   5.610 -0.0359  0.4049  0.2145
   87MOL   C38236674   3.200   0.623   5.555  0.0503  0.5660 -0.1911
   87MOL   C38336675   3.055   0.652   5.596  0.4580 -0.2676 -0.1389
   87MOL   C38436676   3.011   0.791   5.553  0.4671 -0.1922 -0.5095
   87MOL   C38536677   3.026   0.644   5.744 -0.5038 -0.1896 -0.5410
   87MOL   C38636678   2.972   0.547   5.523 -0.1190  0.2004  0.0520
   87MOL   H38736679   3.467   0.566   5.583 -1.5523 -0.6067 -0.3354
   87MOL   H38836680   3.518   0.699   5.689 -1.0454  1.6079 -1.7199
   87MOL   H38936681   3.272   0.775   5.694 -3.4923 -1.2927 -0.1231
   87MOL   H39036682   3.204   0.629   5.446 -1.3611  0.0222 -0.2774
   87MOL   H39136683   3.216   0.515   5.566 -0.1706  0.5062 -0.4373
   87MOL   H39236684   3.035   0.798   5.447  1.2130  2.0276 -0.2336
   87MOL   H39336685   2.902   0.793   5.557  0.5126  0.4100  1.0670
   87MOL   H39436686   3.050   0.878   5.607  3.5345 -1.5253 -0.5150
   87MOL   H39536687   2.924   0.656   5.779 -1.6891 -2.9701 -2.7608
   87MOL   H39636688   3.079   0.728   5.788 -1.1698  0.5577 -1.1406
   87MOL   H39736689   3.059   0.548   5.785  2.3385  0.6887 -0.6743
   87MOL   H39836690   2.988   0.551   5.415 -2.0572 -0.0388 -0.2709
   87MOL   H39936691   2.868   0.563   5.550 -0.1648 -0.5442  0.3223
   87MOL   H40036692   2.991   0.445   5.556 -1.9463  0.4670  1.9945
   87MOL   C40136693   3.352   0.817   5.507 -0.3555  0.2783  0.3812
   87MOL   C40236694   3.405   0.942   5.575 -0.3932 -0.9212  0.2104
   87MOL   C40336695   3.448   1.054   5.474  0.1448 -0.1254 -0.1116
   87MOL   C40436696   3.516   1.176   5.538 -0.0675  0.2519 -0.2438
   87MOL   C40536697   3.539   1.280   5.426  0.0844  0.0861  1.0835
   87MOL   C40636698   3.651   1.131   5.597 -0.5280 -0.1387  0.7704
   87MOL   C40736699   3.421   1.253   5.634  0.2420  0.3698  0.4967
   87MOL   H40836700   3.429   0.777   5.440 -0.3452  0.9103  0.0047
   87MOL   H40936701   3.268   0.853   5.448 -0.0338 -1.0035 -0.8920
   87MOL   H41036702   3.324   0.980   5.638  0.5855  2.9865 -0.7554
   87MOL   H41136703   3.356   1.093   5.430 -0.4991  0.8749  2.0447
   87MOL   H41236704   3.516   1.024   5.394  0.2635 -0.6638  0.1814
   87MOL   H41336705   3.447   1.312   5.377 -1.8322 -1.9169  3.2670
   87MOL   H41436706   3.595   1.225   5.350 -2.2921  0.9690 -1.3746
   87MOL   H41536707   3.606   1.359   5.459 -0.0278 -0.3387  2.3724
   87MOL   H41636708   3.726   1.210   5.600  0.1587 -0.7862  0.7669
   87MOL   H41736709   3.691   1.047   5.541 -2.3373 -0.8836  0.5394
   87MOL   H41836710   3.649   1.102   5.702 -0.6772  2.0402  1.3920
   87MOL   H41936711   3.369   1.189   5.705 -2.0143  1.3243 -0.2387
   87MOL   H42036712   3.466   1.334   5.690  0.2961 -0.4094  1.5846
   87MOL   H42136713   3.342   1.306   5.579 -0.1878  1.3800  2.0510
   87MOL   H42236714   3.483   0.921   5.648 -0.3396 -1.8666 -0.1012
   88MOL     C136715   4.711   2.367   1.820 -0.1561 -0.8390  0.9016
   88MOL     C236716   4.812   2.435   1.731 -0.2837  0.0263  0.4945
   88MOL     C336717   4.760   2.465   1.583 -0.1410  0.2519  0.6179
   88MOL     C436718   4.709   2.607   1.548 -0.3718  0.1844 -0.4019
   88MOL     C536719   4.819   2.711   1.527 -0.1851  0.0274 -0.0266
   88MOL     C636720   4.639   2.591   1.410 -0.2448 -0.0189  0.3456
   88MOL     C736721   4.601   2.648   1.655 -0.3163  0.0581  0.0705
   88MOL     H836722   4.613   2.413   1.824  0.4008  0.3215  1.3619
   88MOL     H936723   4.695   2.264   1.788  0.4998 -0.4649 -0.6511
   88MOL    H1036724   4.849   2.527   1.776  2.9065 -0.1894 -1.4905
   88MOL    H1136725   4.686   2.387   1.566  1.4991 -0.3796 -4.4907
   88MOL    H1236726   4.838   2.439   1.511 -1.9260 -2.2693 -0.4835
   88MOL    H1336727   4.874   2.736   1.618 -1.0329  1.4715  0.1102
   88MOL    H1436728   4.788   2.807   1.486  0.7939 -0.5813 -2.2583
   88MOL    H1536729   4.891   2.667   1.459 -1.7311 -1.3714 -0.7851
   88MOL    H1636730   4.545   2.539   1.432  0.7144 -1.8586  0.1975
   88MOL    H1736731   4.622   2.686   1.359 -1.3366 -0.8073 -0.7982
   88MOL    H1836732   4.693   2.528   1.339  0.5594  0.0382  0.9088
   88MOL    H1936733   4.550   2.744   1.644  0.5652  0.4104 -1.0858
   88MOL    H2036734   4.652   2.654   1.751 -0.5126 -0.1070  0.1851
   88MOL    H2136735   4.515   2.581   1.662 -1.2473  1.1306 -0.7868
   88MOL    H2236736   4.755   2.364   1.920 -0.5825  1.2775  1.1708
   88MOL    C2336737   4.940   2.343   1.729 -0.0120  0.4315 -0.0414
   88MOL    C2436738   5.069   2.405   1.675  0.4715  0.2467 -0.7162
   88MOL    C2536739   5.163   2.292   1.625  0.5465  0.1902 -0.9862
   88MOL    C2636740   5.170   2.259   1.466  0.2997  0.3798 -0.3176
   88MOL    C2736741   5.035   2.198   1.417 -0.1130  0.6327 -0.3603
   88MOL    C2836742   5.212   2.383   1.385  0.4297 -0.1836  0.7714
   88MOL    C2936743   5.284   2.159   1.445  0.8870  0.3425 -0.0534
   88MOL    H3036744   4.958   2.312   1.831  1.3500 -0.1624 -0.4558
   88MOL    H3136745   4.907   2.262   1.665  0.4186 -0.1052  0.4164
   88MOL    H3236746   5.043   2.466   1.588 -3.1957  0.7667  0.6448
   88MOL    H3336747   5.135   2.198   1.673  1.3430  0.5870  0.2675
   88MOL    H3436748   5.269   2.303   1.648  0.6298  0.1800 -1.3588
   88MOL    H3536749   4.952   2.261   1.449 -0.7370 -0.7741  0.8321
   88MOL    H3636750   5.039   2.184   1.309 -0.5786 -0.4476 -0.2390
   88MOL    H3736751   5.025   2.100   1.463  0.6423  0.8751  0.3209
   88MOL    H3836752   5.295   2.441   1.424 -0.1822  3.3104 -2.8107
   88MOL    H3936753   5.243   2.353   1.285 -3.4367 -0.9898 -0.2628
   88MOL    H4036754   5.124   2.444   1.364 -0.1106 -0.5714  1.8576
   88MOL    H4136755   5.254   2.067   1.495 -2.1634  1.5179  0.3635
   88MOL    H4236756   5.374   2.199   1.493  2.1610 -1.6721 -0.6863
   88MOL    H4336757   5.308   2.135   1.341  0.3073  0.3599 -0.1908
   88MOL    C4436758   5.157   2.496   1.768 -0.8188 -0.0618  0.3162
   88MOL    C4536759   5.202   2.434   1.903  0.3792  0.4053  0.2307
   88MOL    C4636760   5.087   2.458   2.010 -0.2128  0.0785 -0.8261
   88MOL    C4736761   5.081   2.351   2.133  0.0110 -0.7321 -0.2643
   88MOL    C4836762   5.206   2.358   2.219 -0.3427  0.3579 -0.1092
   88MOL    C4936763   5.058   2.213   2.085 -0.3389 -0.1651 -0.0494
   88MOL    C5036764   4.964   2.393   2.221  0.3280 -0.6872  0.7077
   88MOL    H5136765   5.248   2.530   1.718 -0.9262  1.6939  1.2393
   88MOL    H5236766   5.097   2.586   1.786 -0.3585  0.5282 -1.0314
   88MOL    H5336767   5.211   2.326   1.893 -0.0838  0.0950  2.8529
   88MOL    H5436768   4.991   2.449   1.960 -0.4515  0.5496 -0.4545
   88MOL    H5536769   5.096   2.560   2.047  0.0154 -1.0756  2.5076
   88MOL    H5636770   5.294   2.307   2.179 -0.2397  1.0237 -0.7357
   88MOL    H5736771   5.192   2.296   2.308  1.6348 -0.5695 -0.4222
   88MOL    H5836772   5.228   2.461   2.246  2.5678  0.0230 -1.0312
   88MOL    H5936773   5.145   2.180   2.028 -0.0372 -1.3502  1.0796
   88MOL    H6036774   5.029   2.146   2.166 -1.1886  0.6706  0.3405
   88MOL    H6136775   4.968   2.221   2.023 -0.2541 -1.6701 -0.3884
   88MOL    H6236776   4.974   2.492   2.267 -0.4693 -0.5787  0.6472
   88MOL    H6336777   4.881   2.403   2.152 -0.4451 -2.6715  1.3417
   88MOL    H6436778   4.945   2.325   2.304 -1.2487 -0.2301  0.7353
   88MOL    C6536779   5.334   2.496   1.955  0.1345 -0.0127 -0.8127
   88MOL    C6636780   5.468   2.452   1.883  0.9142 -0.1073 -1.0414
   88MOL    C6736781   5.500   2.309   1.948 -0.1239 -0.0936 -0.1783
   88MOL    C6836782   5.598   2.216   1.867  0.0325  0.0885 -0.2335
   88MOL    C6936783   5.542   2.180   1.734 -0.4056 -0.0957 -0.5428
   88MOL    C7036784   5.747   2.259   1.840  0.5563 -0.1609 -0.2477
   88MOL    C7136785   5.600   2.084   1.946  0.8273  0.2486  0.1967
   88MOL    H7236786   5.314   2.603   1.944  2.0831  0.4546  0.0008
   88MOL    H7336787   5.357   2.476   2.059  1.7411 -1.4456 -1.4146
   88MOL    H7436788   5.443   2.427   1.780 -1.7983 -0.7853 -0.2679
   88MOL    H7536789   5.404   2.258   1.962  0.6213 -1.2603  0.8609
   88MOL    H7636790   5.543   2.322   2.047  1.5582  3.9514 -1.3350
   88MOL    H7736791   5.539   2.259   1.659 -0.5898  0.5118  0.1002
   88MOL    H7836792   5.601   2.104   1.683  0.6391  1.9834 -2.5237
   88MOL    H7936793   5.437   2.151   1.740 -0.1586 -1.3538 -2.0075
   88MOL    H8036794   5.754   2.346   1.774  1.3923  1.1857  1.5684
   88MOL    H8136795   5.804   2.177   1.798  0.5890 -1.2977  1.9357
   88MOL    H8236796   5.799   2.282   1.933 -1.5242  1.0227  0.6561
   88MOL    H8336797   5.638   2.107   2.046 -1.4911 -2.1559  1.6990
   88MOL    H8436798   5.672   2.010   1.909  0.1641 -0.5055  0.4061
   88MOL    H8536799   5.502   2.036   1.950  0.7252  0.4378 -0.0616
   88MOL    C8636800   5.580   2.563   1.887  1.1387  0.5164  0.1630
   88MOL    C8736801   5.539   2.690   1.805  0.5937 -0.2846  0.4394
   88MOL    C8836802   5.651   2.735   1.708  0.0455 -0.2929  0.0293
   88MOL    C8936803   5.637   2.689   1.560 -0.1914 -0.2883  0.1027
   88MOL    C9036804   5.658   2.537   1.538 -0.3980  0.4629  0.2733
   88MOL    C9136805   5.760   2.750   1.489  0.1997 -0.4578  0.3071
   88MOL    C9236806   5.508   2.742   1.496  0.2798  0.7990  0.5648
   88MOL    H9336807   5.669   2.528   1.835  0.7637  0.5117 -0.4733
   88MOL    H9436808   5.603   2.591   1.990  0.7682  1.0132  0.1106
   88MOL    H9536809   5.450   2.664   1.747  1.4344  2.6487 -2.2690
   88MOL    H9636810   5.754   2.724   1.740  0.6690 -2.1111 -2.3695
   88MOL    H9736811   5.640   2.843   1.709  2.0720 -0.0769  1.2666
   88MOL    H9836812   5.731   2.487   1.602  1.0091 -0.7639 -2.2245
   88MOL    H9936813   5.710   2.512   1.445  0.3053  1.3991  0.4097
   88MOL   H10036814   5.561   2.490   1.553 -0.6100  1.4004  1.9120
   88MOL   H10136815   5.851   2.698   1.518  0.0750 -1.9842 -1.9143
   88MOL   H10236816   5.754   2.760   1.381  0.0009 -0.4315  0.3195
   88MOL   H10336817   5.779   2.850   1.529 -0.1645  0.9866 -2.9957
   88MOL   H10436818   5.492   2.845   1.528  1.5238  0.9869  0.6228
   88MOL   H10536819   5.504   2.732   1.387  2.0345 -0.2663  0.5775
   88MOL   H10636820   5.432   2.677   1.539 -0.4999  1.6796  0.5388
   88MOL   C10736821   5.514   2.808   1.907 -0.1626  0.6329 -0.0392
   88MOL   C10836822   5.423   2.933   1.869 -0.1883  0.2515 -0.0219
   88MOL   C10936823   5.275   2.877   1.841 -0.1551 -0.1543  0.5073
   88MOL   C11036824   5.169   2.942   1.743 -0.2162  0.2500  0.2243
   88MOL   C11136825   5.165   2.867   1.601 -0.0584 -0.2128 -0.6659
   88MOL   C11236826   5.185   3.094   1.717 -0.5868 -0.1404  0.0817
   88MOL   C11336827   5.031   2.916   1.809  0.1537 -1.2144  0.0679
   88MOL   H11436828   5.614   2.839   1.934  0.1159  0.6225 -1.0246
   88MOL   H11536829   5.470   2.774   2.001 -1.5553 -1.0411 -1.2466
   88MOL   H11636830   5.460   2.977   1.776  0.0665 -0.7762 -0.4090
   88MOL   H11736831   5.285   2.771   1.815  1.7854  0.0937  0.1221
   88MOL   H11836832   5.237   2.865   1.942  1.8562  0.2155  1.3254
   88MOL   H11936833   5.251   2.886   1.536  2.6659 -0.5067  2.7465
   88MOL   H12036834   5.125   2.766   1.603  0.8529 -0.5651 -0.2473
   88MOL   H12136835   5.078   2.915   1.554 -0.3358 -0.5889 -0.5367
   88MOL   H12236836   5.187   3.147   1.812  1.0798  0.8731 -0.4934
   88MOL   H12336837   5.093   3.138   1.677 -0.8852 -2.8496 -2.3605
   88MOL   H12436838   5.276   3.129   1.668 -0.9603  0.4396 -0.1995
   88MOL   H12536839   5.033   2.961   1.908  2.3124 -1.1035  0.0060
   88MOL   H12636840   4.999   2.813   1.824 -0.5156 -0.9560  0.4185
   88MOL   H12736841   4.947   2.955   1.753 -0.2457 -2.1043  0.0336
   88MOL   C12836842   5.425   3.036   1.982 -0.6993 -0.5440 -0.4738
   88MOL   C12936843   5.556   3.120   1.986  0.1277  0.0104  0.1347
   88MOL   C13036844   5.547   3.244   1.889 -0.4624 -0.0919  0.3312
   88MOL   C13136845   5.651   3.258   1.777  0.0017 -0.1979 -0.7150
   88MOL   C13236846   5.627   3.394   1.717  0.1224 -0.1018 -0.1412
   88MOL   C13336847   5.630   3.149   1.675 -0.2670  0.3414 -0.5397
   88MOL   C13436848   5.798   3.258   1.825 -0.0064  0.4321  0.1021
   88MOL   H13536849   5.411   2.986   2.078 -1.9961 -0.0253 -0.3850
   88MOL   H13636850   5.339   3.104   1.977  0.3249  0.9979  2.1198
   88MOL   H13736851   5.636   3.051   1.959  1.0107 -0.4830  3.7166
   88MOL   H13836852   5.448   3.260   1.846 -0.1289 -0.7980 -0.7097
   88MOL   H13936853   5.562   3.328   1.957  0.8300  0.7035 -0.9222
   88MOL   H14036854   5.525   3.402   1.681  0.0153  0.4551  0.2697
   88MOL   H14136855   5.707   3.406   1.644  0.6499 -0.7085  0.3329
   88MOL   H14236856   5.626   3.483   1.781 -0.3179  1.3144 -2.0706
   88MOL   H14336857   5.526   3.131   1.649 -0.5966 -2.0345  2.2050
   88MOL   H14436858   5.657   3.051   1.714 -0.7363  0.3270 -0.2426
   88MOL   H14536859   5.699   3.165   1.593  1.4203 -0.4901  0.6858
   88MOL   H14636860   5.864   3.289   1.745 -0.2086 -2.3731 -1.2001
   88MOL   H14736861   5.829   3.323   1.907  2.3759  1.3021 -1.4348
   88MOL   H14836862   5.829   3.154   1.835  1.3295  0.6333 -1.6658
   88MOL   C14936863   5.590   3.161   2.131 -0.7063  0.9111  0.7948
   88MOL   C15036864   5.719   3.231   2.170 -0.0760  0.1495  0.7093
   88MOL   C15136865   5.699   3.305   2.303 -0.1059 -0.0536  0.0610
   88MOL   C15236866   5.640   3.447   2.312  0.5258 -0.2181 -0.4041
   88MOL   C15336867   5.724   3.549   2.240 -0.0306 -0.1127 -0.2104
   88MOL   C15436868   5.641   3.484   2.458  0.3912 -0.2369  0.6726
   88MOL   C15536869   5.493   3.462   2.256  0.1406 -0.2251  0.3443
   88MOL   H15636870   5.594   3.068   2.188  0.3432 -0.7268 -1.8574
   88MOL   H15736871   5.500   3.211   2.169 -1.5157  0.6117 -0.6907
   88MOL   H15836872   5.718   3.324   2.113 -0.5405 -0.4474 -0.2668
   88MOL   H15936873   5.802   3.324   2.333 -0.2648  0.8656  0.0469
   88MOL   H16036874   5.660   3.245   2.385 -0.3821  1.4549  1.0431
   88MOL   H16136875   5.728   3.549   2.131  2.3538  3.3007 -0.1787
   88MOL   H16236876   5.688   3.648   2.269 -1.6801 -0.9412  0.6633
   88MOL   H16336877   5.831   3.545   2.262  0.2418  0.8882 -1.3237
   88MOL   H16436878   5.610   3.401   2.521 -0.5427  0.1415  0.7116
   88MOL   H16536879   5.591   3.576   2.488 -0.3153 -0.6801  0.8508
   88MOL   H16636880   5.743   3.496   2.495  0.2329  0.0159  1.0317
   88MOL   H16736881   5.495   3.462   2.147  0.1723 -0.0714  0.3442
   88MOL   H16836882   5.423   3.384   2.286 -1.3139  0.3480 -1.4350
   88MOL   H16936883   5.452   3.560   2.282 -0.9590 -0.9672  1.4224
   88MOL   C17036884   5.851   3.156   2.147 -0.2247 -0.0813 -0.3134
   88MOL   C17136885   5.889   3.044   2.255  0.2397  0.0088 -0.4897
   88MOL   C17236886   6.040   3.047   2.298 -0.1270 -0.6363  0.0940
   88MOL   C17336887   6.082   3.152   2.409  0.3668 -0.7563 -0.0726
   88MOL   C17436888   5.977   3.175   2.519 -0.6853 -0.0841  0.1441
   88MOL   C17536889   6.127   3.282   2.341  0.3987  0.3399  0.0009
   88MOL   C17636890   6.202   3.099   2.484 -0.4222 -1.0734 -0.0023
   88MOL   H17736891   5.920   3.239   2.138 -0.7934  0.4475  0.2169
   88MOL   H17836892   5.847   3.120   2.044 -0.4075 -0.2139 -0.2606
   88MOL   H17936893   5.812   3.062   2.330  0.4138  0.2492 -0.3705
   88MOL   H18036894   6.057   2.953   2.352  1.4287 -0.5261 -0.2020
   88MOL   H18136895   6.103   3.039   2.210 -0.4330 -3.5970  0.0877
   88MOL   H18236896   5.946   3.083   2.568 -2.3222 -0.0318 -0.7594
   88MOL   H18336897   6.014   3.244   2.595 -0.6931  0.1289 -0.0427
   88MOL   H18436898   5.880   3.208   2.481 -0.4423  1.3102  0.6697
   88MOL   H18536899   6.181   3.348   2.408  2.0080 -0.3021 -0.6134
   88MOL   H18636900   6.190   3.263   2.254  0.9380  2.2518 -0.0404
   88MOL   H18736901   6.042   3.343   2.311  2.5184  2.2873 -2.1611
   88MOL   H18836902   6.183   3.008   2.541 -1.4121  0.3732  2.0354
   88MOL   H18936903   6.284   3.090   2.413 -1.7259 -0.9239 -1.5540
   88MOL   H19036904   6.236   3.178   2.550  0.9443 -1.1656 -0.5847
   88MOL   C19136905   5.862   2.903   2.196  0.0381  0.0234 -0.1478
   88MOL   C19236906   5.825   2.789   2.289 -0.3345  0.0808  0.9815
   88MOL   C19336907   5.864   2.650   2.216 -0.0630  0.6973  0.4254
   88MOL   C19436908   5.991   2.580   2.252  0.1280 -0.2602  0.4291
   88MOL   C19536909   5.994   2.543   2.398 -0.3548 -0.7761  0.2265
   88MOL   C19636910   6.108   2.660   2.199  0.0403  0.1101 -0.2711
   88MOL   C19736911   5.988   2.453   2.175 -0.3980  0.1443  0.0270
   88MOL   H19836912   5.790   2.904   2.115  0.0051 -1.9592 -0.1465
   88MOL   H19936913   5.951   2.871   2.142 -0.8930 -2.9670  0.0373
   88MOL   H20036914   5.893   2.795   2.374  1.4395  2.3118 -0.5403
   88MOL   H20136915   5.856   2.684   2.113 -0.0519  0.6557  0.4109
   88MOL   H20236916   5.779   2.583   2.225  0.4534 -0.1242 -0.7088
   88MOL   H20336917   5.891   2.517   2.424 -0.5129  1.0584  1.5912
   88MOL   H20436918   6.059   2.462   2.430  0.3347 -1.1658 -2.0900
   88MOL   H20536919   6.024   2.628   2.460  2.3028  0.2926 -2.4152
   88MOL   H20636920   6.073   2.705   2.107  1.3017  0.6140 -0.5103
   88MOL   H20736921   6.144   2.736   2.268  2.8834 -0.7601 -0.7348
   88MOL   H20836922   6.197   2.607   2.165  0.0716 -0.8638  1.2541
   88MOL   H20936923   6.079   2.400   2.202 -0.8860  1.1487  4.0423
   88MOL   H21036924   5.902   2.394   2.205  0.5671 -1.1769  0.2551
   88MOL   H21136925   5.985   2.468   2.067 -2.0657  1.6804  0.2550
   88MOL   C21236926   5.678   2.791   2.329 -0.0008  0.3505  0.2581
   88MOL   C21336927   5.640   2.763   2.480 -0.2213 -0.5654  0.2021
   88MOL   C21436928   5.486   2.734   2.488 -0.5838 -0.4151  0.2299
   88MOL   C21536929   5.442   2.588   2.521 -0.3728 -0.4337 -0.1734
   88MOL   C21636930   5.496   2.486   2.416 -0.7740  0.8245  0.7475
   88MOL   C21736931   5.485   2.542   2.662  0.0826  0.4345  0.0721
   88MOL   C21836932   5.288   2.578   2.515 -0.1416 -0.1497 -0.0402
   88MOL   H21936933   5.632   2.888   2.312 -0.5477  0.1885  0.7674
   88MOL   H22036934   5.627   2.725   2.259  0.9321  0.1768 -0.2641
   88MOL   H22136935   5.685   2.668   2.507 -0.2582 -0.1168  1.8861
   88MOL   H22236936   5.452   2.762   2.388  2.4074  0.2763 -0.6515
   88MOL   H22336937   5.436   2.801   2.558  0.5204  0.3613  0.2951
   88MOL   H22436938   5.604   2.492   2.423 -0.6903  1.6957 -0.9723
   88MOL   H22536939   5.459   2.512   2.317  0.4241  1.1453  0.3810
   88MOL   H22636940   5.456   2.386   2.435 -0.7847  0.8371  0.7921
   88MOL   H22736941   5.445   2.603   2.742 -0.8045 -0.6911  0.4992
   88MOL   H22836942   5.462   2.437   2.682 -1.1276  0.3483 -1.6327
   88MOL   H22936943   5.594   2.553   2.664  0.0017  1.0111  1.1994
   88MOL   H23036944   5.249   2.665   2.567  2.5498 -0.2926  2.3189
   88MOL   H23136945   5.251   2.497   2.577  0.6420  0.3034  1.0206
   88MOL   H23236946   5.239   2.584   2.417  0.5228 -1.3766 -0.4570
   88MOL   C23336947   5.682   2.888   2.562  1.0135 -0.6371 -0.2241
   88MOL   C23436948   5.632   2.906   2.719  0.9248  0.1765  0.1445
   88MOL   C23536949   5.748   2.939   2.818 -0.4803  0.2773  0.3752
   88MOL   C23636950   5.831   2.813   2.866 -0.4449  0.2283 -0.5435
   88MOL   C23736951   5.955   2.866   2.934  0.4086 -0.1690  0.2215
   88MOL   C23836952   5.739   2.732   2.968 -0.0968  0.3429  0.0484
   88MOL   C23936953   5.871   2.715   2.752 -0.0105 -0.3359 -0.3194
   88MOL   H24036954   5.663   2.982   2.511 -1.9671 -1.2563 -0.3729
   88MOL   H24136955   5.791   2.892   2.564  0.9672 -0.2960  1.7494
   88MOL   H24236956   5.579   2.815   2.745 -0.9937  1.6281  1.4293
   88MOL   H24336957   5.820   3.009   2.779  1.4452 -1.6855  0.3056
   88MOL   H24436958   5.718   3.007   2.897 -2.6799  0.9761 -1.0266
   88MOL   H24536959   6.028   2.915   2.868  1.0015 -0.0188  0.9791
   88MOL   H24636960   6.013   2.793   2.990 -1.1194 -0.0697  1.9583
   88MOL   H24736961   5.936   2.940   3.012  0.4166 -0.2276  0.2784
   88MOL   H24836962   5.803   2.651   3.002  0.2413  1.1677  1.3970
   88MOL   H24936963   5.723   2.788   3.060 -1.0398 -1.3040  0.9058
   88MOL   H25036964   5.641   2.707   2.926 -0.5704  0.6766  0.9379
   88MOL   H25136965   5.938   2.634   2.781 -1.1409 -2.0726 -2.3882
   88MOL   H25236966   5.787   2.657   2.714  1.0392 -0.7455 -2.0611
   88MOL   H25336967   5.919   2.762   2.666  1.1775 -0.6190  0.1861
   88MOL   C25436968   5.523   3.021   2.723 -0.4758 -0.1432  0.2635
   88MOL   C25536969   5.431   3.003   2.853  0.6438 -0.2431 -0.3683
   88MOL   C25636970   5.323   2.903   2.823  0.4825 -0.2747 -0.3705
   88MOL   C25736971   5.263   2.812   2.943  0.4904 -0.1578  0.5355
   88MOL   C25836972   5.190   2.698   2.872  0.3075  0.1151  0.3623
   88MOL   C25936973   5.176   2.898   3.042  0.0718 -0.4491 -0.3816
   88MOL   C26036974   5.363   2.748   3.036 -0.3798  0.0298 -0.4847
   88MOL   H26136975   5.468   3.010   2.630  0.7082 -1.1486 -0.3376
   88MOL   H26236976   5.559   3.122   2.708 -1.5543  0.3754  1.1138
   88MOL   H26336977   5.489   2.974   2.940  1.8022 -0.9278 -1.3578
   88MOL   H26436978   5.242   2.952   2.767 -0.8178 -2.6792 -0.6866
   88MOL   H26536979   5.366   2.836   2.748  3.1138 -0.2333  1.0873
   88MOL   H26636980   5.110   2.734   2.807 -0.7137  0.3798  1.7481
   88MOL   H26736981   5.127   2.643   2.942 -0.3364  0.3228 -0.0505
   88MOL   H26836982   5.243   2.627   2.808 -2.8896 -1.3292 -0.8582
   88MOL   H26936983   5.106   2.833   3.096  2.5453 -2.0235  1.0053
   88MOL   H27036984   5.108   2.966   2.989 -1.4638 -1.1875  0.6032
   88MOL   H27136985   5.231   2.944   3.123 -1.3990 -1.6049  1.3243
   88MOL   H27236986   5.404   2.815   3.112 -1.6704 -0.4428  0.6493
   88MOL   H27336987   5.306   2.669   3.084 -0.1650  0.3927  0.3811
   88MOL   H27436988   5.445   2.715   2.973  0.3660  1.5323 -0.3264
   88MOL   C27536989   5.369   3.146   2.889  0.0464  0.0842 -0.3998
   88MOL   C27636990   5.466   3.258   2.933  0.5336  0.1545  0.4000
   88MOL   C27736991   5.390   3.394   2.950 -0.5315  0.3969 -0.3623
   88MOL   C27836992   5.383   3.488   2.828  0.2781 -0.2697 -0.5554
   88MOL   C27936993   5.288   3.607   2.867  1.3165 -0.6472  0.0105
   88MOL   C28036994   5.520   3.548   2.794  0.6355  0.4818 -0.1940
   88MOL   C28136995   5.333   3.415   2.708 -0.5593  0.5143  0.1607
   88MOL   H28236996   5.307   3.177   2.805  1.5126 -2.6325 -2.5778
   88MOL   H28336997   5.298   3.131   2.970 -1.1475  1.0227 -1.2540
   88MOL   H28436998   5.534   3.267   2.849  1.2484 -4.7188  0.2961
   88MOL   H28536999   5.437   3.457   3.026 -1.6758  2.0650 -1.0185
   88MOL   H28637000   5.285   3.380   2.976 -0.7710 -0.1891 -1.6155
   88MOL   H28737001   5.333   3.669   2.944 -0.3322 -0.6280  0.9770
   88MOL   H28837002   5.251   3.659   2.778  1.2027 -0.2431  0.2942
   88MOL   H28937003   5.202   3.565   2.919  0.5835  2.5807  1.5191
   88MOL   H29037004   5.581   3.469   2.750 -1.4644 -1.9166  1.0480
   88MOL   H29137005   5.577   3.572   2.883 -0.8653  0.8978  0.6836
   88MOL   H29237006   5.529   3.639   2.735  0.6595  0.0470 -0.8725
   88MOL   H29337007   5.238   3.365   2.728  0.4390 -2.0670 -1.2054
   88MOL   H29437008   5.398   3.337   2.668 -0.1294 -0.9904  3.6343
   88MOL   H29537009   5.332   3.491   2.630  1.6096 -1.5390 -1.9335
   88MOL   C29637010   5.533   3.220   3.068  0.5871 -0.0950  0.0755
   88MOL   C29737011   5.652   3.307   3.121 -0.1168  0.2260  0.0925
   88MOL   C29837012   5.774   3.289   3.026 -0.2000  0.4838  0.2102
   88MOL   C29937013   5.896   3.383   3.029  0.5334 -0.3794  0.0633
   88MOL   C30037014   5.988   3.325   2.923  0.1630 -0.2742 -0.0083
   88MOL   C30137015   5.879   3.532   2.993  0.0888  0.5226  0.6025
   88MOL   C30237016   5.959   3.384   3.167  0.5109 -0.5447  0.4605
   88MOL   H30337017   5.559   3.114   3.074 -1.0650 -0.4389  1.6236
   88MOL   H30437018   5.450   3.227   3.138 -0.6487  2.0965 -1.5218
   88MOL   H30537019   5.619   3.411   3.109  0.7689  0.4607 -0.4130
   88MOL   H30637020   5.732   3.279   2.926  0.6930 -2.4288  0.1050
   88MOL   H30737021   5.815   3.189   3.040 -2.4092 -0.5502 -0.6293
   88MOL   H30837022   6.010   3.219   2.936  1.8033  0.0437 -0.0909
   88MOL   H30937023   5.955   3.345   2.821 -0.5169  2.1392  0.6520
   88MOL   H31037024   6.088   3.366   2.938 -0.6414  2.2104 -1.1450
   88MOL   H31137025   5.815   3.603   3.046  1.2001  1.7868  0.2999
   88MOL   H31237026   5.973   3.588   3.004  1.0119 -0.4232 -2.0917
   88MOL   H31337027   5.851   3.538   2.888  0.3019 -0.4238  0.4877
   88MOL   H31437028   6.055   3.435   3.174 -0.9494  2.3875 -0.2629
   88MOL   H31537029   5.897   3.436   3.241  1.3173  0.7133  0.2773
   88MOL   H31637030   5.967   3.281   3.203 -0.3367 -0.4152  1.0357
   88MOL   C31737031   5.675   3.266   3.268 -0.1725 -0.1235 -0.2504
   88MOL   C31837032   5.564   3.318   3.363 -0.0445  0.4172 -0.6889
   88MOL   C31937033   5.546   3.231   3.488 -0.8812  0.3466  0.4371
   88MOL   C32037034   5.435   3.119   3.487  0.0711 -0.3498  0.6257
   88MOL   C32137035   5.450   3.024   3.373  0.0454  0.0284 -0.2840
   88MOL   C32237036   5.293   3.171   3.487  0.5182  0.3953 -0.2405
   88MOL   C32337037   5.460   3.036   3.609  0.0155 -0.2144 -0.3451
   88MOL   H32437038   5.695   3.159   3.277  0.8776  0.1839  1.2240
   88MOL   H32537039   5.763   3.306   3.318 -1.1595 -1.2214  2.4845
   88MOL   H32637040   5.469   3.326   3.311 -0.4001  0.6245 -0.0131
   88MOL   H32737041   5.543   3.298   3.574  1.5873  0.0917  0.7461
   88MOL   H32837042   5.640   3.180   3.508 -0.9383 -1.2873 -3.1118
   88MOL   H32937043   5.373   2.947   3.364 -0.8215  0.9623 -0.9111
   88MOL   H33037044   5.541   2.965   3.390  0.0102 -0.9217 -3.0191
   88MOL   H33137045   5.463   3.067   3.273  1.0134  1.3965  0.4160
   88MOL   H33237046   5.220   3.090   3.495  1.0340  0.0853  1.4776
   88MOL   H33337047   5.269   3.243   3.564  0.3912 -0.3162  0.3911
   88MOL   H33437048   5.276   3.218   3.390  0.6024 -0.2409 -0.5670
   88MOL   H33537049   5.373   2.972   3.627 -0.3889  0.0490 -1.3168
   88MOL   H33637050   5.470   3.101   3.696 -4.5474  0.7006 -0.3563
   88MOL   H33737051   5.550   2.975   3.608 -0.7009 -1.2708 -0.4872
   88MOL   C33837052   5.596   3.466   3.402 -0.0915 -0.5752 -0.0643
   88MOL   C33937053   5.476   3.545   3.460  0.1642  0.1598  0.9199
   88MOL   C34037054   5.395   3.585   3.329  0.2657 -0.3267 -0.2848
   88MOL   C34137055   5.243   3.619   3.351  0.2423 -0.0387 -0.2315
   88MOL   C34237056   5.220   3.727   3.465 -0.4009  0.5786 -0.4850
   88MOL   C34337057   5.190   3.681   3.217 -1.1191 -0.0263  0.1294
   88MOL   C34437058   5.168   3.487   3.386 -0.1893 -0.0621  0.1565
   88MOL   H34537059   5.633   3.514   3.311  1.5225  0.9914  1.3853
   88MOL   H34637060   5.675   3.477   3.476  0.5470 -0.2200 -0.7913
   88MOL   H34737061   5.420   3.484   3.531  1.0604  0.3125  1.7630
   88MOL   H34837062   5.402   3.527   3.237  1.0164  1.0937 -1.1528
   88MOL   H34937063   5.435   3.682   3.297  0.8763 -1.1024 -1.9346
   88MOL   H35037064   5.112   3.743   3.458 -0.4455 -0.1796 -1.9290
   88MOL   H35137065   5.257   3.704   3.564 -3.6336 -1.9610  0.2226
   88MOL   H35237066   5.263   3.821   3.430 -0.5439  0.0984 -2.0157
   88MOL   H35337067   5.253   3.760   3.176 -0.3094 -0.9521 -0.4258
   88MOL   H35437068   5.185   3.603   3.141 -0.8114  0.6238 -0.5611
   88MOL   H35537069   5.089   3.720   3.231 -1.6688 -0.4008 -2.6447
   88MOL   H35637070   5.164   3.417   3.302  0.0252  0.0581  0.0463
   88MOL   H35737071   5.211   3.437   3.472 -2.6686 -4.0378 -0.7821
   88MOL   H35837072   5.062   3.513   3.399 -0.3895  0.6968 -2.6134
   88MOL   C35937073   5.534   3.667   3.538 -0.3006 -0.4023  0.2973
   88MOL   C36037074   5.602   3.646   3.677  0.5401  0.0773 -0.2559
   88MOL   C36137075   5.516   3.562   3.783  0.4460  0.4933 -0.9980
   88MOL   C36237076   5.596   3.483   3.885 -0.2664 -0.0111  0.5465
   88MOL   C36337077   5.527   3.348   3.915 -0.4827  0.1526 -0.0349
   88MOL   C36437078   5.606   3.557   4.019  0.1780 -0.5181 -1.1153
   88MOL   C36537079   5.738   3.446   3.846 -0.5704 -0.7922  0.0078
   88MOL   H36637080   5.451   3.735   3.560 -0.4565 -0.1752 -0.9397
   88MOL   H36737081   5.598   3.721   3.469  1.3399 -0.8835  1.4326
   88MOL   H36837082   5.696   3.593   3.660 -0.1196 -1.9536  2.1598
   88MOL   H36937083   5.444   3.633   3.825  1.1202  0.1738  0.7084
   88MOL   H37037084   5.459   3.485   3.731 -1.1787  0.7820  0.3314
   88MOL   H37137085   5.528   3.280   3.830  1.2398 -0.8167  0.7403
   88MOL   H37237086   5.591   3.299   3.988  0.3482  0.7389 -0.3678
   88MOL   H37337087   5.429   3.347   3.963 -0.9105  2.6061 -0.8026
   88MOL   H37437088   5.514   3.598   4.061  2.7873  4.0790  0.4321
   88MOL   H37537089   5.681   3.636   4.028  0.0185 -0.2137 -2.3510
   88MOL   H37637090   5.646   3.488   4.092  2.2223  0.5398 -1.2088
   88MOL   H37737091   5.753   3.395   3.751  2.3453 -4.1185  2.1563
   88MOL   H37837092   5.789   3.396   3.929  1.3450 -1.0483 -1.3222
   88MOL   H37937093   5.815   3.522   3.851  0.4682 -1.8895  1.2683
   88MOL   C38037094   5.643   3.789   3.719 -0.0132  0.2648 -0.8557
   88MOL   C38137095   5.782   3.837   3.660  0.5923  0.0985  0.2690
   88MOL   C38237096   5.901   3.782   3.737 -0.3894  0.2392  0.3180
   88MOL   C38337097   6.001   3.699   3.654  0.3157  0.6431 -0.3415
   88MOL   C38437098   6.069   3.810   3.567 -0.1509  0.0870 -0.7645
   88MOL   C38537099   5.952   3.587   3.561  0.2639  0.6284  0.4089
   88MOL   C38637100   6.113   3.646   3.747 -0.4336  0.0540 -0.3372
   88MOL   H38737101   5.652   3.788   3.827 -0.0076 -1.5928 -0.8616
   88MOL   H38837102   5.561   3.861   3.717  1.8010  2.4315 -0.1732
   88MOL   H38937103   5.791   3.793   3.560  1.7750  1.6912 -0.3422
   88MOL   H39037104   5.950   3.871   3.777  2.1409 -0.7334 -0.5087
   88MOL   H39137105   5.877   3.718   3.822 -0.6809 -2.1113 -1.4762
   88MOL   H39237106   6.006   3.857   3.492 -1.3732  1.6890  1.2198
   88MOL   H39337107   6.109   3.888   3.633 -1.5528  0.0753  0.1084
   88MOL   H39437108   6.162   3.780   3.519 -0.4044 -0.9613 -0.6094
   88MOL   H39537109   6.033   3.544   3.502 -0.5773 -2.2735  1.2793
   88MOL   H39637110   5.878   3.615   3.487 -1.2982 -1.6564  1.0599
   88MOL   H39737111   5.904   3.507   3.617  1.0152 -0.8033 -0.9598
   88MOL   H39837112   6.200   3.596   3.705  0.0337 -0.7262  1.4901
   88MOL   H39937113   6.076   3.578   3.824  0.6765 -3.3965 -2.7325
   88MOL   H40037114   6.156   3.731   3.800 -3.4723  2.3927 -1.4772
   88MOL   C40137115   5.767   3.993   3.649 -0.2575  0.1016 -0.2112
   88MOL   C40237116   5.697   4.036   3.522 -0.2452 -0.0473 -0.1553
   88MOL   C40337117   5.717   4.185   3.494  0.5628 -0.2261 -0.1591
   88MOL   C40437118   5.645   4.249   3.378 -0.1577  1.1056 -0.1045
   88MOL   C40537119   5.492   4.204   3.367 -0.2916  0.3376 -0.4556
   88MOL   C40637120   5.725   4.209   3.255  0.3550  0.3733 -0.0472
   88MOL   C40737121   5.641   4.404   3.392 -0.4703  0.7145  0.3159
   88MOL   H40837122   5.737   4.039   3.743  1.0902  0.7750 -0.0944
   88MOL   H40937123   5.868   4.030   3.629 -0.1742 -0.0007  0.0253
   88MOL   H41037124   5.735   3.967   3.446 -0.0143  1.3138 -1.2945
   88MOL   H41137125   5.823   4.209   3.482  0.6070  0.0793  0.8241
   88MOL   H41237126   5.684   4.243   3.579  0.4913 -1.8009  0.9108
   88MOL   H41337127   5.466   4.098   3.367 -0.7296  0.4438 -0.6134
   88MOL   H41437128   5.443   4.249   3.281 -0.0606 -3.5178 -2.7015
   88MOL   H41537129   5.448   4.229   3.463  1.7476  0.0497  0.5881
   88MOL   H41637130   5.728   4.104   3.227  1.1220 -0.0124  1.4114
   88MOL   H41737131   5.830   4.239   3.249  0.4085  0.1770 -0.1107
   88MOL   H41837132   5.685   4.262   3.169  1.0412 -0.0407 -0.6270
   88MOL   H41937133   5.742   4.442   3.405 -0.3484  0.0403  1.3329
   88MOL   H42037134   5.597   4.457   3.307  0.7800  0.1830 -0.6856
   88MOL   H42137135   5.581   4.422   3.481 -1.4822 -1.8677  0.2101
   88MOL   H42237136   5.589   4.021   3.525 -0.3267  0.5628 -0.1110
   89MOL     C137137   6.688   6.598   6.157  0.2227  0.4879  0.3390
   89MOL     C237138   6.554   6.520   6.138  0.0998 -0.5054 -0.0777
   89MOL     C337139   6.518   6.516   5.988 -0.9608  0.2748 -0.4977
   89MOL     C437140   6.482   6.377   5.931 -0.3066 -0.4611  0.5898
   89MOL     C537141   6.353   6.334   5.999 -0.5117  0.7477 -0.1702
   89MOL     C637142   6.437   6.390   5.787  0.8428  0.0037 -0.3233
   89MOL     C737143   6.597   6.283   5.939 -0.3980  0.0362 -0.5143
   89MOL     H837144   6.677   6.700   6.121  1.3350  0.9127  1.1613
   89MOL     H937145   6.730   6.598   6.258  0.5389 -0.9059  0.2186
   89MOL    H1037146   6.554   6.418   6.177 -0.8628  0.1024  1.5455
   89MOL    H1137147   6.610   6.535   5.932 -0.5107  0.1977  0.2044
   89MOL    H1237148   6.436   6.581   5.958 -2.7424 -1.3694  0.6338
   89MOL    H1337149   6.362   6.324   6.107 -0.1462  3.0220  0.0441
   89MOL    H1437150   6.314   6.244   5.951  0.1240  0.4316 -0.0933
   89MOL    H1537151   6.272   6.407   5.986 -0.8279  0.4637  0.1849
   89MOL    H1637152   6.348   6.451   5.769  0.0695 -0.6830  1.1139
   89MOL    H1737153   6.502   6.428   5.709 -1.5388  1.0700 -1.8546
   89MOL    H1837154   6.413   6.291   5.748 -1.7377  0.4784 -0.0611
   89MOL    H1937155   6.571   6.182   5.969 -0.3503  0.5872  1.4227
   89MOL    H2037156   6.671   6.315   6.013 -3.8976  0.6230  2.8532
   89MOL    H2137157   6.653   6.280   5.845  1.6540 -2.2111  0.7103
   89MOL    H2237158   6.763   6.542   6.101 -1.0717 -0.2129 -0.7205
   89MOL    C2337159   6.445   6.587   6.220  0.5763  0.0225  0.1487
   89MOL    C2437160   6.469   6.626   6.361  0.7192 -0.1460  0.3677
   89MOL    C2537161   6.522   6.506   6.451 -0.0201 -0.2592 -0.1013
   89MOL    C2637162   6.566   6.532   6.595  0.4564  0.6698 -0.5606
   89MOL    C2737163   6.451   6.517   6.696  0.1700  0.7345 -0.5113
   89MOL    C2837164   6.661   6.417   6.625 -0.8604 -0.1226  0.1174
   89MOL    C2937165   6.647   6.673   6.613 -0.2059 -0.1038 -0.3980
   89MOL    H3037166   6.419   6.674   6.161 -0.7561 -0.2069  0.3875
   89MOL    H3137167   6.356   6.524   6.214  0.2124  0.1277  3.4448
   89MOL    H3237168   6.552   6.698   6.359  0.7574 -0.2068 -0.5136
   89MOL    H3337169   6.597   6.463   6.385  0.3282 -0.4118  0.3842
   89MOL    H3437170   6.440   6.435   6.458  0.7902 -1.1628  0.3603
   89MOL    H3537171   6.390   6.428   6.683  1.1079  0.2370 -1.5649
   89MOL    H3637172   6.482   6.526   6.801  2.0387  1.9541 -1.1425
   89MOL    H3737173   6.375   6.595   6.700  0.1716  0.6715  3.1186
   89MOL    H3837174   6.713   6.422   6.721  1.3461 -1.2807 -0.9850
   89MOL    H3937175   6.604   6.324   6.626 -0.2121 -0.5213  0.7488
   89MOL    H4037176   6.736   6.406   6.547  1.5387  0.3374  2.3011
   89MOL    H4137177   6.686   6.675   6.715 -0.9140  3.1729 -0.1266
   89MOL    H4237178   6.589   6.765   6.599  0.6095  0.5365  0.3604
   89MOL    H4337179   6.735   6.683   6.549 -0.1755  2.7909  0.0039
   89MOL    C4437180   6.338   6.701   6.417  0.9452  0.0213 -0.1564
   89MOL    C4537181   6.293   6.845   6.365 -0.1827  0.2776  0.0232
   89MOL    C4637182   6.397   6.958   6.387 -0.1505  0.2386 -0.3737
   89MOL    C4737183   6.436   7.047   6.261 -0.1190 -0.4101  0.3086
   89MOL    C4837184   6.309   7.102   6.196  0.3939 -0.4031 -0.6886
   89MOL    C4937185   6.518   6.969   6.165  0.0504  0.3062 -0.0502
   89MOL    C5037186   6.535   7.160   6.297 -0.2205 -0.1629  0.4686
   89MOL    H5137187   6.257   6.628   6.430 -0.3633  1.5086  0.1938
   89MOL    H5237188   6.358   6.723   6.522 -1.5524 -2.1326  0.8573
   89MOL    H5337189   6.272   6.839   6.258  0.8667  1.3023 -0.2541
   89MOL    H5437190   6.483   6.907   6.431 -1.4656 -1.4698  0.2904
   89MOL    H5537191   6.356   7.023   6.465 -0.8855  1.4396 -1.7451
   89MOL    H5637192   6.263   7.020   6.140  0.9667 -0.6428 -0.8213
   89MOL    H5737193   6.337   7.171   6.116  2.1215 -0.7211 -0.3903
   89MOL    H5837194   6.239   7.148   6.265  1.6019  0.4779 -0.0353
   89MOL    H5937195   6.588   6.900   6.214 -0.2396 -1.1599 -1.6577
   89MOL    H6037196   6.449   6.899   6.118  1.6260 -0.7871 -0.8000
   89MOL    H6137197   6.571   7.033   6.094 -0.3426 -1.7820 -2.2951
   89MOL    H6237198   6.531   7.240   6.224 -0.9571 -0.0355  0.6467
   89MOL    H6337199   6.516   7.210   6.392  1.3740  0.3495  0.5422
   89MOL    H6437200   6.643   7.143   6.287  0.0158  2.1021 -1.1747
   89MOL    C6537201   6.156   6.888   6.435 -0.2833 -0.0678  0.2073
   89MOL    C6637202   6.032   6.804   6.398  0.1954 -0.0488  0.4809
   89MOL    C6737203   5.989   6.853   6.253  0.3479  0.2289  0.3576
   89MOL    C6837204   5.933   6.744   6.152  0.4087 -0.6949 -1.4482
   89MOL    C6937205   6.018   6.621   6.157  0.2600  0.0205  0.2584
   89MOL    C7037206   5.780   6.717   6.174 -0.0717  0.1938 -0.0139
   89MOL    C7137207   5.955   6.806   6.009  0.1136 -0.0431  0.0406
   89MOL    H7237208   6.188   6.882   6.539 -2.0672  0.0382  0.7724
   89MOL    H7337209   6.132   6.994   6.425  2.0772  0.4278 -0.4963
   89MOL    H7437210   6.051   6.697   6.408 -1.3411 -0.4616 -0.7736
   89MOL    H7537211   6.076   6.884   6.196 -0.7524  1.2580 -0.7977
   89MOL    H7637212   5.924   6.939   6.270  2.4329  1.6454  1.3363
   89MOL    H7737213   5.996   6.551   6.077 -2.2672  0.4715  0.5256
   89MOL    H7837214   6.118   6.658   6.135  0.1793  0.0074 -0.1379
   89MOL    H7937215   6.008   6.565   6.249 -3.4330  0.6672  0.3312
   89MOL    H8037216   5.772   6.667   6.271  1.7705  0.7896  0.4793
   89MOL    H8137217   5.737   6.658   6.094  0.9527 -0.3287 -0.1966
   89MOL    H8237218   5.716   6.804   6.185 -2.0255 -0.8383 -2.9248
   89MOL    H8337219   6.059   6.825   5.983  0.2544 -2.1574 -1.0316
   89MOL    H8437220   5.904   6.902   5.996 -1.4169 -0.9772 -1.0905
   89MOL    H8537221   5.920   6.734   5.935  0.1545  0.8004 -0.8110
   89MOL    C8637222   5.917   6.833   6.492  0.4251 -0.2788 -0.2366
   89MOL    C8737223   5.895   6.745   6.619  0.4169  0.6579  0.2835
   89MOL    C8837224   6.022   6.742   6.715 -0.3303  0.3327 -0.2602
   89MOL    C8937225   6.020   6.845   6.833  0.0742  0.4366  0.2382
   89MOL    C9037226   6.013   6.994   6.786  0.7472 -0.2376  0.4154
   89MOL    C9137227   6.152   6.832   6.907 -0.2001  0.7735 -0.6040
   89MOL    C9237228   5.903   6.825   6.932 -0.3240  0.3833 -0.5691
   89MOL    H9337229   5.822   6.833   6.438  1.7336 -2.3099 -2.6028
   89MOL    H9437230   5.931   6.936   6.526 -1.0910 -0.5528  1.2752
   89MOL    H9537231   5.817   6.798   6.672 -0.8656 -2.9582  2.1563
   89MOL    H9637232   6.111   6.752   6.653 -0.2314 -0.3718 -0.2385
   89MOL    H9737233   6.034   6.642   6.758 -0.4420  0.3541 -0.1791
   89MOL    H9837234   5.921   7.026   6.737  0.4720 -0.6665  0.6447
   89MOL    H9937235   6.091   7.026   6.717  1.5255  0.6166  1.6631
   89MOL   H10037236   6.017   7.060   6.872  1.7985 -0.9597  0.9352
   89MOL   H10137237   6.176   6.732   6.942  1.1373  1.9214  1.8143
   89MOL   H10237238   6.240   6.868   6.854  0.9649 -0.3819  0.5295
   89MOL   H10337239   6.146   6.897   6.994  1.5087  1.5478 -1.0474
   89MOL   H10437240   5.808   6.827   6.879  0.1710  0.2364 -1.4731
   89MOL   H10537241   5.898   6.733   6.990  0.2893  0.4571 -0.3935
   89MOL   H10637242   5.888   6.905   7.005  0.9765  2.5301 -2.5763
   89MOL   C10737243   5.839   6.608   6.575  0.1191 -0.1562  0.2980
   89MOL   C10837244   5.766   6.512   6.675 -0.1380 -0.2340  0.5742
   89MOL   C10937245   5.869   6.425   6.767  0.2483 -0.2512 -0.5215
   89MOL   C11037246   5.964   6.315   6.691 -0.3518 -0.1628  1.2623
   89MOL   C11137247   6.103   6.377   6.650 -0.9593 -0.2596 -0.2379
   89MOL   C11237248   5.898   6.254   6.567  0.5414  0.2243 -0.4604
   89MOL   C11337249   5.988   6.196   6.786  0.6617  0.2091 -0.1391
   89MOL   H11437250   5.921   6.565   6.518  1.9207  1.7361  1.3888
   89MOL   H11537251   5.765   6.632   6.499  0.9685 -0.2157 -0.5601
   89MOL   H11637252   5.710   6.442   6.612  1.3470  1.6408 -3.0174
   89MOL   H11737253   5.921   6.490   6.837 -0.2959  0.3671 -0.6893
   89MOL   H11837254   5.804   6.362   6.829  1.5890 -0.5518  0.6006
   89MOL   H11937255   6.159   6.422   6.731 -2.5832  1.0350  0.1950
   89MOL   H12037256   6.162   6.303   6.596  2.8835  2.5203 -0.0659
   89MOL   H12137257   6.091   6.458   6.578 -0.6193 -0.1638 -0.1885
   89MOL   H12237258   5.943   6.165   6.523 -0.8189  0.2147 -1.8628
   89MOL   H12337259   5.895   6.336   6.495 -1.2060  1.6805  1.2173
   89MOL   H12437260   5.793   6.228   6.576  0.8666 -1.3616 -1.1575
   89MOL   H12537261   5.899   6.137   6.809 -0.0826  1.5937  0.5759
   89MOL   H12637262   6.029   6.216   6.885  0.1227 -1.0937  0.3551
   89MOL   H12737263   6.058   6.121   6.750  0.0783 -0.2098 -0.4140
   89MOL   C12837264   5.656   6.584   6.763 -0.6126 -0.1088 -0.0743
   89MOL   C12937265   5.515   6.516   6.753  0.3185 -0.3771  0.6518
   89MOL   C13037266   5.431   6.551   6.878  0.1957  0.4756 -0.0503
   89MOL   C13137267   5.442   6.455   7.007 -0.4627  0.0644 -0.1890
   89MOL   C13237268   5.372   6.524   7.117  0.4438 -0.1460 -0.4022
   89MOL   C13337269   5.593   6.444   7.051 -0.5700 -0.4147  0.4546
   89MOL   C13437270   5.376   6.312   6.970 -0.0135  0.0716  0.3579
   89MOL   H13537271   5.626   6.684   6.729  2.8965  0.7511 -0.8027
   89MOL   H13637272   5.692   6.593   6.865 -0.5902 -0.1029 -0.0829
   89MOL   H13737273   5.531   6.409   6.750  0.7123 -0.2777 -0.9855
   89MOL   H13837274   5.446   6.656   6.901 -2.7518  1.0068 -0.3530
   89MOL   H13937275   5.326   6.555   6.850  0.3162 -0.4140 -0.6465
   89MOL   H14037276   5.415   6.623   7.134 -0.1863 -0.0708  0.8543
   89MOL   H14137277   5.381   6.471   7.212  1.4960 -1.0302 -0.9884
   89MOL   H14237278   5.268   6.535   7.086  0.3782 -0.3119 -0.2397
   89MOL   H14337279   5.596   6.387   7.145 -0.8519  2.1327  2.0538
   89MOL   H14437280   5.639   6.541   7.067 -1.7167  0.3843 -1.0513
   89MOL   H14537281   5.656   6.389   6.981  1.6473  2.1885  0.3472
   89MOL   H14637282   5.269   6.310   6.950 -0.2802 -3.4035  1.7560
   89MOL   H14737283   5.443   6.273   6.893  1.4883  3.2771 -0.0408
   89MOL   H14837284   5.393   6.241   7.051  1.0943  1.2778  1.1849
   89MOL   C14937285   5.441   6.567   6.617 -0.1235 -0.7168 -0.5853
   89MOL   C15037286   5.332   6.474   6.557  0.2490  0.5191 -0.2116
   89MOL   C15137287   5.225   6.552   6.468 -0.3255 -0.9946 -0.4692
   89MOL   C15237288   5.101   6.624   6.522  0.1606 -0.0030 -0.9803
   89MOL   C15337289   5.008   6.531   6.609 -0.2939  0.4934  0.1860
   89MOL   C15437290   5.012   6.645   6.396 -0.0460 -0.6854 -0.2074
   89MOL   C15537291   5.136   6.746   6.601 -0.2565  0.6685  0.9147
   89MOL   H15637292   5.517   6.591   6.543  0.7883 -1.0594  0.2278
   89MOL   H15737293   5.399   6.660   6.657 -2.0916 -1.4729 -0.8611
   89MOL   H15837294   5.286   6.429   6.645  0.5815 -0.0476 -0.3279
   89MOL   H15937295   5.193   6.472   6.401 -0.5330 -1.1093 -0.2324
   89MOL   H16037296   5.285   6.623   6.412  0.0591 -0.4398  0.6300
   89MOL   H16137297   5.062   6.489   6.694  1.2095  0.5604 -0.7135
   89MOL   H16237298   4.911   6.570   6.639 -1.7243 -0.5964 -2.8183
   89MOL   H16337299   4.978   6.435   6.567  2.4775 -1.0532  1.6168
   89MOL   H16437300   4.980   6.552   6.349 -0.4629 -0.7512  0.1985
   89MOL   H16537301   5.079   6.692   6.324  2.3205 -1.0519  1.7030
   89MOL   H16637302   4.929   6.716   6.403  2.4227  2.1559  1.6248
   89MOL   H16737303   5.049   6.799   6.640  0.8017  1.8762  1.6843
   89MOL   H16837304   5.210   6.741   6.681  0.1003 -2.2884  0.4660
   89MOL   H16937305   5.180   6.817   6.532 -1.0730  1.2719  1.0079
   89MOL   C17037306   5.409   6.365   6.478 -0.0172 -0.2997 -0.0266
   89MOL   C17137307   5.327   6.232   6.441 -0.5666 -0.2540  0.9291
   89MOL   C17237308   5.331   6.131   6.562 -0.0978 -0.0413 -0.7310
   89MOL   C17337309   5.202   6.050   6.596  0.1701  0.0087 -0.0294
   89MOL   C17437310   5.145   5.985   6.471  0.1403 -0.2199 -0.1519
   89MOL   C17537311   5.095   6.156   6.657  0.4420 -0.6141 -0.2031
   89MOL   C17637312   5.240   5.945   6.698  0.2503  0.4470 -0.2532
   89MOL   H17737313   5.497   6.330   6.531  0.3452 -3.2974 -2.4082
   89MOL   H17837314   5.443   6.419   6.389  1.1703 -0.6203  0.2260
   89MOL   H17937315   5.224   6.261   6.420 -0.0175  0.1628 -1.3859
   89MOL   H18037316   5.425   6.078   6.549 -0.6036 -1.5722  1.5181
   89MOL   H18137317   5.349   6.179   6.658 -0.9441  1.6548 -1.3980
   89MOL   H18237318   5.213   5.907   6.436  0.2398 -0.3822  0.3873
   89MOL   H18337319   5.050   5.939   6.498  0.2173  0.1284  0.7376
   89MOL   H18437320   5.120   6.048   6.387  5.0397  1.1112 -0.7451
   89MOL   H18537321   5.137   6.206   6.744  1.4033  1.4339 -1.7761
   89MOL   H18637322   5.088   6.230   6.577 -0.2379  0.6577  1.0339
   89MOL   H18737323   5.001   6.102   6.669 -0.2614  0.9968  1.6756
   89MOL   H18837324   5.297   5.865   6.651  0.7610 -0.1341  1.3266
   89MOL   H18937325   5.311   5.975   6.775  1.7916  0.9112 -1.8366
   89MOL   H19037326   5.148   5.900   6.738  0.2496  0.8548  0.2125
   89MOL   C19137327   5.392   6.164   6.315  0.3179 -0.4004 -0.1248
   89MOL   C19237328   5.406   6.244   6.182  0.0158 -0.4934  0.2191
   89MOL   C19337329   5.268   6.307   6.141  0.0126 -0.3100 -0.7683
   89MOL   C19437330   5.282   6.431   6.042  0.8102  0.0349  0.3935
   89MOL   C19537331   5.390   6.539   6.081  0.3324  0.1754  0.2034
   89MOL   C19637332   5.149   6.504   6.062 -0.1442  0.0757 -0.9077
   89MOL   C19737333   5.288   6.387   5.890  0.6458  0.0591 -0.0696
   89MOL   H19837334   5.494   6.134   6.338  0.1215  0.9395  2.6204
   89MOL   H19937335   5.346   6.066   6.301  3.3533 -1.6269 -2.3289
   89MOL   H20037336   5.485   6.316   6.201  0.4426 -1.3412  1.7636
   89MOL   H20137337   5.239   6.348   6.238  1.8098 -2.4478  0.7226
   89MOL   H20237338   5.192   6.235   6.109 -0.2012 -1.4763  2.2089
   89MOL   H20337339   5.382   6.618   6.007  1.5208  0.4970  0.4155
   89MOL   H20437340   5.378   6.585   6.178 -1.8971  0.5007 -0.2022
   89MOL   H20537341   5.489   6.494   6.067  0.7917  0.1061  3.4042
   89MOL   H20637342   5.066   6.439   6.034  0.4580 -1.3606  0.5664
   89MOL   H20737343   5.134   6.547   6.161 -0.0190  1.5141 -1.4925
   89MOL   H20837344   5.141   6.592   5.997 -1.3580  1.6955  1.3418
   89MOL   H20937345   5.378   6.416   5.836  0.8489 -0.8242 -0.2161
   89MOL   H21037346   5.279   6.279   5.872  1.0367  0.1141 -0.6113
   89MOL   H21137347   5.214   6.452   5.845  1.0130  0.8019  0.3845
   89MOL   C21237348   5.469   6.161   6.058  0.2371 -0.4253  0.0819
   89MOL   C21337349   5.600   6.081   6.090  0.0870  0.1274 -0.8990
   89MOL   C21437350   5.710   6.104   5.985 -0.1446  0.0298  0.9428
   89MOL   C21537351   5.804   6.213   6.025  0.3803 -0.1730  0.4907
   89MOL   C21637352   5.886   6.243   5.894 -0.0954  0.3536 -0.0065
   89MOL   C21737353   5.743   6.347   6.062  0.1231  0.0384  0.3129
   89MOL   C21837354   5.907   6.159   6.124 -0.5082  0.6698  0.5458
   89MOL   H21937355   5.388   6.101   6.016 -2.6836  2.8376  0.8338
   89MOL   H22037356   5.485   6.228   5.973  0.4121  1.4061  1.5199
   89MOL   H22137357   5.633   6.110   6.190 -1.2677 -1.0598 -0.0878
   89MOL   H22237358   5.660   6.137   5.893  2.0537  3.9561  1.0240
   89MOL   H22337359   5.765   6.015   5.956 -0.1933  0.5695 -0.8809
   89MOL   H22437360   5.816   6.293   5.826 -0.9109  0.5368  0.9456
   89MOL   H22537361   5.907   6.153   5.837  2.0107 -0.3145  1.7637
   89MOL   H22637362   5.978   6.299   5.908 -0.3294  1.1451 -1.4960
   89MOL   H22737363   5.683   6.349   6.153 -0.1029  1.0821  0.1421
   89MOL   H22837364   5.821   6.419   6.088 -1.4985  3.0560 -2.8100
   89MOL   H22937365   5.685   6.391   5.981  0.6486  0.7920  0.3444
   89MOL   H23037366   5.999   6.216   6.136  0.2505 -0.6840  1.2426
   89MOL   H23137367   5.947   6.060   6.099 -0.0402  0.3102  2.6359
   89MOL   H23237368   5.863   6.150   6.223  2.1728  2.0123  1.9113
   89MOL   C23337369   5.566   5.930   6.111  0.3519 -0.2699 -0.3746
   89MOL   C23437370   5.680   5.846   6.181 -0.1419 -0.2111  0.3201
   89MOL   C23537371   5.682   5.877   6.339 -0.3934  0.3967 -0.4012
   89MOL   C23637372   5.804   5.838   6.432 -0.5210 -0.3830  0.3751
   89MOL   C23737373   5.948   5.871   6.379  0.1565 -0.5541  0.2982
   89MOL   C23837374   5.788   5.907   6.577 -0.2361  0.1094  0.0508
   89MOL   C23937375   5.805   5.687   6.455  0.6751  0.0385 -0.4885
   89MOL   H24037376   5.557   5.889   6.010 -0.6775 -0.9081 -0.0324
   89MOL   H24137377   5.472   5.923   6.165  0.0726 -1.7698 -1.0106
   89MOL   H24237378   5.767   5.891   6.134  0.4323 -0.8377  0.7886
   89MOL   H24337379   5.690   5.985   6.343 -0.8596  0.5234 -2.4630
   89MOL   H24437380   5.586   5.844   6.379 -0.6712 -0.3563 -1.6756
   89MOL   H24537381   5.948   5.855   6.271  1.2155 -1.8088  0.4750
   89MOL   H24637382   6.008   5.802   6.438  1.2045  0.7616  0.8013
   89MOL   H24737383   5.985   5.973   6.389 -0.9788 -0.1692  0.6137
   89MOL   H24837384   5.684   5.893   6.607 -0.2217 -0.5119 -0.1694
   89MOL   H24937385   5.860   5.867   6.649 -0.2752  1.6701  0.9634
   89MOL   H25037386   5.804   6.013   6.560 -1.3534  0.4888  1.3220
   89MOL   H25137387   5.834   5.635   6.364  0.6592  0.9377 -1.0071
   89MOL   H25237388   5.857   5.650   6.543  1.0948 -2.5593 -1.7672
   89MOL   H25337389   5.704   5.651   6.477  0.7258  1.5582  2.4893
   89MOL   C25437390   5.696   5.691   6.151 -0.1052 -0.0615 -0.6718
   89MOL   C25537391   5.647   5.635   6.015 -0.4516 -0.2861 -0.1496
   89MOL   C25637392   5.724   5.707   5.893 -0.4569  0.2002 -0.8487
   89MOL   C25737393   5.816   5.612   5.812  0.3251  0.4560  0.0458
   89MOL   C25837394   5.936   5.561   5.903  0.3888 -0.5117  0.5501
   89MOL   C25937395   5.868   5.691   5.687 -0.3569 -0.1807  0.3462
   89MOL   C26037396   5.736   5.493   5.759 -0.3205 -0.0233  0.2295
   89MOL   H26137397   5.656   5.629   6.231  0.4854 -1.0245 -1.1107
   89MOL   H26237398   5.799   5.655   6.158 -0.0648  0.2010  0.0765
   89MOL   H26337399   5.683   5.532   6.011 -0.2906 -0.2491  0.3357
   89MOL   H26437400   5.662   5.748   5.814 -0.1669  1.7666 -0.2937
   89MOL   H26537401   5.785   5.786   5.938  2.6593 -0.8536 -3.0115
   89MOL   H26637402   5.911   5.529   6.004 -0.1258 -0.3519  0.4804
   89MOL   H26737403   6.001   5.644   5.930  0.9725 -0.8616  0.2207
   89MOL   H26837404   5.997   5.487   5.851 -2.2443 -1.8035 -0.8146
   89MOL   H26937405   5.784   5.740   5.638  0.3860  2.8965  2.0141
   89MOL   H27037406   5.922   5.639   5.608  0.2609  1.7862 -0.5635
   89MOL   H27137407   5.923   5.781   5.714 -0.4931 -0.6588  2.3013
   89MOL   H27237408   5.658   5.526   5.689  0.2883  0.6353 -0.1427
   89MOL   H27337409   5.797   5.426   5.700  0.5168 -0.4755  1.5867
   89MOL   H27437410   5.693   5.421   5.829 -0.9457  0.4796  0.3751
   89MOL   C27537411   5.491   5.622   5.999  0.2596  0.2991 -0.2024
   89MOL   C27637412   5.419   5.524   6.102 -0.0041  0.6024  0.5802
   89MOL   C27737413   5.379   5.601   6.230  0.2594 -0.0256 -0.1576
   89MOL   C27837414   5.363   5.519   6.367 -0.5203 -0.3035 -0.1949
   89MOL   C27937415   5.322   5.618   6.488  0.1597  0.0022 -0.5506
   89MOL   C28037416   5.244   5.415   6.364  0.2291 -0.5797 -0.0503
   89MOL   C28137417   5.487   5.450   6.418  0.0670  0.2218  0.3659
   89MOL   H28237418   5.436   5.716   5.993 -1.4189 -0.3752  3.5444
   89MOL   H28337419   5.490   5.578   5.899 -0.2423  1.3863 -0.6947
   89MOL   H28437420   5.498   5.453   6.130 -1.3298 -0.9901  0.3737
   89MOL   H28537421   5.286   5.658   6.223 -0.6763 -1.3869  0.8512
   89MOL   H28637422   5.459   5.674   6.236  0.2382 -0.0877  0.8913
   89MOL   H28737423   5.263   5.578   6.571  1.3074  2.3055  1.4576
   89MOL   H28837424   5.406   5.681   6.518  0.5580 -0.6582 -0.2818
   89MOL   H28937425   5.255   5.694   6.446 -1.8703 -0.4299  1.7611
   89MOL   H29037426   5.229   5.358   6.456 -0.7623 -2.8128 -1.5486
   89MOL   H29137427   5.267   5.345   6.284  0.8754  0.6230 -0.9252
   89MOL   H29237428   5.149   5.463   6.341 -1.3320 -3.7761 -0.6660
   89MOL   H29337429   5.568   5.524   6.424 -2.0592  2.5182  1.7017
   89MOL   H29437430   5.514   5.388   6.333 -0.8072  0.7701 -0.3193
   89MOL   H29537431   5.489   5.377   6.499  0.4123  0.3097  0.4398
   89MOL   C29637432   5.297   5.454   6.035  0.3164 -0.9176  0.6695
   89MOL   C29737433   5.331   5.328   5.946 -0.0528  0.0895 -0.6609
   89MOL   C29837434   5.210   5.297   5.852  0.2649  0.1099  0.0859
   89MOL   C29937435   5.223   5.300   5.700  0.0237 -0.6014 -0.4993
   89MOL   C30037436   5.347   5.226   5.641  0.2306  0.4180  0.3146
   89MOL   C30137437   5.096   5.259   5.624 -0.5435 -0.0686  0.3153
   89MOL   C30237438   5.237   5.450   5.665 -0.5510 -0.7075 -0.1605
   89MOL   H30337439   5.235   5.536   6.000  0.9306  1.0710  4.0095
   89MOL   H30437440   5.219   5.426   6.105  0.1884 -0.9281  0.5220
   89MOL   H30537441   5.409   5.363   5.879  0.6421 -1.6526 -0.7713
   89MOL   H30637442   5.132   5.367   5.880  1.7055  1.9966 -0.4884
   89MOL   H30737443   5.167   5.203   5.888  1.2190  0.5424  2.4984
   89MOL   H30837444   5.438   5.245   5.698 -0.4122 -0.2812  1.5858
   89MOL   H30937445   5.331   5.119   5.636  0.2519  0.3965  0.6834
   89MOL   H31037446   5.355   5.270   5.542  0.2962  1.7569  0.8958
   89MOL   H31137447   5.104   5.261   5.516  0.0737 -1.5712  0.3152
   89MOL   H31237448   5.081   5.157   5.662 -0.5327  0.3347  1.4225
   89MOL   H31337449   5.015   5.323   5.659  1.2507  2.0750  0.6745
   89MOL   H31437450   5.242   5.470   5.558  3.0673 -1.0001 -0.1069
   89MOL   H31537451   5.156   5.503   5.717 -0.1793 -1.1347  0.8660
   89MOL   H31637452   5.324   5.497   5.711 -0.2916 -0.8680 -0.4932
   89MOL   C31737453   5.384   5.216   6.035 -0.5397 -0.4182  0.2110
   89MOL   C31837454   5.474   5.100   5.988 -0.2774 -0.1751 -0.2444
   89MOL   C31937455   5.567   5.046   6.101  0.2446  0.5501 -0.3168
   89MOL   C32037456   5.706   5.109   6.117 -0.2423 -0.6002 -0.2959
   89MOL   C32137457   5.796   5.073   5.997  0.4757  0.4805  0.5222
   89MOL   C32237458   5.758   5.048   6.248 -0.1620  0.7499 -0.3876
   89MOL   C32337459   5.703   5.261   6.136  0.2219  0.9042  0.0174
   89MOL   H32437460   5.420   5.250   6.132 -0.2593  0.1667 -0.0927
   89MOL   H32537461   5.293   5.165   6.067 -0.3479 -0.5663  0.5237
   89MOL   H32637462   5.537   5.136   5.906  0.5777 -0.2803  0.3604
   89MOL   H32737463   5.580   4.943   6.070  1.1379  1.0875 -1.7722
   89MOL   H32837464   5.512   5.032   6.194 -0.8516 -1.2181 -1.2192
   89MOL   H32937465   5.897   5.113   6.004  0.6082 -0.2791  3.3239
   89MOL   H33037466   5.757   5.096   5.898  2.5189  0.8363 -0.2252
   89MOL   H33137467   5.804   4.964   5.992 -0.6258  0.3596  1.3056
   89MOL   H33237468   5.866   5.058   6.246  0.1785 -2.8010 -2.1614
   89MOL   H33337469   5.712   5.090   6.338  0.2469 -0.4694  0.4023
   89MOL   H33437470   5.745   4.940   6.248 -0.0918  0.7048  1.7258
   89MOL   H33537471   5.645   5.302   6.052 -0.7702 -2.5905 -1.0599
   89MOL   H33637472   5.801   5.309   6.142 -0.3563  2.3317 -1.5778
   89MOL   H33737473   5.651   5.283   6.229  1.3149 -0.3185  0.9167
   89MOL   C33837474   5.390   4.977   5.941 -0.2952  0.4452  0.3468
   89MOL   C33937475   5.458   4.854   5.861 -0.5346  0.1471  0.4421
   89MOL   C34037476   5.500   4.893   5.715  0.8503 -0.7666 -0.4575
   89MOL   C34137477   5.620   4.828   5.626 -0.0073 -0.0114 -0.1566
   89MOL   C34237478   5.643   4.912   5.492  0.1110  0.1453 -0.7230
   89MOL   C34337479   5.755   4.813   5.701 -0.5986 -0.8384 -0.1117
   89MOL   C34437480   5.573   4.688   5.585  0.0067 -0.2477  0.0675
   89MOL   H34537481   5.310   5.011   5.876  0.4972 -0.8938 -1.3816
   89MOL   H34637482   5.335   4.951   6.032 -1.8864  1.0964 -0.4148
   89MOL   H34737483   5.555   4.819   5.896 -0.6044 -1.2746 -0.7225
   89MOL   H34837484   5.522   4.999   5.722  1.3669 -0.8599 -0.6063
   89MOL   H34937485   5.407   4.892   5.658 -0.4939  2.3770  1.5842
   89MOL   H35037486   5.730   4.867   5.445  0.1134 -1.8167  1.0784
   89MOL   H35137487   5.554   4.907   5.428  0.4410  1.7502 -1.3256
   89MOL   H35237488   5.675   5.015   5.503 -0.9025  0.4256 -0.3195
   89MOL   H35337489   5.839   4.762   5.654  0.8440 -0.9652  2.5098
   89MOL   H35437490   5.791   4.914   5.723  0.0079 -0.9613 -0.5430
   89MOL   H35537491   5.758   4.769   5.801 -1.6021  0.6655  0.6062
   89MOL   H35637492   5.487   4.691   5.518  0.2255 -1.9783 -0.3067
   89MOL   H35737493   5.646   4.635   5.525  0.8867  0.0044  0.9024
   89MOL   H35837494   5.556   4.620   5.669 -0.5783 -0.4140 -0.1783
   89MOL   C35937495   5.374   4.725   5.888  0.0482  0.0485 -0.0838
   89MOL   C36037496   5.427   4.649   6.008 -0.1849 -0.2081 -0.2016
   89MOL   C36137497   5.537   4.549   5.954  0.2784  0.2673 -0.3558
   89MOL   C36237498   5.651   4.501   6.045  0.4115 -0.4111 -0.0137
   89MOL   C36337499   5.741   4.410   5.957 -0.3390 -0.2690 -0.1688
   89MOL   C36437500   5.599   4.411   6.158  0.2682 -0.4758  0.9069
   89MOL   C36537501   5.734   4.621   6.096  0.2106 -0.8681  0.3989
   89MOL   H36637502   5.362   4.660   5.802  0.8300  0.7694 -0.7458
   89MOL   H36737503   5.271   4.762   5.888 -0.3301 -0.9857 -0.4485
   89MOL   H36837504   5.464   4.730   6.071 -0.7540 -0.4200  0.4105
   89MOL   H36937505   5.484   4.463   5.913  1.1991 -1.4771  2.0368
   89MOL   H37037506   5.577   4.597   5.864 -1.6962  1.4894 -0.6016
   89MOL   H37137507   5.828   4.385   6.017  0.7594  1.8663 -0.8149
   89MOL   H37237508   5.688   4.322   5.923  2.3771 -1.8808 -0.3270
   89MOL   H37337509   5.778   4.466   5.872  0.3475 -0.7582 -0.1946
   89MOL   H37437510   5.528   4.338   6.119 -0.3874 -0.5686  2.2416
   89MOL   H37537511   5.552   4.476   6.232 -0.8185  2.2073 -2.0108
   89MOL   H37637512   5.684   4.355   6.196  0.1406 -0.9867  0.4367
   89MOL   H37737513   5.775   4.681   6.015  2.5620 -0.6499  1.6745
   89MOL   H37837514   5.815   4.582   6.159  0.1968  0.1298  1.0510
   89MOL   H37937515   5.674   4.685   6.160 -1.5514  0.2035 -2.2450
   89MOL   C38037516   5.314   4.573   6.074  0.3335  0.1055 -0.0803
   89MOL   C38137517   5.210   4.660   6.156  0.5743 -0.1223  0.2176
   89MOL   C38237518   5.259   4.758   6.275 -0.2308 -0.6214  0.3155
   89MOL   C38337519   5.165   4.869   6.340  0.0070 -0.6326  0.5027
   89MOL   C38437520   5.085   4.806   6.453 -0.7778 -0.1577 -0.5750
   89MOL   C38537521   5.076   4.943   6.235 -0.0294  0.4423 -0.7760
   89MOL   C38637522   5.249   4.979   6.423  0.3738 -0.5132 -0.1601
   89MOL   H38737523   5.357   4.507   6.150  1.6759  1.8763  0.7445
   89MOL   H38837524   5.255   4.517   6.002 -1.8583  0.2885  1.5238
   89MOL   H38937525   5.169   4.730   6.084  0.5351  1.3042  1.5860
   89MOL   H39037526   5.309   4.693   6.348 -1.9743 -2.5255 -0.1660
   89MOL   H39137527   5.342   4.817   6.237 -0.6395 -0.0908  0.2478
   89MOL   H39237528   5.144   4.769   6.537  0.9734  1.3922 -1.0939
   89MOL   H39337529   5.018   4.877   6.501  0.2535  0.3614  0.1172
   89MOL   H39437530   5.021   4.724   6.419 -0.0489 -1.7775  1.8486
   89MOL   H39537531   5.013   4.874   6.178  2.9439 -2.3349 -0.8269
   89MOL   H39637532   5.135   4.986   6.155  1.1868  0.0727 -0.0894
   89MOL   H39737533   5.020   5.026   6.280  2.1516  1.2301  0.5377
   89MOL   H39837534   5.296   5.058   6.365 -1.4920  0.3062 -0.5916
   89MOL   H39937535   5.330   4.933   6.480 -0.1052 -0.7714  0.3202
   89MOL   H40037536   5.190   5.025   6.503 -0.4053 -0.4185 -0.7874
   89MOL   C40137537   5.101   4.561   6.197 -0.0692  0.4326  0.6756
   89MOL   C40237538   5.150   4.450   6.301 -0.0015 -0.0233  0.0954
   89MOL   C40337539   5.033   4.372   6.369  0.4950  0.2313 -0.5893
   89MOL   C40437540   5.056   4.299   6.508  0.5487  0.0191  0.0951
   89MOL   C40537541   4.935   4.205   6.544  0.6261 -0.2910 -0.3311
   89MOL   C40637542   5.061   4.412   6.627  0.5766  0.8806  0.8077
   89MOL   C40737543   5.183   4.218   6.515 -0.0276 -0.1053  0.0057
   89MOL   H40837544   5.010   4.607   6.235  0.7560  1.5317  1.3513
   89MOL   H40937545   5.059   4.522   6.104 -1.9094 -0.1705  1.7429
   89MOL   H41037546   5.220   4.385   6.248 -1.6687 -0.5176 -1.5592
   89MOL   H41137547   5.001   4.298   6.296 -0.7561  2.5173 -2.4410
   89MOL   H41237548   4.947   4.437   6.384 -0.6441 -1.1568 -0.9829
   89MOL   H41337549   4.905   4.136   6.465  1.2877 -2.1787  1.0392
   89MOL   H41437550   4.840   4.254   6.565  0.5201 -0.6143 -0.0629
   89MOL   H41537551   4.952   4.154   6.638  0.5025  1.1951  0.5228
   89MOL   H41637552   5.129   4.490   6.592 -0.0961  1.1355  0.0487
   89MOL   H41737553   5.098   4.365   6.718  1.7044 -1.3434 -0.7495
   89MOL   H41837554   4.962   4.454   6.643 -0.9263 -1.8623 -0.9477
   89MOL   H41937555   5.180   4.127   6.455 -3.3895  0.8942 -1.4978
   89MOL   H42037556   5.277   4.269   6.492  1.5627 -3.6440 -1.6075
   89MOL   H42137557   5.204   4.168   6.609  1.4760 -0.3264 -0.4255
   89MOL   H42237558   5.199   4.501   6.384 -2.5693  2.2009  0.2886
   90MOL     C137559   2.770   1.290   3.053  0.1440 -0.4008  0.4052
   90MOL     C237560   2.906   1.234   3.055  0.1396 -0.3978  0.5889
   90MOL     C337561   2.927   1.112   2.959  0.1936  0.0568 -0.0473
   90MOL     C437562   2.989   1.138   2.814  0.9423 -0.2451 -0.1764
   90MOL     C537563   2.992   1.008   2.743  0.1348 -0.7078  0.2321
   90MOL     C637564   2.914   1.260   2.751 -0.0678 -0.4643  0.1691
   90MOL     C737565   3.134   1.188   2.826  0.2389  0.0779 -0.1818
   90MOL     H837566   2.770   1.339   2.956  3.7201 -0.3000  0.3745
   90MOL     H937567   2.692   1.214   3.057 -1.8362  1.4706 -1.6242
   90MOL    H1037568   2.964   1.316   3.014 -0.3844 -0.6277 -0.6474
   90MOL    H1137569   2.829   1.063   2.957  0.9057 -1.3707 -0.8478
   90MOL    H1237570   2.989   1.036   3.006 -2.3582 -1.3173  1.2396
   90MOL    H1337571   3.039   1.020   2.646 -1.4090  0.8241 -0.3549
   90MOL    H1437572   2.893   0.970   2.720 -0.4453  1.0279 -0.1886
   90MOL    H1537573   3.044   0.932   2.801 -0.9211 -1.8410 -0.2847
   90MOL    H1637574   2.945   1.273   2.647  2.0311 -3.0084  0.4184
   90MOL    H1737575   2.809   1.233   2.764 -0.8758  2.6426  0.5492
   90MOL    H1837576   2.922   1.354   2.805 -0.3291 -2.0172  3.0240
   90MOL    H1937577   3.178   1.206   2.728  0.3190 -2.2525 -0.6114
   90MOL    H2037578   3.191   1.109   2.874  0.5450  0.5290  0.1942
   90MOL    H2137579   3.157   1.279   2.880 -1.0343 -0.3296  1.1024
   90MOL    H2237580   2.746   1.370   3.122  0.0425 -1.2823  1.4122
   90MOL    C2337581   2.960   1.201   3.200  0.5902 -0.4872 -0.3674
   90MOL    C2437582   2.916   1.075   3.283 -0.7330 -0.2843  0.2804
   90MOL    C2537583   2.766   1.082   3.322  0.1061  0.6172 -0.0473
   90MOL    C2637584   2.683   0.951   3.332 -0.2844  0.0683 -0.1760
   90MOL    C2737585   2.536   0.996   3.368  0.4856  0.0569  0.2802
   90MOL    C2837586   2.675   0.875   3.198  0.0249 -0.3502 -0.6543
   90MOL    C2937587   2.740   0.858   3.438  0.3786 -0.4296  0.1660
   90MOL    H3037588   3.068   1.188   3.188  0.1429 -2.3713 -2.7120
   90MOL    H3137589   2.932   1.283   3.266 -0.6081 -1.4042  0.2656
   90MOL    H3237590   2.939   0.989   3.220 -0.5739 -0.0328 -0.0034
   90MOL    H3337591   2.723   1.147   3.245  2.0222 -0.0543 -1.7407
   90MOL    H3437592   2.749   1.134   3.416 -0.8287 -0.1180  0.1976
   90MOL    H3537593   2.536   1.031   3.471 -1.3975 -0.8066  0.5917
   90MOL    H3637594   2.515   1.081   3.303 -0.5144 -1.0459 -0.8672
   90MOL    H3737595   2.461   0.920   3.347 -1.8555  2.2646  0.3207
   90MOL    H3837596   2.611   0.789   3.217  0.4519 -0.5072  0.0875
   90MOL    H3937597   2.642   0.936   3.113  2.2032 -0.3836 -1.5661
   90MOL    H4037598   2.775   0.839   3.173  1.4967  2.2609  1.1705
   90MOL    H4137599   2.834   0.809   3.415  1.4464  1.2365  0.9416
   90MOL    H4237600   2.677   0.774   3.467 -0.7404 -0.1925 -1.4760
   90MOL    H4337601   2.746   0.923   3.525  2.0228 -0.9276  0.4234
   90MOL    C4437602   2.991   1.073   3.421  0.0379  0.2052  0.4024
   90MOL    C4537603   3.140   1.031   3.426 -0.5000  0.6063 -0.1867
   90MOL    C4637604   3.146   0.875   3.411 -0.1441 -0.0040 -0.2929
   90MOL    C4737605   3.257   0.806   3.332  0.3761  0.3725 -0.9024
   90MOL    C4837606   3.396   0.849   3.374 -0.5412  0.4379  0.0757
   90MOL    C4937607   3.245   0.845   3.183  0.1405  0.0496 -0.1406
   90MOL    C5037608   3.245   0.651   3.349 -0.9031 -0.0440 -0.4927
   90MOL    H5137609   2.960   1.165   3.469 -0.0640  1.0526 -1.2465
   90MOL    H5237610   2.952   0.994   3.484  0.3024 -0.8602 -0.7366
   90MOL    H5337611   3.166   1.084   3.335 -1.8473  0.1996 -0.8298
   90MOL    H5437612   3.054   0.832   3.372  0.4743 -2.1389  0.5594
   90MOL    H5537613   3.155   0.837   3.513 -0.2435  1.3423  0.2372
   90MOL    H5637614   3.421   0.814   3.474  0.6604  1.5804  0.1876
   90MOL    H5737615   3.403   0.958   3.367 -1.5308  0.5217  0.2550
   90MOL    H5837616   3.471   0.800   3.311 -0.6022  0.5389 -0.0770
   90MOL    H5937617   3.275   0.950   3.183  0.3947 -0.0117  1.2800
   90MOL    H6037618   3.315   0.795   3.116 -0.7100  1.5859 -2.2269
   90MOL    H6137619   3.144   0.838   3.144 -0.8082 -1.4939  2.4404
   90MOL    H6237620   3.326   0.613   3.287  0.0757 -1.6178  1.6749
   90MOL    H6337621   3.265   0.622   3.452 -3.0185  2.2121  0.6061
   90MOL    H6437622   3.154   0.603   3.312 -1.5982  1.1608 -0.3636
   90MOL    C6537623   3.216   1.081   3.555  0.5405 -0.0824 -0.4807
   90MOL    C6637624   3.303   1.209   3.540  0.0189 -0.4868  0.1089
   90MOL    C6737625   3.384   1.232   3.674  0.8097 -0.4071 -0.0592
   90MOL    C6837626   3.504   1.148   3.714 -0.6113  0.6018  0.1581
   90MOL    C6937627   3.481   1.000   3.742  0.5848 -0.1942 -0.5858
   90MOL    C7037628   3.607   1.171   3.604 -0.1523  0.1310  0.6279
   90MOL    C7137629   3.573   1.208   3.839  1.0249  0.1275 -0.3658
   90MOL    H7237630   3.132   1.104   3.621 -0.2769 -0.7910 -1.2511
   90MOL    H7337631   3.265   0.995   3.600 -3.9535 -1.4467  2.1605
   90MOL    H7437632   3.366   1.201   3.452  0.0997 -0.5677  0.1748
   90MOL    H7537633   3.320   1.223   3.761  0.9647 -1.1616 -0.0241
   90MOL    H7637634   3.427   1.332   3.672  0.2821 -0.1846 -0.3584
   90MOL    H7737635   3.409   0.968   3.818 -1.6670 -0.6517 -2.8276
   90MOL    H7837636   3.470   0.938   3.653 -2.3307 -1.3088  0.4637
   90MOL    H7937637   3.579   0.973   3.781 -0.5379 -1.3388  1.5406
   90MOL    H8037638   3.628   1.278   3.595 -0.2868  0.0861 -0.3661
   90MOL    H8137639   3.565   1.149   3.506  1.6375 -0.0102 -0.1384
   90MOL    H8237640   3.703   1.122   3.617  0.4818  1.3489  0.6450
   90MOL    H8337641   3.520   1.189   3.932 -2.0405  1.9061 -1.6556
   90MOL    H8437642   3.575   1.317   3.832  1.3660  0.2575  1.4444
   90MOL    H8537643   3.673   1.166   3.848  0.9503  0.0663  0.2357
   90MOL    C8637644   3.213   1.326   3.492 -0.6985 -0.6629 -0.0415
   90MOL    C8737645   3.289   1.453   3.453 -0.8099  1.1257  0.1629
   90MOL    C8837646   3.199   1.575   3.460 -0.0324  0.0004 -0.6349
   90MOL    C8937647   3.191   1.643   3.590 -0.3101 -0.4568  0.2379
   90MOL    C9037648   3.329   1.710   3.622  0.4115 -0.1139  0.2640
   90MOL    C9137649   3.140   1.560   3.704  0.2610  0.3110 -0.5320
   90MOL    C9237650   3.089   1.760   3.562 -0.1981  0.4718  0.2746
   90MOL    H9337651   3.143   1.343   3.574  1.2109 -0.2016  1.5353
   90MOL    H9437652   3.149   1.298   3.408 -0.5042 -2.3215  0.3530
   90MOL    H9537653   3.379   1.465   3.513 -0.5930  1.4566 -0.2196
   90MOL    H9637654   3.097   1.548   3.433  0.1943 -0.5123 -0.9828
   90MOL    H9737655   3.227   1.656   3.392  1.2047  0.5996  0.5522
   90MOL    H9837656   3.407   1.636   3.603 -0.4799 -1.0546  0.2417
   90MOL    H9937657   3.336   1.771   3.712  3.7961  2.7036 -1.7684
   90MOL   H10037658   3.354   1.785   3.546 -0.6090 -0.9083 -0.8703
   90MOL   H10137659   3.044   1.512   3.690  1.6003 -2.5295 -0.4047
   90MOL   H10237660   3.208   1.482   3.739  0.1906  0.5885  0.2346
   90MOL   H10337661   3.139   1.616   3.798  1.4040 -1.2391  0.4287
   90MOL   H10437662   3.088   1.822   3.652  0.0268 -0.1725  0.7294
   90MOL   H10537663   3.114   1.834   3.486  0.7396 -0.1369 -0.0251
   90MOL   H10637664   2.995   1.710   3.541  1.5260 -2.7117 -0.1064
   90MOL   C10737665   3.317   1.436   3.306 -0.3298  0.0566  0.1605
   90MOL   C10837666   3.460   1.465   3.256  0.0624  0.0869 -0.1095
   90MOL   C10937667   3.468   1.430   3.104 -1.0029  0.0596 -0.1863
   90MOL   C11037668   3.494   1.282   3.051  0.2020  0.1128  0.3044
   90MOL   C11137669   3.392   1.177   3.104 -0.5574 -0.3813 -0.1973
   90MOL   C11237670   3.633   1.227   3.085 -0.1825 -1.0990 -0.2104
   90MOL   C11337671   3.490   1.274   2.899 -0.9637 -0.1064 -0.2230
   90MOL   H11437672   3.252   1.496   3.242  2.1806  0.2064 -2.3635
   90MOL   H11537673   3.287   1.338   3.268 -1.4610  1.4171 -2.6590
   90MOL   H11637674   3.534   1.404   3.308  1.6678  1.4040 -0.8064
   90MOL   H11737675   3.380   1.465   3.048 -1.2139  0.3934  0.3491
   90MOL   H11837676   3.547   1.494   3.063 -1.2843  0.4332 -0.1527
   90MOL   H11937677   3.383   1.168   3.213  1.5164 -1.7081 -0.1006
   90MOL   H12037678   3.293   1.199   3.066 -0.9763  2.9711  2.5792
   90MOL   H12137679   3.421   1.079   3.064 -1.6097 -0.6979 -0.1965
   90MOL   H12237680   3.643   1.246   3.192 -0.2917  3.2318 -0.8833
   90MOL   H12337681   3.715   1.284   3.043 -1.6081  0.2471 -1.1691
   90MOL   H12437682   3.638   1.120   3.065 -1.2025 -1.0186 -0.8747
   90MOL   H12537683   3.556   1.344   2.848 -1.0710  0.1912  0.0419
   90MOL   H12637684   3.387   1.289   2.868 -2.1447 -0.9607  3.0211
   90MOL   H12737685   3.511   1.173   2.863  4.0505  0.5507  0.5224
   90MOL   C12837686   3.504   1.611   3.279 -0.0181  0.3396  0.0079
   90MOL   C12937687   3.654   1.638   3.305 -0.3567 -0.0810 -0.1734
   90MOL   C13037688   3.691   1.785   3.280 -0.2216 -0.0117  0.1163
   90MOL   C13137689   3.740   1.842   3.143  0.2400 -0.5500  0.0593
   90MOL   C13237690   3.755   1.994   3.153 -0.2735 -0.1928  0.5030
   90MOL   C13337691   3.638   1.805   3.032 -0.1154  0.2288  0.4709
   90MOL   C13437692   3.877   1.781   3.106 -0.2108 -1.3071 -0.7168
   90MOL   H13537693   3.442   1.658   3.356 -0.7885 -1.2820  0.3881
   90MOL   H13637694   3.476   1.658   3.185  1.1208 -1.6623 -1.3761
   90MOL   H13737695   3.715   1.574   3.241  0.6001  1.1479 -0.4915
   90MOL   H13837696   3.607   1.843   3.317  1.4806  0.4697  3.4352
   90MOL   H13937697   3.760   1.823   3.356 -0.0395 -0.1360  0.0134
   90MOL   H14037698   3.799   2.036   3.062  0.3742  0.5833  1.1623
   90MOL   H14137699   3.823   2.008   3.237 -1.0508  0.2464  1.0672
   90MOL   H14237700   3.662   2.040   3.186 -0.5471  0.4721 -1.1287
   90MOL   H14337701   3.673   1.836   2.934  1.5521 -2.1986  0.2492
   90MOL   H14437702   3.542   1.850   3.058 -0.4065 -0.6525  0.9746
   90MOL   H14537703   3.632   1.696   3.030  1.8163  0.1062  0.2136
   90MOL   H14637704   3.956   1.786   3.181 -1.3830 -0.3678  0.4866
   90MOL   H14737705   3.872   1.675   3.083  0.3098 -1.8950  1.7112
   90MOL   H14837706   3.926   1.815   3.015  2.0815  0.9678  1.2866
   90MOL   C14937707   3.684   1.588   3.444  0.0007  0.1563 -0.0704
   90MOL   C15037708   3.824   1.533   3.460 -0.0193 -0.3120  0.0345
   90MOL   C15137709   3.847   1.544   3.614 -1.1700  0.5640  0.3066
   90MOL   C15237710   3.943   1.658   3.668 -0.3128 -0.2107  0.1079
   90MOL   C15337711   3.884   1.796   3.648 -0.1164  0.3466  0.1545
   90MOL   C15437712   4.078   1.643   3.596  0.1911 -0.0786 -0.0204
   90MOL   C15537713   3.967   1.643   3.813 -0.3742  0.2788 -0.4075
   90MOL   H15637714   3.616   1.508   3.475 -2.0266  1.1567 -1.7569
   90MOL   H15737715   3.666   1.678   3.503  1.1037  0.6854 -0.5275
   90MOL   H15837716   3.893   1.602   3.411  0.0397  0.3651  1.0687
   90MOL   H15937717   3.885   1.447   3.649  0.9586  0.6726 -1.6137
   90MOL   H16037718   3.750   1.540   3.665 -1.2345  1.6569  0.2731
   90MOL   H16137719   3.932   1.874   3.708 -0.3711  1.0790 -0.5752
   90MOL   H16237720   3.905   1.827   3.545  0.9652 -0.5687  0.0883
   90MOL   H16337721   3.778   1.790   3.672  0.0646  1.5970  1.3439
   90MOL   H16437722   4.122   1.543   3.596  0.9391  0.2488 -0.3372
   90MOL   H16537723   4.155   1.704   3.642  2.3865 -1.9288 -1.1849
   90MOL   H16637724   4.076   1.675   3.491 -0.6215  0.2165  0.0778
   90MOL   H16737725   4.032   1.719   3.857 -0.2006 -0.1520  0.0751
   90MOL   H16837726   3.871   1.655   3.863  0.2495  0.0852  0.8586
   90MOL   H16937727   4.011   1.550   3.847 -1.1207  0.1966  0.3511
   90MOL   C17037728   3.853   1.388   3.404 -0.0101  0.9072  0.0350
   90MOL   C17137729   3.991   1.357   3.355 -0.0006  0.0740 -0.0645
   90MOL   C17237730   4.015   1.425   3.219  1.0479  0.0531  0.3181
   90MOL   C17337731   4.161   1.460   3.171  0.6520  0.2876 -0.2613
   90MOL   C17437732   4.207   1.588   3.234  0.0022  0.0742  0.2569
   90MOL   C17537733   4.162   1.477   3.020  0.0493 -0.3067  0.2477
   90MOL   C17637734   4.271   1.356   3.196  0.2630  0.0971 -0.1490
   90MOL   H17737735   3.775   1.360   3.333 -0.0643  0.0072  0.4380
   90MOL   H17837736   3.845   1.321   3.490  0.4300 -0.2928 -0.8381
   90MOL   H17937737   4.064   1.398   3.425  0.6643 -1.0818 -0.0729
   90MOL   H18037738   3.961   1.376   3.138  1.9266 -1.2728  0.5192
   90MOL   H18137739   3.972   1.525   3.217 -0.1162 -0.4478 -0.1692
   90MOL   H18237740   4.205   1.579   3.343 -2.9345  2.6703  0.5010
   90MOL   H18337741   4.303   1.616   3.192  0.3659 -5.0343 -2.6446
   90MOL   H18437742   4.137   1.668   3.208  0.7400  0.0902 -1.8000
   90MOL   H18537743   4.155   1.385   2.962 -0.3241 -0.6235  0.7929
   90MOL   H18637744   4.086   1.547   2.987  0.7662  0.7749  0.8517
   90MOL   H18737745   4.261   1.512   2.989 -0.2407  0.5982  0.3350
   90MOL   H18837746   4.368   1.388   3.156  0.0325 -0.9839 -1.6184
   90MOL   H18937747   4.288   1.344   3.303  1.0940  1.9293 -0.0457
   90MOL   H19037748   4.243   1.263   3.146 -2.8905  0.2867  1.2069
   90MOL   C19137749   4.017   1.201   3.334 -0.0947 -0.0688 -0.0854
   90MOL   C19237750   4.052   1.126   3.456  0.5145  0.2700 -0.1563
   90MOL   C19337751   4.188   1.162   3.518 -0.2611 -0.3669  0.2361
   90MOL   C19437752   4.222   1.145   3.678 -0.1855 -0.2364 -0.1787
   90MOL   C19537753   4.150   1.240   3.769  0.9942 -0.3148 -0.4652
   90MOL   C19637754   4.368   1.173   3.696  0.0393 -0.0421  0.1369
   90MOL   C19737755   4.212   0.998   3.723 -0.5925  0.2112 -0.2222
   90MOL   H19837756   3.936   1.151   3.279 -0.7350 -1.5996  2.2090
   90MOL   H19937757   4.096   1.185   3.260 -0.5467  0.1897 -0.6364
   90MOL   H20037758   3.982   1.163   3.531  2.0900  0.4977  1.2568
   90MOL   H20137759   4.202   1.268   3.497  1.1547 -0.3965  0.9749
   90MOL   H20237760   4.264   1.117   3.454  1.2738  2.3465  0.0841
   90MOL   H20337761   4.042   1.225   3.767  0.7364  1.1751  1.1768
   90MOL   H20437762   4.167   1.231   3.876 -2.7645 -0.2979  0.1992
   90MOL   H20537763   4.167   1.343   3.736  0.9697 -0.5878 -1.3552
   90MOL   H20637764   4.397   1.172   3.801 -0.4273  1.9970  0.3084
   90MOL   H20737765   4.415   1.091   3.642  0.4984  0.9242 -0.9597
   90MOL   H20837766   4.409   1.258   3.640 -1.7177 -0.9100 -2.5614
   90MOL   H20937767   4.254   0.934   3.645  0.6871  1.3196 -0.4681
   90MOL   H21037768   4.261   0.997   3.820 -1.4165  0.9884  0.2167
   90MOL   H21137769   4.110   0.962   3.739 -0.6551  0.9611  1.1710
   90MOL   C21237770   4.022   0.971   3.439  0.1787  0.6150 -0.0153
   90MOL   C21337771   4.064   0.899   3.308 -0.0575 -0.2777 -0.9766
   90MOL   C21437772   4.006   0.750   3.294  0.0774  0.2582  0.3402
   90MOL   C21537773   3.850   0.731   3.279 -0.2070  0.7514  0.2537
   90MOL   C21637774   3.837   0.609   3.180 -0.0975 -0.4271 -0.2401
   90MOL   C21737775   3.778   0.690   3.412  0.9900 -0.5902  0.1950
   90MOL   C21837776   3.778   0.842   3.201  0.7646 -0.0903  0.0688
   90MOL   H21937777   4.056   0.906   3.519 -1.7562 -0.8841 -0.3895
   90MOL   H22037778   3.915   0.971   3.458 -0.0907  1.6942 -1.3897
   90MOL   H22137779   4.024   0.946   3.218 -0.4509  0.6942 -0.2997
   90MOL   H22237780   4.041   0.676   3.366 -0.7698  0.7473  1.2596
   90MOL   H22337781   4.044   0.708   3.201  0.3575  0.4976  0.3472
   90MOL   H22437782   3.883   0.522   3.227 -0.6551 -0.3723  0.4158
   90MOL   H22537783   3.858   0.631   3.075 -0.6094 -2.4331 -0.7735
   90MOL   H22637784   3.736   0.574   3.158 -1.9263  3.7460  1.0506
   90MOL   H22737785   3.678   0.648   3.406  0.1521  1.3100  0.4103
   90MOL   H22837786   3.842   0.630   3.477  1.6431 -0.3926 -0.2695
   90MOL   H22937787   3.763   0.781   3.471 -0.5540  0.0156 -1.0880
   90MOL   H23037788   3.767   0.929   3.267  0.1354 -0.8544  0.9813
   90MOL   H23137789   3.684   0.810   3.157  0.8732 -1.3948  0.7457
   90MOL   H23237790   3.835   0.863   3.110  0.5288  1.0155  0.1614
   90MOL   C23337791   4.215   0.901   3.294  1.3937  0.2991  0.1929
   90MOL   C23437792   4.290   0.840   3.171  0.1247  0.5736  0.4450
   90MOL   C23537793   4.236   0.918   3.045  0.0732  0.2999  0.4739
   90MOL   C23637794   4.234   0.849   2.910 -0.0206 -0.1368 -0.2762
   90MOL   C23737795   4.147   0.726   2.921  0.4861 -0.3894  0.0808
   90MOL   C23837796   4.179   0.930   2.799  0.3301 -0.0244  0.2278
   90MOL   C23937797   4.378   0.804   2.868 -0.1231 -0.3241 -0.3054
   90MOL   H24037798   4.259   0.880   3.392  3.0271  1.8934 -0.1795
   90MOL   H24137799   4.239   1.007   3.281 -2.6115  1.5215  1.6964
   90MOL   H24237800   4.276   0.732   3.175 -1.1652  0.6981 -0.1744
   90MOL   H24337801   4.133   0.952   3.055 -0.4077 -0.1868 -2.3765
   90MOL   H24437802   4.279   1.019   3.042 -0.0015  0.3247  0.1246
   90MOL   H24537803   4.109   0.684   2.827  2.5987 -0.0667 -0.9646
   90MOL   H24637804   4.058   0.754   2.976 -0.1755  2.6369 -2.3969
   90MOL   H24737805   4.195   0.645   2.976 -0.9384 -0.8455  0.6649
   90MOL   H24837806   4.229   1.027   2.794  1.8519 -0.8048  0.0323
   90MOL   H24937807   4.183   0.893   2.696 -1.3391  0.0321  0.1314
   90MOL   H25037808   4.076   0.957   2.821  0.3241  0.7352 -0.7048
   90MOL   H25137809   4.411   0.715   2.923  0.5371 -0.7518 -1.3733
   90MOL   H25237810   4.382   0.769   2.765 -3.3557  0.9193 -0.8908
   90MOL   H25337811   4.445   0.890   2.869  1.4579 -1.5259  0.0037
   90MOL   C25437812   4.442   0.870   3.177  0.1884 -0.6779 -0.5186
   90MOL   C25537813   4.512   0.768   3.270  0.2314  0.5590  1.1531
   90MOL   C25637814   4.662   0.818   3.294  0.2104 -0.6080  0.0671
   90MOL   C25737815   4.692   0.898   3.421 -0.0490 -0.1981  0.3150
   90MOL   C25837816   4.835   0.948   3.413  0.3506 -0.9101  0.7199
   90MOL   C25937817   4.680   0.798   3.543  0.4197 -0.7987  0.1339
   90MOL   C26037818   4.604   1.023   3.448  0.5591 -0.0249 -0.1565
   90MOL   H26137819   4.460   0.974   3.207 -2.2958 -0.4204  0.1507
   90MOL   H26237820   4.485   0.872   3.077  2.6563 -2.9320  0.4328
   90MOL   H26337821   4.463   0.744   3.364 -0.9717 -0.4716  0.2871
   90MOL   H26437822   4.734   0.737   3.292  2.3509  1.1634  2.5177
   90MOL   H26537823   4.697   0.876   3.208 -1.0255 -0.6023 -0.4456
   90MOL   H26637824   4.903   0.866   3.388  1.6903  0.4338 -0.1231
   90MOL   H26737825   4.874   1.002   3.500 -0.0016 -1.0366  0.9584
   90MOL   H26837826   4.850   1.013   3.327  1.8742 -0.9060  0.9689
   90MOL   H26937827   4.732   0.820   3.636 -0.7808 -2.4964  1.2202
   90MOL   H27037828   4.720   0.700   3.515  0.8034  0.3434 -3.6203
   90MOL   H27137829   4.573   0.783   3.557 -0.1392  3.5733  1.2660
   90MOL   H27237830   4.622   1.094   3.367  0.8518  0.0254 -0.0483
   90MOL   H27337831   4.497   1.003   3.443  0.5081  0.6230 -2.0224
   90MOL   H27437832   4.634   1.061   3.545  1.2104  0.5089 -0.5624
   90MOL   C27537833   4.522   0.626   3.202  0.3140 -0.7166  0.6083
   90MOL   C27637834   4.496   0.491   3.275  0.1223 -0.2106 -0.5462
   90MOL   C27737835   4.345   0.474   3.321  0.2273  0.1773  0.2531
   90MOL   C27837836   4.318   0.415   3.465  0.1180 -0.3153 -0.2091
   90MOL   C27937837   4.412   0.290   3.488  0.7782  1.4630 -0.5397
   90MOL   C28037838   4.344   0.524   3.559  0.0624  0.1109 -0.3554
   90MOL   C28137839   4.174   0.363   3.466  0.1438  0.2076 -0.6282
   90MOL   H28237840   4.445   0.624   3.125  0.7595 -2.3811  0.1984
   90MOL   H28337841   4.612   0.636   3.141  0.7985 -0.8765  1.2930
   90MOL   H28437842   4.560   0.507   3.362 -0.5293  1.5969 -0.3707
   90MOL   H28537843   4.290   0.418   3.245 -0.3747  0.4454  0.4864
   90MOL   H28637844   4.298   0.572   3.326  1.9588  1.0802 -0.6089
   90MOL   H28737845   4.402   0.246   3.587 -0.3583  0.0755 -1.2682
   90MOL   H28837846   4.384   0.218   3.412 -0.8288  0.6309  0.8212
   90MOL   H28937847   4.518   0.315   3.474  1.1254 -0.6247 -1.8716
   90MOL   H29037848   4.266   0.601   3.559  2.6329  2.8273 -0.8002
   90MOL   H29137849   4.431   0.589   3.543 -1.2877  2.3305  0.9330
   90MOL   H29237850   4.350   0.484   3.660  0.7710  2.2946  0.4959
   90MOL   H29337851   4.147   0.330   3.566  1.0044  0.0461 -0.4492
   90MOL   H29437852   4.168   0.269   3.410  0.6080 -0.7718  0.9374
   90MOL   H29537853   4.106   0.437   3.423  0.6466  1.5372  0.8166
   90MOL   C29637854   4.548   0.377   3.190 -0.3969 -0.2775  0.6510
   90MOL   C29737855   4.693   0.391   3.130 -0.7696  0.3429  0.4564
   90MOL   C29837856   4.690   0.443   2.980  0.7326  0.1071 -0.0268
   90MOL   C29937857   4.818   0.520   2.936 -0.5367 -0.2505 -0.0966
   90MOL   C30037858   4.945   0.428   2.942  0.5137  0.3544  0.5378
   90MOL   C30137859   4.789   0.578   2.791 -0.4965 -0.6215 -0.7502
   90MOL   C30237860   4.860   0.641   3.026  0.2634 -0.2265  0.2147
   90MOL   H30337861   4.475   0.355   3.111 -1.8031 -0.0567  1.8775
   90MOL   H30437862   4.538   0.282   3.242 -2.7408  0.5489  1.7625
   90MOL   H30537863   4.753   0.455   3.195  1.4378 -1.8456  0.6352
   90MOL   H30637864   4.600   0.503   2.975 -1.8682 -3.6405 -0.0650
   90MOL   H30737865   4.683   0.353   2.919 -1.3770 -1.2155  2.0975
   90MOL   H30837866   5.025   0.467   2.879  0.4536 -0.2048  0.1150
   90MOL   H30937867   4.995   0.418   3.039  2.5225 -0.6877 -0.5629
   90MOL   H31037868   4.919   0.336   2.888  0.4218  0.4579  0.4074
   90MOL   H31137869   4.778   0.490   2.727  0.3678 -0.9432 -0.4614
   90MOL   H31237870   4.692   0.623   2.810  0.3000  1.3376 -1.2462
   90MOL   H31337871   4.850   0.653   2.742 -1.1711  0.4907  0.0911
   90MOL   H31437872   4.884   0.606   3.126 -2.1413 -1.4834  0.3889
   90MOL   H31537873   4.952   0.679   2.983  0.8851 -2.7434 -0.7749
   90MOL   H31637874   4.784   0.719   3.029 -0.5749 -1.0520  0.5182
   90MOL   C31737875   4.767   0.251   3.139 -0.7232  0.0412  0.3021
   90MOL   C31837876   4.808   0.206   3.281  0.0616  0.7129  0.2712
   90MOL   C31937877   4.833   0.050   3.274 -0.1314 -0.8759  0.3168
   90MOL   C32037878   4.720   7.716   3.303 -0.0230  0.9862 -0.3205
   90MOL   C32137879   4.657   7.745   3.440 -0.3248  0.1350 -0.2644
   90MOL   C32237880   4.781   7.576   3.293  0.5256  0.0624 -0.3668
   90MOL   C32337881   4.601   7.721   3.205  1.1372 -0.2362  0.3936
   90MOL   H32437882   4.696   0.177   3.104 -0.2847 -0.4847  0.5173
   90MOL   H32537883   4.850   0.234   3.071 -0.4246  0.2153  0.6192
   90MOL   H32637884   4.724   0.232   3.346 -1.2786 -0.5853 -0.8855
   90MOL   H32737885   4.912   0.022   3.344  0.8641 -1.5731 -1.0594
   90MOL   H32837886   4.876   0.033   3.175 -1.8429 -1.3897 -0.3563
   90MOL   H32937887   4.607   0.075   3.430 -2.0844 -0.6407  0.9250
   90MOL   H33037888   4.727   7.738   3.523 -0.6303  0.4779  0.0190
   90MOL   H33137889   4.571   7.680   3.457 -1.0757  1.5500  1.4533
   90MOL   H33237890   4.712   7.500   3.329  0.1091  0.0966 -1.0820
   90MOL   H33337891   4.802   7.532   3.195 -2.1040  0.2539 -1.0560
   90MOL   H33437892   4.866   7.559   3.360 -0.2968 -0.5526  0.5323
   90MOL   H33537893   4.646   7.704   3.108 -1.9391  1.1477 -1.3411
   90MOL   H33637894   4.549   0.051   3.198  0.2196 -0.9162 -2.9586
   90MOL   H33737895   4.529   7.640   3.220  3.8834 -2.5074  1.8294
   90MOL   C33837896   4.936   0.280   3.336 -0.4004 -0.0878  0.1621
   90MOL   C33937897   4.967   0.285   3.488 -0.0176 -0.3769 -0.1457
   90MOL   C34037898   4.875   0.397   3.543  0.0718  0.3658 -0.2332
   90MOL   C34137899   4.832   0.380   3.698 -0.5057 -0.4476  0.0750
   90MOL   C34237900   4.775   0.235   3.723 -0.2126 -0.1084  0.7601
   90MOL   C34337901   4.954   0.407   3.789  0.5408  0.3010 -0.3911
   90MOL   C34437902   4.713   0.481   3.717 -0.5757 -0.0084 -0.3714
   90MOL   H34537903   4.934   0.384   3.305  1.0413  0.2151  1.0148
   90MOL   H34637904   5.022   0.230   3.291 -0.2263  0.1156  0.2692
   90MOL   H34737905   4.942   0.191   3.537 -0.9974  0.0869  0.2742
   90MOL   H34837906   4.787   0.412   3.480  0.3735  3.0239 -0.0729
   90MOL   H34937907   4.922   0.496   3.540  0.6880  0.1255  1.0241
   90MOL   H35037908   4.724   0.212   3.817  0.7373 -1.0588  1.0558
   90MOL   H35137909   4.712   0.204   3.639  0.5032  2.5832 -0.7980
   90MOL   H35237910   4.867   0.176   3.727  0.0975  0.0286 -2.7579
   90MOL   H35337911   5.041   0.344   3.768 -0.8261 -1.8514  0.1773
   90MOL   H35437912   4.991   0.509   3.783  1.8307 -0.1425 -0.2165
   90MOL   H35537913   4.920   0.392   3.891  1.0157 -1.0513 -0.4157
   90MOL   H35637914   4.636   0.474   3.640 -0.8255 -0.7304 -0.0585
   90MOL   H35737915   4.661   0.473   3.812  1.1042 -2.0950  0.4091
   90MOL   H35837916   4.756   0.581   3.715 -0.6100  0.0055 -0.4470
   90MOL   C35937917   5.120   0.314   3.498 -0.5606 -0.5374 -0.2697
   90MOL   C36037918   5.204   0.202   3.561 -0.3525 -0.0148  0.3968
   90MOL   C36137919   5.352   0.253   3.568  0.5282  0.0930  0.0923
   90MOL   C36237920   5.407   0.352   3.675 -0.1103  0.2883 -0.4557
   90MOL   C36337921   5.334   0.485   3.675 -0.2511 -0.4748 -0.3764
   90MOL   C36437922   5.547   0.381   3.644 -0.3427 -0.1129  0.0191
   90MOL   C36537923   5.394   0.288   3.817  0.2923  0.0503 -0.8767
   90MOL   H36637924   5.114   0.400   3.564  2.6806 -0.8197  0.5192
   90MOL   H36737925   5.171   0.347   3.408  1.1828  1.3492  1.3508
   90MOL   H36837926   5.163   0.177   3.659  0.2270  0.2546  0.7096
   90MOL   H36937927   5.416   0.167   3.588 -0.2919 -0.9725 -1.7691
   90MOL   H37037928   5.393   0.273   3.469  2.4427 -0.2668  0.7864
   90MOL   H37137929   5.236   0.471   3.721 -0.8713  2.4929 -0.6865
   90MOL   H37237930   5.392   0.559   3.730 -4.0531  1.3709  1.3397
   90MOL   H37337931   5.322   0.529   3.576  2.2851  1.2057  0.0283
   90MOL   H37437932   5.542   0.439   3.552 -1.8624 -0.6628 -0.2592
   90MOL   H37537933   5.600   0.289   3.618 -2.0520 -1.1429  0.1099
   90MOL   H37637934   5.602   0.440   3.717 -0.8894  0.1960  0.1790
   90MOL   H37737935   5.300   0.238   3.839 -0.1686  1.5456  0.7441
   90MOL   H37837936   5.414   0.363   3.894  1.2519  1.6634 -2.6680
   90MOL   H37937937   5.475   0.217   3.826 -0.8611 -1.0733  1.0818
   90MOL   C38037938   5.189   0.074   3.486 -0.4143  0.0200 -0.7677
   90MOL   C38137939   5.258   7.721   3.560  0.4777  0.1891 -0.1762
   90MOL   C38237940   5.396   7.689   3.497 -0.0423 -0.2871  0.9115
   90MOL   C38337941   5.502   7.622   3.594  0.3565 -0.7210 -0.3322
   90MOL   C38437942   5.632   7.585   3.520  0.8010  0.1084  0.2531
   90MOL   C38537943   5.452   7.490   3.663 -0.3449 -0.1465  0.6473
   90MOL   C38637944   5.549   7.718   3.711 -0.3164  0.4804 -0.0857
   90MOL   H38737945   5.223   0.088   3.384 -0.2835 -1.7785 -0.9853
   90MOL   H38837946   5.082   0.057   3.479 -0.7474  1.0836  1.3104
   90MOL   H38937947   5.258   7.745   3.666 -0.1074  1.1346 -0.3902
   90MOL   H39037948   5.389   7.623   3.411  2.8932  2.1046 -1.2769
   90MOL   H39137949   5.438   0.015   3.456 -0.8661 -1.7847 -3.5676
   90MOL   H39237950   5.668   7.679   3.478  1.9771 -0.6127 -0.3782
   90MOL   H39337951   5.710   7.562   3.594 -1.1759  1.5966  2.8864
   90MOL   H39437952   5.626   7.518   3.435 -0.6380  0.1215  0.3355
   90MOL   H39537953   5.418   7.424   3.583  1.9995  1.0930 -1.4453
   90MOL   H39637954   5.366   7.506   3.728  1.3535  1.3468  2.5611
   90MOL   H39737955   5.535   7.437   3.708  0.2880 -0.0082 -0.3296
   90MOL   H39837956   5.469   7.746   3.780 -0.3915 -0.6577  0.3107
   90MOL   H39937957   5.599   0.044   3.684  0.5263 -0.0772 -0.4293
   90MOL   H40037958   5.618   7.659   3.770  1.0317  0.2697 -1.8434
   90MOL   C40137959   5.165   7.601   3.526 -1.1048 -0.4185 -0.8044
   90MOL   C40237960   5.042   7.582   3.613 -0.2498 -0.2707 -0.8701
   90MOL   C40337961   5.056   7.568   3.768 -0.9026  0.6916  0.4880
   90MOL   C40437962   4.944   7.499   3.835 -0.4024  0.1952 -0.2380
   90MOL   C40537963   4.919   7.359   3.791 -0.5675  0.0606 -0.3908
   90MOL   C40637964   4.818   7.580   3.817 -0.2951 -0.1432  0.0952
   90MOL   C40737965   4.961   7.499   3.989 -0.1607  0.9497 -0.4703
   90MOL   H40837966   5.142   7.610   3.420  3.5148  2.0411 -1.7535
   90MOL   H40937967   5.218   7.505   3.521  0.0488  0.1607 -0.0295
   90MOL   H41037968   4.964   7.653   3.587 -1.1528 -0.4704  1.1743
   90MOL   H41137969   5.080   7.661   3.819 -1.8133  2.0968 -1.5697
   90MOL   H41237970   5.144   7.508   3.788  1.0293  2.1570 -3.0943
   90MOL   H41337971   4.890   7.357   3.686  1.6328  0.7649 -1.0410
   90MOL   H41437972   4.838   7.314   3.849 -1.3174  1.0279 -0.6771
   90MOL   H41537973   5.012   7.302   3.795 -1.3775 -1.2802 -0.5441
   90MOL   H41637974   4.788   7.554   3.715 -1.3055 -1.3692  0.6800
   90MOL   H41737975   4.829   7.687   3.833  0.2073 -0.0614 -0.7588
   90MOL   H41837976   4.736   7.554   3.884 -0.1825 -0.3925  0.1362
   90MOL   H41937977   5.056   7.452   4.016 -0.4495 -0.0730 -1.2173
   90MOL   H42037978   4.953   7.603   4.019 -0.6625  1.1352 -1.2361
   90MOL   H42137979   4.894   7.432   4.042  0.9442  0.9734  0.9840
   90MOL   H42237980   5.007   7.482   3.589  2.4532 -1.1837 -1.2092
   91MOL     C137981   4.851   2.730   1.100  0.3540 -0.2018  0.0759
   91MOL     C237982   4.739   2.792   1.014 -0.1667  0.4877  0.3212
   91MOL     C337983   4.711   2.697   0.894 -0.1031 -0.4025 -0.0302
   91MOL     C437984   4.568   2.673   0.848 -0.1206 -0.2667  0.4882
   91MOL     C537985   4.490   2.617   0.975  0.1171  0.3575  0.8833
   91MOL     C637986   4.505   2.805   0.791 -0.1625 -0.3435  0.6763
   91MOL     C737987   4.563   2.564   0.733  0.5749 -0.5794  0.2562
   91MOL     H837988   4.818   2.636   1.144 -0.9126  0.2104  0.0186
   91MOL     H937989   4.938   2.717   1.036  0.2047 -0.2491 -0.1142
   91MOL    H1037990   4.655   2.796   1.084 -0.5990 -0.3835 -0.1363
   91MOL    H1137991   4.774   2.609   0.907 -0.0155 -0.1950  1.0011
   91MOL    H1237992   4.757   2.732   0.802  1.0373 -0.0099  0.6681
   91MOL    H1337993   4.386   2.591   0.952  0.0858  0.6775  0.6585
   91MOL    H1437994   4.488   2.682   1.062 -0.6207  1.0847  0.3407
   91MOL    H1537995   4.524   2.519   1.007 -0.4689 -0.2241 -0.2414
   91MOL    H1637996   4.421   2.778   0.727  1.0324 -1.4322 -0.4989
   91MOL    H1737997   4.464   2.861   0.874  0.4216  1.2484 -0.0844
   91MOL    H1837998   4.570   2.865   0.727 -0.6111  2.1300  2.4798
   91MOL    H1937999   4.598   2.466   0.765 -0.0733  0.2904  3.8690
   91MOL    H2038000   4.599   2.605   0.639 -0.8829  2.2888  0.8834
   91MOL    H2138001   4.459   2.551   0.704  0.4677  0.2201  0.2896
   91MOL    H2238002   4.867   2.803   1.180 -1.5612  1.1931 -0.7770
   91MOL    C2338003   4.776   2.931   0.963 -0.1827 -0.4716  0.3044
   91MOL    C2438004   4.760   3.043   1.073  0.5406 -0.3776 -0.4489
   91MOL    C2538005   4.608   3.056   1.103  0.2645 -0.6796 -0.9871
   91MOL    C2638006   4.564   3.101   1.244  0.4067  0.6493  0.2296
   91MOL    C2738007   4.608   3.245   1.268  0.2820  0.2814  0.2869
   91MOL    C2838008   4.414   3.090   1.242  0.2232 -0.3523  0.2583
   91MOL    C2938009   4.614   3.002   1.358  0.1764  0.1347  0.4532
   91MOL    H3038010   4.870   2.921   0.909 -0.0272  0.5364  0.3892
   91MOL    H3138011   4.712   2.964   0.881 -1.4396 -3.1270  0.1530
   91MOL    H3238012   4.819   3.023   1.163 -1.0961 -0.3795  0.6390
   91MOL    H3338013   4.543   2.972   1.075 -2.8104  1.6011 -1.0014
   91MOL    H3438014   4.564   3.130   1.036 -0.3035 -2.9255 -3.1876
   91MOL    H3538015   4.570   3.312   1.190 -0.1227 -1.0787 -0.6945
   91MOL    H3638016   4.591   3.287   1.367 -1.2804 -1.3839  0.7351
   91MOL    H3738017   4.717   3.247   1.271  0.3443  0.2361 -1.2824
   91MOL    H3838018   4.390   2.984   1.229  0.0181 -0.3987  0.9750
   91MOL    H3938019   4.378   3.142   1.331 -1.5814 -0.0787 -0.6111
   91MOL    H4038020   4.378   3.144   1.155  0.2766  2.6250  2.0313
   91MOL    H4138021   4.577   2.907   1.319  1.6583 -1.1933  2.1797
   91MOL    H4238022   4.576   3.021   1.458 -0.4764 -3.4535  0.9642
   91MOL    H4338023   4.722   2.987   1.368 -0.0804 -1.9788  0.3481
   91MOL    C4438024   4.817   3.179   1.024 -0.8222  0.2053 -0.6988
   91MOL    C4538025   4.970   3.185   1.008 -0.3951  0.0292 -0.1540
   91MOL    C4638026   5.034   3.211   1.143  0.2065 -0.6916  0.2528
   91MOL    C4738027   5.156   3.130   1.190 -0.2744  0.0654 -0.3160
   91MOL    C4838028   5.286   3.146   1.105  0.2984 -0.5134 -0.0197
   91MOL    C4938029   5.127   2.984   1.209  0.1858  0.5755  0.1790
   91MOL    C5038030   5.184   3.199   1.327  0.1242 -0.2756  0.1156
   91MOL    H5138031   4.763   3.192   0.930  2.1727 -0.0064 -2.5420
   91MOL    H5238032   4.794   3.266   1.085  3.1117  0.2861  0.8332
   91MOL    H5338033   5.003   3.088   0.971 -3.7769 -0.7007 -1.4119
   91MOL    H5438034   4.954   3.204   1.217  0.9156  1.6187  1.2936
   91MOL    H5538035   5.065   3.316   1.142 -2.1937  0.0373  0.3739
   91MOL    H5638036   5.314   3.247   1.077 -0.6836  0.0884  1.1701
   91MOL    H5738037   5.290   3.085   1.015  1.8228 -2.7502  1.4932
   91MOL    H5838038   5.371   3.105   1.160 -0.3898 -1.3153  0.4558
   91MOL    H5938039   5.221   2.949   1.251  0.2708 -1.9051 -1.9438
   91MOL    H6038040   5.045   2.970   1.279 -0.2432  0.1551 -0.4000
   91MOL    H6138041   5.108   2.932   1.115  1.1016  0.2746  0.1586
   91MOL    H6238042   5.259   3.147   1.388  0.9276  0.0239 -0.6107
   91MOL    H6338043   5.229   3.296   1.306 -1.7172  0.5714  0.0312
   91MOL    H6438044   5.099   3.223   1.390  1.0011  0.2602  1.1226
   91MOL    C6538045   5.025   3.292   0.908 -0.0652  0.3540 -0.1744
   91MOL    C6638046   4.980   3.278   0.760  0.0626  0.8115 -0.5582
   91MOL    C6738047   5.052   3.148   0.697  0.3558  0.0281 -0.1042
   91MOL    C6838048   4.993   3.074   0.576  0.0864  0.4198 -0.0406
   91MOL    C6938049   4.847   3.034   0.600 -0.3010 -0.1754  0.9409
   91MOL    C7038050   5.003   3.155   0.446  1.0472  0.3958  0.4528
   91MOL    C7138051   5.071   2.945   0.546  0.7873 -0.7481 -0.3672
   91MOL    H7238052   4.996   3.391   0.942  0.9244  0.2311  1.0702
   91MOL    H7338053   5.133   3.286   0.910 -0.0427  1.2424  2.7859
   91MOL    H7438054   4.872   3.265   0.755 -0.2370  2.7461  0.4821
   91MOL    H7538055   5.069   3.067   0.768 -1.1497  0.2162  0.4959
   91MOL    H7638056   5.152   3.184   0.674  0.0164 -0.1779 -1.9609
   91MOL    H7738057   4.835   2.981   0.695  0.7391 -0.6356  0.8237
   91MOL    H7838058   4.780   3.120   0.606  1.0271  0.8414  1.3390
   91MOL    H7938059   4.810   2.963   0.526  2.2635 -1.1174  0.5143
   91MOL    H8038060   4.929   3.235   0.446 -0.6585 -1.1427 -0.5226
   91MOL    H8138061   4.972   3.091   0.364 -0.6975  2.8928 -0.9011
   91MOL    H8238062   5.105   3.192   0.437  1.0730  0.0257 -0.9143
   91MOL    H8338063   5.174   2.972   0.525  0.0105  1.5320 -1.3871
   91MOL    H8438064   5.024   2.895   0.461 -2.8908  2.2252 -0.2359
   91MOL    H8538065   5.071   2.877   0.631 -2.7008  0.2054  0.4729
   91MOL    C8638066   5.011   3.405   0.684  0.4440 -0.6261 -0.3159
   91MOL    C8738067   4.935   3.531   0.733 -0.8212  0.0945  0.2668
   91MOL    C8838068   4.787   3.534   0.669  0.2335 -0.1443 -0.6038
   91MOL    C8938069   4.673   3.569   0.765 -0.4312  0.4489  0.3684
   91MOL    C9038070   4.544   3.571   0.683 -0.5511  0.0731 -0.2496
   91MOL    C9138071   4.686   3.710   0.828 -0.4390 -0.4076 -0.5142
   91MOL    C9238072   4.664   3.468   0.880  1.0228  0.0633 -0.7913
   91MOL    H9338073   4.983   3.386   0.580  0.2392  0.6434 -0.5066
   91MOL    H9438074   5.119   3.417   0.682  0.3075  0.5007 -2.5996
   91MOL    H9538075   4.937   3.547   0.841 -0.8306 -0.8192  0.4023
   91MOL    H9638076   4.770   3.439   0.619  1.0479 -0.2681 -0.6516
   91MOL    H9738077   4.788   3.595   0.579 -1.7647 -0.5404 -0.9272
   91MOL    H9838078   4.524   3.473   0.641 -0.1884 -0.0225 -0.2067
   91MOL    H9938079   4.550   3.640   0.599 -1.5318  0.2368 -0.1832
   91MOL   H10038080   4.456   3.608   0.735  0.3035 -0.6084  1.7242
   91MOL   H10138081   4.782   3.726   0.878 -1.3149 -2.7002  2.0646
   91MOL   H10238082   4.657   3.790   0.761  0.8011 -0.8960 -1.6542
   91MOL   H10338083   4.609   3.715   0.905  1.5167 -0.7295  1.5586
   91MOL   H10438084   4.652   3.365   0.849 -0.4509  0.3301 -1.1302
   91MOL   H10538085   4.750   3.463   0.947  0.7722  0.0084 -0.4727
   91MOL   H10638086   4.580   3.492   0.945  1.5410  1.3312 -0.5634
   91MOL   C10738087   5.010   3.660   0.685  0.1965  0.7883 -0.0778
   91MOL   C10838088   5.142   3.692   0.769 -0.1990 -0.1552 -0.6203
   91MOL   C10938089   5.252   3.759   0.680 -0.1028  0.5520 -0.2895
   91MOL   C11038090   5.334   3.664   0.582  0.4021 -0.3418 -0.2259
   91MOL   C11138091   5.390   3.538   0.655  0.2767 -0.4198  0.5494
   91MOL   C11238092   5.452   3.748   0.523  0.1244 -0.1078  0.3667
   91MOL   C11338093   5.249   3.603   0.467 -0.1571  0.4705 -0.0966
   91MOL   H11438094   4.944   3.745   0.701  0.2239  1.0977 -1.5782
   91MOL   H11538095   5.026   3.643   0.579 -0.0487  2.2418 -0.3515
   91MOL   H11638096   5.183   3.597   0.803  0.5852  0.0564 -0.9571
   91MOL   H11738097   5.209   3.840   0.620 -1.8158  0.1061  0.3211
   91MOL   H11838098   5.334   3.800   0.740 -0.2027  1.7269 -0.9341
   91MOL   H11938099   5.450   3.481   0.585  0.2805 -1.0657  1.0704
   91MOL   H12038100   5.451   3.566   0.742 -0.6492  1.7527  0.5289
   91MOL   H12138101   5.315   3.466   0.688 -0.1332 -1.1111 -1.8226
   91MOL   H12238102   5.528   3.781   0.594  2.0980  0.7545 -2.0481
   91MOL   H12338103   5.417   3.841   0.478 -0.0003 -1.0880 -1.5964
   91MOL   H12438104   5.503   3.695   0.443 -3.7468  1.5320 -3.3915
   91MOL   H12538105   5.184   3.522   0.498  0.6208 -0.6576 -1.3449
   91MOL   H12638106   5.311   3.558   0.389  0.0294  1.9003 -0.7942
   91MOL   H12738107   5.187   3.679   0.420  0.5998  1.3825  0.3509
   91MOL   C12838108   5.107   3.778   0.888  0.8290  0.5042  0.4141
   91MOL   C12938109   5.204   3.798   1.006  0.6056 -0.2270 -0.4676
   91MOL   C13038110   5.142   3.912   1.100 -0.2561 -0.0575  0.1135
   91MOL   C13138111   5.199   4.058   1.098  0.3403  0.0216  0.6917
   91MOL   C13238112   5.180   4.126   0.957  0.0356  0.5713 -0.3158
   91MOL   C13338113   5.350   4.067   1.150  0.4551 -0.3011 -0.0775
   91MOL   C13438114   5.115   4.154   1.188 -0.4358  0.3871  0.4060
   91MOL   H13538115   5.017   3.728   0.925  2.0692 -2.0560  0.0571
   91MOL   H13638116   5.070   3.874   0.852 -0.4768  0.3066  1.1764
   91MOL   H13738117   5.299   3.833   0.965  0.6248  0.9840  0.5628
   91MOL   H13838118   5.040   3.931   1.069  0.0444  2.8672  0.7849
   91MOL   H13938119   5.134   3.883   1.205  0.4300 -2.0455 -0.3606
   91MOL   H14038120   5.213   4.064   0.873  0.0736 -3.2201  2.3384
   91MOL   H14138121   5.235   4.220   0.948 -0.0301  0.5306 -1.2051
   91MOL   H14238122   5.073   4.139   0.940 -0.0580  0.1610 -0.0435
   91MOL   H14338123   5.421   4.011   1.089  1.5856 -1.6863  2.4218
   91MOL   H14438124   5.370   4.023   1.248  0.0551 -0.0988  0.0972
   91MOL   H14538125   5.389   4.169   1.154 -2.0106  0.7720 -2.5119
   91MOL   H14638126   5.118   4.123   1.292  0.5428  2.3523  0.9972
   91MOL   H14738127   5.155   4.256   1.182  2.9780 -0.8427  0.9049
   91MOL   H14838128   5.010   4.161   1.159 -0.5405 -0.8322  0.4926
   91MOL   C14938129   5.231   3.670   1.089  0.6503  0.5822  0.1814
   91MOL   C15038130   5.369   3.655   1.165 -0.4320  0.3315 -0.3471
   91MOL   C15138131   5.358   3.541   1.273 -0.6189  0.2713 -0.0951
   91MOL   C15238132   5.336   3.586   1.416  0.3748  0.5024  0.4183
   91MOL   C15338133   5.302   3.463   1.500 -0.0209 -0.1440 -0.5044
   91MOL   C15438134   5.220   3.692   1.433 -0.5767  0.4359  0.4521
   91MOL   C15538135   5.472   3.648   1.466 -0.4284 -0.6745  0.1901
   91MOL   H15638136   5.218   3.581   1.028  1.0781  0.9824 -0.4993
   91MOL   H15738137   5.153   3.659   1.164  0.7683 -4.4023 -0.2505
   91MOL   H15838138   5.390   3.753   1.208  2.0760 -0.7332  1.0284
   91MOL   H15938139   5.436   3.466   1.259  0.2659  1.5723 -2.4558
   91MOL   H16038140   5.269   3.484   1.246 -0.3020  0.4984 -1.6630
   91MOL   H16138141   5.198   3.435   1.487 -0.4934  0.2179  2.2260
   91MOL   H16238142   5.365   3.380   1.467  2.2004  2.1870 -2.4096
   91MOL   H16338143   5.320   3.470   1.607 -2.3030  0.4318 -0.1243
   91MOL   H16438144   5.130   3.677   1.374 -1.4412  1.7149  1.4024
   91MOL   H16538145   5.257   3.792   1.408 -1.4791  0.5909 -0.2562
   91MOL   H16638146   5.192   3.699   1.539  1.3851 -2.6343  1.2325
   91MOL   H16738147   5.559   3.585   1.488 -0.0152 -0.5784 -1.1269
   91MOL   H16838148   5.504   3.730   1.402  0.5257 -0.1088  1.3742
   91MOL   H16938149   5.449   3.695   1.561  1.0442 -0.9706  0.7165
   91MOL   C17038150   5.473   3.618   1.053 -0.8731  0.0288  0.0247
   91MOL   C17138151   5.623   3.632   1.094  0.7335  0.0917  0.0078
   91MOL   C17238152   5.659   3.784   1.085  0.3340  0.6030 -0.1675
   91MOL   C17338153   5.781   3.845   1.167  0.1060  0.1630 -0.0843
   91MOL   C17438154   5.756   3.822   1.313 -0.1658 -0.2147  0.0102
   91MOL   C17538155   5.792   3.998   1.144  0.2515 -0.5240 -0.8075
   91MOL   C17638156   5.919   3.780   1.127 -0.3537  0.1533 -0.4351
   91MOL   H17738157   5.443   3.675   0.965 -1.4030  1.4495  1.1048
   91MOL   H17838158   5.458   3.513   1.025 -0.0852 -0.8033  2.5841
   91MOL   H17938159   5.646   3.602   1.196 -1.1735  0.5087  0.5754
   91MOL   H18038160   5.675   3.809   0.980  0.9687 -0.2019 -0.2660
   91MOL   H18138161   5.571   3.845   1.107  0.9327  1.5961 -0.4579
   91MOL   H18238162   5.750   3.715   1.334  0.7977 -0.3752 -0.5373
   91MOL   H18338163   5.842   3.849   1.374 -1.4086  0.5039  1.4902
   91MOL   H18438164   5.670   3.868   1.362  0.2535  0.4143  0.1639
   91MOL   H18538165   5.862   4.042   1.215  0.4543 -0.8712 -0.7914
   91MOL   H18638166   5.843   4.016   1.049  1.8683  0.9100  0.2949
   91MOL   H18738167   5.693   4.043   1.141 -0.2247 -1.2470  2.2026
   91MOL   H18838168   5.922   3.788   1.018 -2.0667  2.0490 -0.3565
   91MOL   H18938169   6.003   3.840   1.163  0.1781 -1.0241  0.3683
   91MOL   H19038170   5.944   3.683   1.172  2.6735  0.1764 -1.8952
   91MOL   C19138171   5.703   3.542   0.998 -0.0934 -0.1340  0.4287
   91MOL   C19238172   5.706   3.390   1.014  0.2189  0.5172 -0.1283
   91MOL   C19338173   5.815   3.354   1.121 -0.2767  0.2140  0.4002
   91MOL   C19438174   5.794   3.238   1.217 -0.3937 -0.3717  0.2697
   91MOL   C19538175   5.665   3.268   1.300  0.0261  0.0795  0.1368
   91MOL   C19638176   5.918   3.220   1.314 -0.1763  0.6119 -0.1244
   91MOL   C19738177   5.765   3.104   1.152 -0.2527  0.3139  0.4615
   91MOL   H19838178   5.667   3.569   0.899  0.9502  1.8416  0.5504
   91MOL   H19938179   5.808   3.572   0.992 -0.7445  1.6411 -3.4738
   91MOL   H20038180   5.608   3.353   1.043 -0.2654 -0.2554 -2.6490
   91MOL   H20138181   5.831   3.441   1.185 -0.3759 -0.8970  1.9595
   91MOL   H20238182   5.915   3.352   1.079 -0.7213 -2.9262 -0.6578
   91MOL   H20338183   5.571   3.266   1.245 -1.2151  0.4710  2.1545
   91MOL   H20438184   5.643   3.197   1.380 -2.5334 -0.7042 -1.2112
   91MOL   H20538185   5.673   3.367   1.345 -1.4825  1.0786 -1.7763
   91MOL   H20638186   5.962   3.313   1.348 -0.8053  0.8438  0.0650
   91MOL   H20738187   5.883   3.173   1.406 -0.5484 -1.7950 -1.4498
   91MOL   H20838188   5.988   3.146   1.276 -1.1106 -1.7263  2.5490
   91MOL   H20938189   5.691   3.118   1.073  0.0803  2.1080  0.4277
   91MOL   H21038190   5.855   3.072   1.099 -1.3736 -1.8767 -0.1573
   91MOL   H21138191   5.738   3.038   1.234  3.5030 -1.2252  0.5440
   91MOL   C21238192   5.719   3.315   0.878 -0.1020 -0.5068 -0.3946
   91MOL   C21338193   5.850   3.330   0.793  0.6014  0.1403  0.0013
   91MOL   C21438194   5.831   3.442   0.683 -0.2686 -0.3885  0.2082
   91MOL   C21538195   5.959   3.517   0.636 -0.2331  1.1446 -0.4611
   91MOL   C21638196   6.059   3.426   0.560  0.1549  0.5136 -0.1995
   91MOL   C21738197   5.908   3.626   0.538 -0.3264  0.4213 -0.0287
   91MOL   C21838198   6.028   3.593   0.756 -0.9217 -0.1050  0.0652
   91MOL   H21938199   5.703   3.209   0.901  2.2487 -1.2023 -1.6878
   91MOL   H22038200   5.635   3.341   0.814  1.5901  1.1655 -2.0114
   91MOL   H22138201   5.935   3.343   0.859  0.4604 -1.5035  0.5335
   91MOL   H22238202   5.748   3.505   0.716 -0.9215  0.2981 -2.6289
   91MOL   H22338203   5.788   3.398   0.593 -2.0332  1.2994  0.2003
   91MOL   H22438204   6.122   3.485   0.494 -1.3395  1.5901 -0.6811
   91MOL   H22538205   6.009   3.352   0.497  1.0994 -0.2695 -0.0284
   91MOL   H22638206   6.117   3.373   0.635  2.2171 -2.0060 -3.4029
   91MOL   H22738207   5.884   3.584   0.440 -1.8694  2.7341 -0.6670
   91MOL   H22838208   5.821   3.680   0.574 -1.9099  0.6019 -3.9060
   91MOL   H22938209   5.988   3.699   0.530  0.5529 -0.3400  1.6509
   91MOL   H23038210   6.116   3.654   0.734 -0.5700 -0.5859  0.1219
   91MOL   H23138211   6.066   3.528   0.835 -0.1351 -1.8410 -1.7218
   91MOL   H23238212   5.954   3.658   0.802 -1.9017 -0.4104 -1.0681
   91MOL   C23338213   5.893   3.193   0.722  0.0048 -0.3086  0.2584
   91MOL   C23438214   5.788   3.076   0.692 -0.4485  0.8585 -0.3104
   91MOL   C23538215   5.673   3.122   0.598  0.4992  0.0287 -0.3928
   91MOL   C23638216   5.534   3.054   0.604 -0.4095 -0.4249  0.9305
   91MOL   C23738217   5.441   3.143   0.520 -0.3251  0.5075 -0.0930
   91MOL   C23838218   5.540   2.912   0.568 -0.3588 -0.2142 -0.0356
   91MOL   C23938219   5.471   3.072   0.748 -0.5705  0.2193  0.3105
   91MOL   H24038220   5.977   3.150   0.777 -0.0310 -1.8173 -0.8335
   91MOL   H24138221   5.927   3.210   0.620 -0.8963 -0.2646 -0.0386
   91MOL   H24238222   5.746   3.036   0.784 -0.2918  1.0070 -0.1716
   91MOL   H24338223   5.658   3.229   0.609 -0.4409 -0.0760 -0.5699
   91MOL   H24438224   5.715   3.120   0.497  1.0852 -0.9661 -0.1393
   91MOL   H24538225   5.434   3.247   0.549 -0.2910  0.0689  1.5338
   91MOL   H24638226   5.343   3.096   0.529  0.7364 -1.9501 -0.9462
   91MOL   H24738227   5.472   3.135   0.415  0.5040  2.6394 -0.0244
   91MOL   H24838228   5.587   2.844   0.639 -2.1164 -3.0167 -1.4653
   91MOL   H24938229   5.439   2.873   0.567 -0.4549  0.0460 -0.7361
   91MOL   H25038230   5.594   2.901   0.473  0.3871  2.1641  0.0711
   91MOL   H25138231   5.526   3.022   0.829  1.1225  2.0058  0.3089
   91MOL   H25238232   5.454   3.176   0.776 -3.2765  0.1298 -0.8865
   91MOL   H25338233   5.372   3.028   0.748 -0.2049 -0.6166 -0.0935
   91MOL   C25438234   5.861   2.949   0.644  0.5784  0.1801  0.4897
   91MOL   C25538235   5.967   2.863   0.724 -0.7033  0.4506 -0.3743
   91MOL   C25638236   6.010   2.737   0.647  0.0095  0.1429  0.1234
   91MOL   C25738237   6.103   2.739   0.521  0.3311 -0.2861  0.1050
   91MOL   C25838238   6.233   2.813   0.542  0.2641  0.6569 -0.3321
   91MOL   C25938239   6.029   2.797   0.400 -0.6899  0.5197  0.3582
   91MOL   C26038240   6.131   2.595   0.483 -0.6767 -0.1881  0.5287
   91MOL   H26138241   5.912   2.989   0.557  0.5068  1.7942  1.1683
   91MOL   H26238242   5.790   2.877   0.603 -1.4359  0.9454  2.4976
   91MOL   H26338243   6.056   2.920   0.751  0.8479 -0.9426 -2.3254
   91MOL   H26438244   6.065   2.674   0.717  0.3356 -1.2107 -1.3321
   91MOL   H26538245   5.912   2.690   0.640 -0.7982  1.4696  1.8961
   91MOL   H26638246   6.200   2.911   0.576  0.7650 -0.2969  3.1096
   91MOL   H26738247   6.310   2.816   0.465  0.3308  0.6905 -0.2635
   91MOL   H26838248   6.292   2.775   0.626  1.0119 -2.5420 -2.1989
   91MOL   H26938249   6.021   2.906   0.400 -0.8997  0.5135 -2.0222
   91MOL   H27038250   5.927   2.761   0.390  0.3910 -2.8216  0.7416
   91MOL   H27138251   6.084   2.774   0.309  0.5558 -1.8738  1.6679
   91MOL   H27238252   6.190   2.540   0.557  1.1959 -0.3546 -1.0505
   91MOL   H27338253   6.039   2.536   0.478 -0.7100  0.0729 -2.7651
   91MOL   H27438254   6.194   2.586   0.394 -1.1137  0.9348  0.1039
   91MOL   C27538255   5.898   2.820   0.857 -0.5518  0.8836  0.3319
   91MOL   C27638256   5.998   2.778   0.969  0.1412 -0.5856 -1.0183
   91MOL   C27738257   6.072   2.903   1.022 -0.8992 -0.5550 -0.4337
   91MOL   C27838258   6.231   2.903   1.042 -0.1844  0.1312 -0.0722
   91MOL   C27938259   6.268   3.033   1.114  0.1684 -0.2639  0.0887
   91MOL   C28038260   6.272   2.780   1.128 -0.3318  0.0844 -0.6435
   91MOL   C28138261   6.308   2.893   0.908 -0.5392 -0.2197 -0.2410
   91MOL   H28238262   5.823   2.880   0.910 -0.4625  1.7037 -0.4533
   91MOL   H28338263   5.831   2.736   0.843  0.5684  0.0102  0.1893
   91MOL   H28438264   6.067   2.706   0.925  2.3908 -0.0807  1.4985
   91MOL   H28538265   6.027   2.935   1.116  1.7893  2.6890 -0.1238
   91MOL   H28638266   6.070   2.979   0.944  2.0461  0.1509  0.1142
   91MOL   H28738267   6.233   3.037   1.217 -1.1302  2.4246 -0.4244
   91MOL   H28838268   6.376   3.047   1.121 -0.1566  1.1858  2.6172
   91MOL   H28938269   6.214   3.114   1.065 -1.9943 -1.0394  1.1244
   91MOL   H29038270   6.380   2.772   1.145 -0.1019  1.8689 -1.1684
   91MOL   H29138271   6.254   2.689   1.071  3.0422 -1.8004  1.1383
   91MOL   H29238272   6.224   2.784   1.225 -0.8385  0.2815 -0.9038
   91MOL   H29338273   6.287   2.816   0.834  0.2559  0.5610 -1.3121
   91MOL   H29438274   6.415   2.876   0.920 -0.3588  1.9742  1.6251
   91MOL   H29538275   6.283   2.985   0.854 -0.6414 -0.3341 -0.3871
   91MOL   C29638276   5.928   2.702   1.087 -0.4414  0.2162  0.3134
   91MOL   C29738277   5.893   2.550   1.057  0.9276  0.3278 -0.5584
   91MOL   C29838278   5.761   2.503   1.118 -0.8759 -0.0987  0.8300
   91MOL   C29938279   5.624   2.534   1.058  0.1555  0.4740 -0.2558
   91MOL   C30038280   5.597   2.682   1.075  0.1262 -0.9191 -0.0100
   91MOL   C30138281   5.619   2.484   0.912 -0.6325  0.1118  0.0238
   91MOL   C30238282   5.515   2.458   1.141 -0.3914 -0.2734  1.0667
   91MOL   H30338283   5.837   2.759   1.104 -1.4390 -1.5043  0.9116
   91MOL   H30438284   5.987   2.712   1.178 -1.8860  1.7412  1.0982
   91MOL   H30538285   5.884   2.539   0.948 -0.8109 -0.3890 -0.3515
   91MOL   H30638286   5.762   2.536   1.221  2.6533  0.4310  0.6763
   91MOL   H30738287   5.756   2.394   1.129 -0.6135 -0.1750  0.2430
   91MOL   H30838288   5.642   2.751   1.004  0.9819 -1.5295 -0.0614
   91MOL   H30938289   5.492   2.710   1.079  0.9446  2.9087 -2.4974
   91MOL   H31038290   5.639   2.709   1.172 -2.2880  2.3913  0.2113
   91MOL   H31138291   5.705   2.517   0.854 -1.3388 -0.4678 -1.3779
   91MOL   H31238292   5.622   2.376   0.916 -0.0336  0.1270  0.0253
   91MOL   H31338293   5.531   2.529   0.867 -1.6063  0.3593  2.1081
   91MOL   H31438294   5.414   2.465   1.100 -0.6718 -2.5182  1.2769
   91MOL   H31538295   5.536   2.351   1.134 -1.4153 -0.4045 -0.2616
   91MOL   H31638296   5.508   2.473   1.249 -1.9503 -0.5385  1.0244
   91MOL   C31738297   6.015   2.461   1.113  0.8092 -0.2856  0.3869
   91MOL   C31838298   6.023   2.310   1.066  0.0200  0.2166 -0.9817
   91MOL   C31938299   6.172   2.268   1.030 -0.5520  0.1539 -0.0633
   91MOL   C32038300   6.243   2.318   0.897 -0.5296 -0.7534  0.3288
   91MOL   C32138301   6.222   2.461   0.853 -0.4580  0.1304  0.0911
   91MOL   C32238302   6.204   2.224   0.785  0.0643 -0.1125  0.2605
   91MOL   C32338303   6.394   2.302   0.920  0.5099 -0.1264 -0.3893
   91MOL   H32438304   6.103   2.510   1.073 -0.0152 -1.3009 -2.9142
   91MOL   H32538305   6.022   2.465   1.221  1.4012 -3.3742  0.5096
   91MOL   H32638306   5.975   2.297   0.969  3.7924 -0.4481 -2.8352
   91MOL   H32738307   6.177   2.160   1.040 -1.5247  0.3624  3.1419
   91MOL   H32838308   6.229   2.317   1.109 -0.2711  1.3890 -1.0201
   91MOL   H32938309   6.269   2.531   0.922  0.2374  0.6219 -0.8752
   91MOL   H33038310   6.115   2.481   0.841 -0.0025  1.5652 -1.8589
   91MOL   H33138311   6.269   2.467   0.755 -1.0047 -0.8581 -0.2417
   91MOL   H33238312   6.228   2.265   0.687 -0.5094  0.8668  0.5185
   91MOL   H33338313   6.260   2.132   0.772 -0.8397 -0.8382  1.3875
   91MOL   H33438314   6.099   2.195   0.790 -0.0298  0.1602 -0.1220
   91MOL   H33538315   6.445   2.332   0.828 -2.5637  2.2647 -1.3880
   91MOL   H33638316   6.414   2.198   0.947 -0.8268  0.5227  3.4284
   91MOL   H33738317   6.428   2.360   1.006  0.1845  0.0660 -0.3891
   91MOL   C33838318   5.970   2.213   1.174 -0.2876 -0.6718  0.4803
   91MOL   C33938319   5.887   2.096   1.123  0.2730 -0.6447 -0.3327
   91MOL   C34038320   5.876   2.004   1.244 -0.2685 -0.2343 -0.3313
   91MOL   C34138321   5.800   2.049   1.371  0.4690  0.5885 -0.0975
   91MOL   C34238322   5.891   2.129   1.470 -0.8177 -0.5534 -0.0107
   91MOL   C34338323   5.668   2.115   1.332  0.1438  0.1931 -0.5801
   91MOL   C34438324   5.760   1.915   1.449 -0.0381 -0.7394 -0.0772
   91MOL   H34538325   5.904   2.266   1.242  0.6231 -0.8752  1.5275
   91MOL   H34638326   6.054   2.178   1.234  0.8447 -0.7329 -1.1059
   91MOL   H34738327   5.793   2.147   1.101  0.5370  0.0174  0.0620
   91MOL   H34838328   5.979   1.983   1.273 -0.0189 -1.1852 -1.8240
   91MOL   H34938329   5.826   1.915   1.207 -0.1970 -0.2585 -0.3705
   91MOL   H35038330   5.865   2.114   1.575  3.1682 -0.6124  1.0563
   91MOL   H35138331   5.993   2.090   1.458 -0.8981 -1.5340  2.3210
   91MOL   H35238332   5.892   2.237   1.462 -0.0894 -0.6928 -2.0768
   91MOL   H35338333   5.600   2.107   1.416  2.9040 -0.7170  1.6656
   91MOL   H35438334   5.698   2.217   1.307 -0.4956  0.7789  0.9904
   91MOL   H35538335   5.624   2.063   1.247 -0.9200 -0.1978  0.2054
   91MOL   H35638336   5.683   1.858   1.398 -2.7375  1.8125  0.9580
   91MOL   H35738337   5.839   1.841   1.456 -1.1763 -2.0173 -0.6280
   91MOL   H35838338   5.733   1.942   1.552  0.1131  2.5671 -0.8484
   91MOL   C35938339   5.930   2.021   0.994  0.3672 -0.1431 -0.5533
   91MOL   C36038340   5.815   1.967   0.902 -0.1386 -0.0220 -0.5530
   91MOL   C36138341   5.867   1.849   0.811  0.4497 -0.1772  0.3742
   91MOL   C36238342   5.855   1.704   0.865  0.4199  0.1624 -0.0728
   91MOL   C36338343   5.711   1.656   0.907  1.1151 -0.2300  0.4391
   91MOL   C36438344   5.946   1.678   0.987 -0.4790  0.2457  0.5600
   91MOL   C36538345   5.915   1.614   0.758  0.1922 -0.9516  0.1163
   91MOL   H36638346   5.998   1.938   1.015  2.3397  1.6805  0.4458
   91MOL   H36738347   5.995   2.079   0.928  0.6846 -0.1128 -0.2159
   91MOL   H36838348   5.738   1.922   0.965 -0.0931  0.0124 -0.4733
   91MOL   H36938349   5.813   1.848   0.716 -0.8617  0.1880  1.1013
   91MOL   H37038350   5.971   1.857   0.782  0.4623  2.0786  0.9408
   91MOL   H37138351   5.692   1.548   0.911  2.0972 -0.3993  0.7041
   91MOL   H37238352   5.689   1.697   1.006  2.3542  0.7687  0.3102
   91MOL   H37338353   5.631   1.694   0.844  1.8974  2.0440  0.7768
   91MOL   H37438354   5.947   1.575   1.022  1.1269  0.8799  2.4685
   91MOL   H37538355   5.930   1.731   1.081  3.9681 -0.2609  1.7340
   91MOL   H37638356   6.049   1.700   0.958 -0.6588 -2.7042 -2.6699
   91MOL   H37738357   5.943   1.512   0.784 -1.5988 -1.3478  0.5672
   91MOL   H37838358   6.007   1.661   0.723  0.2219 -0.1311  1.2867
   91MOL   H37938359   5.851   1.609   0.669  0.3251  1.0342 -0.1101
   91MOL   C38038360   5.752   2.088   0.829  0.2716  0.0069  0.8571
   91MOL   C38138361   5.611   2.076   0.772 -0.2691 -0.3941  0.6546
   91MOL   C38238362   5.583   2.193   0.676  0.1184 -0.9160  0.3061
   91MOL   C38338363   5.682   2.233   0.554  0.2931 -0.1919 -0.5927
   91MOL   C38438364   5.733   2.107   0.471  0.5890 -0.0394 -0.4080
   91MOL   C38538365   5.810   2.309   0.600  0.3647 -0.0925 -0.2205
   91MOL   C38638366   5.594   2.314   0.456  0.3598 -0.4252  0.4731
   91MOL   H38738367   5.825   2.098   0.749 -0.3241 -3.6018 -0.2375
   91MOL   H38838368   5.751   2.172   0.898 -1.8750  0.4106  0.3675
   91MOL   H38938369   5.602   1.979   0.723  1.8830 -0.5862  0.6140
   91MOL   H39038370   5.484   2.179   0.632 -0.4605 -0.5154  1.4760
   91MOL   H39138371   5.563   2.276   0.744 -1.4674 -2.2978  1.5501
   91MOL   H39238372   5.652   2.041   0.440 -1.4544  1.9107  0.6564
   91MOL   H39338373   5.798   2.141   0.390  0.0132  0.2936 -0.7315
   91MOL   H39438374   5.791   2.048   0.542 -0.9107 -0.3615  0.5609
   91MOL   H39538375   5.797   2.381   0.681 -0.4501  0.5002 -0.8829
   91MOL   H39638376   5.845   2.364   0.512 -1.4749 -0.5846 -1.2733
   91MOL   H39738377   5.888   2.233   0.602 -1.9725 -2.5977 -1.1867
   91MOL   H39838378   5.650   2.343   0.366 -1.1155  0.4992 -0.1755
   91MOL   H39938379   5.556   2.400   0.511  1.4626  0.6990 -0.4776
   91MOL   H40038380   5.504   2.265   0.419 -0.6763  0.5817  1.6143
   91MOL   C40138381   5.509   2.084   0.892 -0.0711 -0.0227  0.0798
   91MOL   C40238382   5.452   1.952   0.950 -0.9856  0.4134 -0.1424
   91MOL   C40338383   5.336   1.969   1.056 -0.0474  0.0036 -0.2964
   91MOL   C40438384   5.248   1.845   1.088  0.6195 -0.3281 -0.4808
   91MOL   C40538385   5.192   1.784   0.956 -0.2073 -0.2370 -0.2834
   91MOL   C40638386   5.132   1.883   1.176 -0.0145 -0.2343 -0.4618
   91MOL   C40738387   5.330   1.740   1.156 -0.4087  0.2314  0.2933
   91MOL   H40838388   5.551   2.148   0.971 -0.7149 -2.2323  2.2860
   91MOL   H40938389   5.428   2.142   0.850 -1.3601 -3.5401 -2.5934
   91MOL   H41038390   5.410   1.892   0.870  2.2952 -0.7605 -1.0985
   91MOL   H41138391   5.281   2.051   1.009 -0.9314 -0.2265  0.3208
   91MOL   H41238392   5.381   1.996   1.151 -0.2499  0.8460 -0.4412
   91MOL   H41338393   5.162   1.865   0.889 -1.0229  1.0824  1.5933
   91MOL   H41438394   5.103   1.722   0.969  0.1141 -0.7028 -0.3114
   91MOL   H41538395   5.270   1.721   0.914 -1.1216 -2.3501  1.1081
   91MOL   H41638396   5.074   1.965   1.133  2.5202  1.4224 -0.8750
   91MOL   H41738397   5.173   1.927   1.267  2.4293  0.9235 -2.0660
   91MOL   H41838398   5.072   1.795   1.196 -0.0609 -0.1817 -0.3687
   91MOL   H41938399   5.370   1.780   1.249 -0.2859  2.1888 -0.5925
   91MOL   H42038400   5.279   1.643   1.160 -0.6269  0.3784  1.0854
   91MOL   H42138401   5.409   1.711   1.085  0.0477 -0.1244  0.9396
   91MOL   H42238402   5.533   1.893   0.994 -1.2859 -0.0245 -0.1719
   92MOL     C138403   3.683   4.233   7.348 -0.0416  0.2243  0.7914
   92MOL     C238404   3.685   4.220   7.194  0.6096 -0.0835  0.4459
   92MOL     C338405   3.670   4.358   7.128  0.0981 -0.0765 -0.5346
   92MOL     C438406   3.779   4.401   7.024 -0.8871 -0.0998  0.2358
   92MOL     C538407   3.902   4.470   7.097  0.1532 -0.1479 -0.0414
   92MOL     C638408   3.834   4.285   6.939  0.1722  0.3349  0.1486
   92MOL     C738409   3.718   4.506   6.931 -0.0698 -0.0548  0.2482
   92MOL     H838410   3.784   4.236   7.388  0.2072  0.0785  0.1840
   92MOL     H938411   3.639   4.323   7.390 -1.0782  0.3951 -0.5994
   92MOL    H1038412   3.789   4.196   7.170 -0.4087 -2.8833 -1.4343
   92MOL    H1138413   3.648   4.431   7.206 -1.5503 -1.6804  0.5364
   92MOL    H1238414   3.570   4.357   7.085  0.2895  3.1404 -1.1742
   92MOL    H1338415   3.875   4.550   7.167  0.7866  0.2649 -0.2698
   92MOL    H1438416   3.978   4.503   7.027  0.2430  1.0976  0.6241
   92MOL    H1538417   3.947   4.384   7.146  0.4907 -0.6272 -1.1929
   92MOL    H1638418   3.906   4.323   6.867  0.3227 -0.4235 -0.1045
   92MOL    H1738419   3.888   4.201   6.981 -1.2380 -0.8397 -0.3139
   92MOL    H1838420   3.748   4.245   6.885 -0.7687  1.5981  0.6883
   92MOL    H1938421   3.790   4.553   6.863 -0.6029 -1.0775 -1.0314
   92MOL    H2038422   3.664   4.580   6.990  1.1031  0.6704  0.4409
   92MOL    H2138423   3.643   4.468   6.862  2.1979  1.9616 -3.5213
   92MOL    H2238424   3.627   4.153   7.396  0.1077  0.0661  0.7002
   92MOL    C2338425   3.592   4.116   7.127 -0.9765  0.2784 -0.5829
   92MOL    C2438426   3.611   3.969   7.172  0.5368  0.0519 -0.8202
   92MOL    C2538427   3.735   3.911   7.101 -0.2204 -0.1222  0.6860
   92MOL    C2638428   3.811   3.799   7.170  0.3603 -0.5097  0.2768
   92MOL    C2738429   3.865   3.853   7.302  0.3038  0.4123 -0.1234
   92MOL    C2838430   3.720   3.677   7.195  0.7933 -0.2610 -0.1152
   92MOL    C2938431   3.933   3.763   7.081  0.1069  0.0077 -0.6396
   92MOL    H3038432   3.493   4.145   7.163 -0.5876 -0.5765  1.2564
   92MOL    H3138433   3.590   4.131   7.019 -2.8457  2.3883 -0.2954
   92MOL    H3238434   3.621   3.982   7.280 -2.1503  0.8288 -0.6084
   92MOL    H3338435   3.806   3.994   7.091  0.1610 -0.3728  1.3055
   92MOL    H3438436   3.713   3.892   6.996  0.2926 -0.3641  0.6213
   92MOL    H3538437   3.923   3.941   7.277 -0.4173  0.9879  0.2189
   92MOL    H3638438   3.786   3.883   7.371 -0.0916  0.6992 -0.7037
   92MOL    H3738439   3.938   3.785   7.347  0.3407  0.9726  0.6688
   92MOL    H3838440   3.693   3.633   7.099 -0.2221  0.9045 -0.3689
   92MOL    H3938441   3.774   3.603   7.255 -0.0463 -0.9788 -0.2399
   92MOL    H4038442   3.635   3.698   7.259  0.4591 -0.6079 -0.4413
   92MOL    H4138443   4.004   3.845   7.074  0.8874 -0.6569 -0.6765
   92MOL    H4238444   3.891   3.731   6.986 -0.7588  1.8730 -0.9059
   92MOL    H4338445   3.991   3.677   7.116 -0.3466 -0.2026 -0.4004
   92MOL    C4438446   3.478   3.893   7.136 -0.4248  0.6027  0.0007
   92MOL    C4538447   3.352   3.895   7.233 -0.4008  0.2116  0.1805
   92MOL    C4638448   3.370   3.812   7.358 -0.2292  0.7149 -0.2445
   92MOL    C4738449   3.318   3.859   7.494  0.2094 -0.4275 -0.1739
   92MOL    C4838450   3.330   3.739   7.592  0.1488 -0.6072 -0.3170
   92MOL    C4938451   3.167   3.900   7.492 -0.6416 -0.6005  0.6294
   92MOL    C5038452   3.394   3.981   7.544 -0.2916  0.1111  0.2049
   92MOL    H5138453   3.451   3.933   7.038  2.1499  1.8763 -0.2308
   92MOL    H5238454   3.505   3.789   7.119  0.0154  0.6910  0.1744
   92MOL    H5338455   3.335   3.995   7.272  0.3950  0.8248 -1.0246
   92MOL    H5438456   3.476   3.804   7.378 -0.5877  0.1582  1.4631
   92MOL    H5538457   3.327   3.715   7.330 -0.0601  0.4672  0.3603
   92MOL    H5638458   3.277   3.647   7.567  0.0775 -0.0350 -2.3300
   92MOL    H5738459   3.302   3.770   7.692 -0.3658 -1.2615 -0.2523
   92MOL    H5838460   3.432   3.706   7.608 -0.1218 -1.4532 -0.2788
   92MOL    H5938461   3.142   3.988   7.432 -2.3542 -1.1174  0.5365
   92MOL    H6038462   3.104   3.817   7.459 -0.4612 -0.1916 -0.7803
   92MOL    H6138463   3.123   3.925   7.589  0.1587  0.8698  0.6326
   92MOL    H6238464   3.391   4.065   7.475 -0.5907 -0.3662 -0.3717
   92MOL    H6338465   3.368   4.007   7.646 -0.3509 -0.2233  0.2766
   92MOL    H6438466   3.500   3.960   7.559  0.2173  1.6458 -1.1519
   92MOL    C6538467   3.222   3.861   7.154 -0.1290  0.9408 -1.0228
   92MOL    C6638468   3.176   3.937   7.029 -0.3422  0.1004  0.1535
   92MOL    C6738469   3.201   4.087   7.052 -0.2303 -0.8308  0.7179
   92MOL    C6838470   3.221   4.176   6.926 -0.3746  0.4093 -0.1702
   92MOL    C6938471   3.263   4.322   6.965  0.1955  0.0014 -0.4956
   92MOL    C7038472   3.328   4.114   6.829 -0.1694 -1.1992 -0.3605
   92MOL    C7138473   3.093   4.189   6.843  0.0755  0.6966 -0.5779
   92MOL    H7238474   3.248   3.758   7.129  1.8514  1.1900 -0.0814
   92MOL    H7338475   3.139   3.860   7.224 -0.1948 -3.0201 -1.0479
   92MOL    H7438476   3.240   3.894   6.952  0.0943  1.3753 -0.1974
   92MOL    H7538477   3.288   4.116   7.110 -0.4666  2.1878 -0.3249
   92MOL    H7638478   3.114   4.121   7.108 -0.6352  2.6389 -1.8823
   92MOL    H7738479   3.176   4.360   7.020  0.6125 -1.3296  1.1399
   92MOL    H7838480   3.342   4.316   7.039 -1.9469  0.6877  1.9483
   92MOL    H7938481   3.297   4.386   6.885  1.9241  4.1692  3.3487
   92MOL    H8038482   3.289   4.026   6.778 -2.3578 -0.4077 -0.0839
   92MOL    H8138483   3.420   4.091   6.883 -1.8232 -1.3065  2.4887
   92MOL    H8238484   3.355   4.187   6.752  1.0243 -1.4355 -0.1713
   92MOL    H8338485   3.105   4.283   6.789  1.0184  1.4062  0.8563
   92MOL    H8438486   2.998   4.199   6.895  2.0287  1.4141  2.9945
   92MOL    H8538487   3.092   4.111   6.767 -0.4414 -0.2598  0.4023
   92MOL    C8638488   3.024   3.909   7.005  0.8643  0.2560 -0.2917
   92MOL    C8738489   2.975   3.770   6.952  0.1563  0.2675 -0.5192
   92MOL    C8838490   3.047   3.735   6.822 -1.1404  0.0542 -0.2028
   92MOL    C8938491   3.110   3.597   6.815 -0.2176  0.0483 -0.0134
   92MOL    C9038492   3.210   3.600   6.698  0.0592  0.1626 -0.0507
   92MOL    C9138493   3.000   3.491   6.781  0.7396 -0.0035 -0.1454
   92MOL    C9238494   3.199   3.553   6.938 -0.1648 -0.2096 -0.7908
   92MOL    H9338495   2.982   3.974   6.929  0.1941 -0.2144 -0.3333
   92MOL    H9438496   2.964   3.934   7.092 -0.0412 -2.0808 -0.2047
   92MOL    H9538497   3.007   3.705   7.034  2.7504  0.6906 -1.1387
   92MOL    H9638498   3.124   3.811   6.808 -0.1432 -0.9069  0.0041
   92MOL    H9738499   2.979   3.749   6.738 -0.6791  0.5826 -0.4902
   92MOL    H9838500   3.287   3.676   6.708 -2.0443  2.2228  1.0358
   92MOL    H9938501   3.161   3.616   6.602 -1.8716 -1.0889  0.7040
   92MOL   H10038502   3.250   3.499   6.695 -3.5355 -1.3219 -0.8136
   92MOL   H10138503   2.931   3.481   6.865  0.3606  1.0623 -0.3299
   92MOL   H10238504   2.937   3.523   6.698 -1.4197  0.9824  1.8251
   92MOL   H10338505   3.042   3.393   6.757  0.9746  0.3921 -1.3558
   92MOL   H10438506   3.136   3.537   7.025 -1.4089  1.0077 -1.4585
   92MOL   H10538507   3.277   3.479   6.917  0.6050  0.7303 -1.2818
   92MOL   H10638508   3.262   3.636   6.971 -1.0801  0.5210 -0.8813
   92MOL   C10738509   2.823   3.765   6.928 -0.1522  0.2617 -0.6021
   92MOL   C10838510   2.736   3.765   7.057 -0.0278  0.2853  0.0829
   92MOL   C10938511   2.591   3.821   7.025 -0.5237  0.6713 -0.3295
   92MOL   C11038512   2.558   3.970   7.051 -0.2070  0.0635  0.2262
   92MOL   C11138513   2.546   3.998   7.205  0.4410  0.1283 -0.1921
   92MOL   C11238514   2.418   4.003   6.990  0.1987  0.2899  0.0807
   92MOL   C11338515   2.671   4.066   6.996  0.6250  0.1624  0.1953
   92MOL   H11438516   2.798   3.676   6.872 -3.4657 -1.3600  3.2250
   92MOL   H11538517   2.776   3.845   6.871  0.9553  0.5263 -1.1618
   92MOL   H11638518   2.774   3.845   7.119  1.0076  1.7812 -2.3892
   92MOL   H11738519   2.559   3.786   6.927  2.6452 -1.7442 -0.5935
   92MOL   H11838520   2.520   3.773   7.093 -2.8754  1.4354 -2.1865
   92MOL   H11938521   2.642   4.030   7.247  0.0518 -0.7730  1.4370
   92MOL   H12038522   2.493   4.091   7.223 -1.5511 -0.7954 -1.0777
   92MOL   H12138523   2.500   3.918   7.263  2.7604 -0.8979  0.2931
   92MOL   H12238524   2.392   4.104   7.022  1.0463  1.6559 -3.3379
   92MOL   H12338525   2.341   3.930   7.015 -1.6441  2.7113  1.7803
   92MOL   H12438526   2.425   4.007   6.881  0.7690 -1.1907  0.0526
   92MOL   H12538527   2.633   4.168   7.003  1.7737  0.7474 -1.6714
   92MOL   H12638528   2.698   4.061   6.891  0.4070  1.5286  0.0707
   92MOL   H12738529   2.765   4.064   7.053  1.9988 -1.5656 -2.0425
   92MOL   C12838530   2.733   3.625   7.134 -0.0442 -0.0498  0.2851
   92MOL   C12938531   2.691   3.614   7.283  0.2065  1.0190 -0.2176
   92MOL   C13038532   2.637   3.463   7.306 -0.1169 -0.2358 -0.2736
   92MOL   C13138533   2.482   3.437   7.315  0.0339 -0.2181 -0.1056
   92MOL   C13238534   2.407   3.461   7.182 -0.2272  0.2604 -0.2654
   92MOL   C13338535   2.429   3.517   7.437  0.0975  0.2318  0.2572
   92MOL   C13438536   2.456   3.289   7.352 -0.1955 -0.3564  0.8771
   92MOL   H13538537   2.816   3.559   7.111 -1.6253 -1.5392 -1.3428
   92MOL   H13638538   2.662   3.579   7.066  2.5778 -1.0022 -1.8860
   92MOL   H13738539   2.617   3.691   7.306  1.4514  1.7434  1.5452
   92MOL   H13838540   2.686   3.397   7.235  2.4351  1.1753  0.0928
   92MOL   H13938541   2.679   3.421   7.397 -0.2574  1.1110  0.4241
   92MOL   H14038542   2.306   3.494   7.206 -0.9040 -0.4401 -2.0508
   92MOL   H14138543   2.423   3.383   7.107  1.7658 -0.7294  1.1594
   92MOL   H14238544   2.450   3.550   7.136  0.6412 -0.6576 -1.2681
   92MOL   H14338545   2.325   3.490   7.457 -0.1158  0.0305 -1.0699
   92MOL   H14438546   2.426   3.625   7.417  1.1451  0.5617  1.8227
   92MOL   H14538547   2.483   3.496   7.529 -0.8948 -0.0856  0.7744
   92MOL   H14638548   2.482   3.263   7.455  1.0215 -0.2538  0.5991
   92MOL   H14738549   2.351   3.265   7.333 -0.8295  2.8663 -0.0056
   92MOL   H14838550   2.501   3.219   7.282 -0.5314 -0.2308  0.5350
   92MOL   C14938551   2.810   3.636   7.377  0.1938 -0.3626 -0.5560
   92MOL   C15038552   2.766   3.675   7.522 -0.2976  0.0753  0.0054
   92MOL   C15138553   2.877   3.630   7.623 -0.8645 -0.0569 -0.0222
   92MOL   C15238554   2.895   3.484   7.680 -0.3064  0.1132  0.1597
   92MOL   C15338555   2.984   3.393   7.582  1.0590  0.2914  0.0421
   92MOL   C15438556   2.763   3.416   7.703 -0.6984  0.0720 -0.5017
   92MOL   C15538557   2.980   3.489   0.044 -0.0502 -0.5405 -0.4278
   92MOL   H15638558   2.866   3.725   7.348  1.7412 -0.1885  2.8052
   92MOL   H15738559   2.866   3.543   7.375  1.2980  0.2779  0.2433
   92MOL   H15838560   2.672   3.625   7.549 -0.3002  0.1174  0.0737
   92MOL   H15938561   2.885   3.690   7.714 -1.4545 -0.5604  0.3617
   92MOL   H16038562   2.978   3.645   7.585 -0.2519  0.5641  1.8085
   92MOL   H16138563   3.078   3.442   7.559 -0.0544  1.7578 -1.5096
   92MOL   H16238564   3.021   3.310   7.642 -1.9952 -1.2139 -0.0455
   92MOL   H16338565   2.931   3.363   7.492  1.2210  4.0764 -1.4022
   92MOL   H16438566   2.701   3.487   7.758  0.2417  0.6796 -0.2038
   92MOL   H16538567   2.772   3.327   7.765  0.3519  2.1045  2.4324
   92MOL   H16638568   2.696   3.391   7.621 -0.7001 -1.2311 -0.1163
   92MOL   H16738569   3.001   3.385   0.068 -0.3964 -0.7243 -0.9417
   92MOL   H16838570   3.069   3.552   0.032 -2.0767  2.5402  0.1924
   92MOL   H16938571   2.924   3.527   0.129 -1.3547  0.5680 -1.7712
   92MOL   C17038572   2.748   3.829   7.539  0.9421  0.7101  1.0912
   92MOL   C17138573   2.670   3.891   7.653 -0.0536 -0.5886  0.2494
   92MOL   C17238574   2.514   3.882   7.621 -0.0883  0.1958  0.1430
   92MOL   C17338575   2.434   3.837   7.749  0.4737  0.3332 -0.2814
   92MOL   C17438576   2.450   3.943   0.098 -0.2138  0.0988 -0.4215
   92MOL   C17538577   2.465   3.696   0.030  0.2330  0.2142  0.2272
   92MOL   C17638578   2.285   3.832   7.704 -0.9735  0.2765  0.7492
   92MOL   H17738579   2.701   3.865   7.447 -0.9416 -4.5116 -0.1476
   92MOL   H17838580   2.849   3.867   7.522  1.0978 -0.2528 -0.2468
   92MOL   H17938581   2.695   3.830   7.740 -2.2224  1.0966  2.1159
   92MOL   H18038582   2.471   3.970   7.573 -0.4241 -0.5099 -0.8708
   92MOL   H18138583   2.498   3.806   7.544  1.3328  0.6216 -0.6021
   92MOL   H18238584   2.550   3.938   0.142 -0.2139  2.3510 -0.1442
   92MOL   H18338585   2.425   4.041   0.057 -1.9586 -0.6693 -1.2380
   92MOL   H18438586   2.394   3.923   0.189 -0.0662 -1.4215 -0.6478
   92MOL   H18538587   2.379   3.648   0.077  2.2426 -1.5411  2.2142
   92MOL   H18638588   2.506   3.637   7.714  0.4337  0.4479  0.1618
   92MOL   H18738589   2.545   3.691   0.103  0.4099 -2.9037 -0.1086
   92MOL   H18838590   2.221   3.796   0.018 -0.3084 -0.9746  0.7277
   92MOL   H18938591   2.248   3.934   7.693 -3.1806 -0.5157  0.5841
   92MOL   H19038592   2.259   3.775   7.614  2.5563 -1.0111  0.4803
   92MOL   C19138593   2.711   4.037   7.676 -0.1973  0.3952  0.0099
   92MOL   C19238594   2.849   4.060   7.742  0.3557  0.9006 -0.4121
   92MOL   C19338595   2.834   4.064   0.130 -0.8187 -0.2721  0.2707
   92MOL   C19438596   2.956   4.020   0.213  0.0113  0.1979 -0.3387
   92MOL   C19538597   3.079   4.116   0.212  0.1118 -0.2099  0.6374
   92MOL   C19638598   3.001   3.875   0.177 -0.1896  0.1739 -0.0702
   92MOL   C19738599   2.902   4.019   0.362  0.5108  0.5412  0.1414
   92MOL   H19838600   2.717   4.080   7.576 -1.0183 -1.3207 -0.7952
   92MOL   H19938601   2.645   4.096   7.741  1.0800  0.0098  1.6771
   92MOL   H20038602   2.898   3.964   7.728  0.0459  0.5866  0.6684
   92MOL   H20138603   2.757   3.991   0.156 -0.7071  0.2357  2.0765
   92MOL   H20238604   2.808   4.163   0.168  0.6332 -0.5875  2.1461
   92MOL   H20338605   3.052   4.221   0.199  0.1414 -0.3197 -0.4055
   92MOL   H20438606   3.150   4.093   0.291  0.7170  1.1479  0.5100
   92MOL   H20538607   3.137   4.098   0.121 -1.8322 -1.9048 -0.3311
   92MOL   H20638608   3.052   3.827   0.261  0.0160 -0.6416 -0.6583
   92MOL   H20738609   2.910   3.820   0.154 -1.0838  0.9811  1.4655
   92MOL   H20838610   3.057   3.882   0.084 -2.5358  1.1963 -1.4620
   92MOL   H20938611   2.962   3.965   0.436 -2.0328 -0.1923  1.7383
   92MOL   H21038612   2.913   4.122   0.395  2.9241  0.2052  0.4689
   92MOL   H21138613   2.796   3.999   0.377  0.2501  0.2716 -1.8915
   92MOL   C21238614   2.939   4.159   7.666 -0.2662  0.1034 -0.4948
   92MOL   C21338615   2.891   4.293   7.614  0.0320  0.2494 -0.4016
   92MOL   C21438616   2.975   4.336   7.496 -0.0267 -0.1285  0.6818
   92MOL   C21538617   2.909   4.310   7.352 -0.1637  0.3317 -0.7019
   92MOL   C21638618   2.789   4.400   7.317 -0.2913 -0.4461  0.3458
   92MOL   C21738619   3.019   4.349   7.254 -0.5930  0.5637  0.6660
   92MOL   C21838620   2.871   4.167   7.329 -0.3166 -0.3076 -1.1838
   92MOL   H21938621   3.026   4.169   7.731  0.7851 -0.8978 -1.7391
   92MOL   H22038622   2.969   4.091   7.587  0.0533 -1.4805  0.9423
   92MOL   H22138623   2.792   4.282   7.569  0.3163  0.5323 -1.1068
   92MOL   H22238624   3.068   4.280   7.508 -0.4608 -1.0734 -0.2869
   92MOL   H22338625   2.998   4.442   7.505 -0.1536 -0.0175 -0.2493
   92MOL   H22438626   2.814   4.498   7.358  0.1221 -0.4085 -0.0100
   92MOL   H22538627   2.711   4.359   7.383  0.7652 -1.9107  0.7109
   92MOL   H22638628   2.761   4.398   7.212  0.7036 -1.9828  0.1021
   92MOL   H22738629   3.045   4.454   7.269 -0.9506  0.4829  1.9063
   92MOL   H22838630   3.113   4.297   7.270 -0.2711 -0.0194 -2.7322
   92MOL   H22938631   2.987   4.330   7.151  0.2084 -1.1294  0.7071
   92MOL   H23038632   2.789   4.126   7.388  2.6391 -4.6353  0.1743
   92MOL   H23138633   2.957   4.104   7.353  0.4438  1.4950  0.9164
   92MOL   H23238634   2.840   4.138   7.229 -0.2696  1.4530 -1.7230
   92MOL   C23338635   2.895   4.392   7.732 -0.8742  0.2769 -0.0096
   92MOL   C23438636   2.833   4.533   7.715 -0.4604 -0.5720 -0.1819
   92MOL   C23538637   2.679   4.542   7.711 -0.5954 -0.0457  0.9572
   92MOL   C23638638   2.590   4.495   0.062 -0.4282 -0.0078  0.3077
   92MOL   C23738639   2.565   4.350   0.054 -0.0226  0.4149  0.6454
   92MOL   C23838640   2.657   4.531   0.207  0.1344  0.1837  0.5665
   92MOL   C23938641   2.466   4.583   0.062 -0.6473  0.5293  0.2945
   92MOL   H24038642   2.999   4.421   7.746 -1.2405  1.5050  0.3096
   92MOL   H24138643   2.855   4.347   0.058  0.2241 -1.4915 -0.3839
   92MOL   H24238644   2.858   4.571   7.616 -1.2727 -1.1782 -0.6207
   92MOL   H24338645   2.656   4.644   7.681  0.2869  0.4350  1.8689
   92MOL   H24438646   2.645   4.499   7.617  0.3056  0.8179  0.2283
   92MOL   H24538647   2.656   4.294   0.076 -0.3817 -0.7854 -0.8322
   92MOL   H24638648   2.527   4.308   7.727 -0.5813  0.8529  0.6773
   92MOL   H24738649   2.491   4.326   0.130  1.2348 -1.1614  1.4019
   92MOL   H24838650   2.692   4.634   0.217 -1.1120  0.7798 -0.8634
   92MOL   H24938651   2.584   4.509   0.285  0.9200 -1.3062  0.8951
   92MOL   H25038652   2.749   4.475   0.222 -0.9733 -1.5060  1.1008
   92MOL   H25138653   2.502   4.685   0.044  0.9274 -0.4522 -2.3388
   92MOL   H25238654   2.407   4.561   7.739  0.0920  2.0368 -0.5903
   92MOL   H25338655   2.405   4.591   0.152 -0.7659 -0.3127  0.2857
   92MOL   C25438656   2.889   4.642   0.045 -0.2341  1.0147  0.1955
   92MOL   C25538657   3.033   4.690   0.015 -0.4235  0.1566 -0.3587
   92MOL   C25638658   3.106   4.737   0.151  0.3027  0.7417  0.2472
   92MOL   C25738659   3.186   4.629   0.233  0.2158  0.4490 -0.3015
   92MOL   C25838660   3.088   4.522   0.287 -0.0219  0.0975 -0.0987
   92MOL   C25938661   3.256   4.690   0.355  0.2128 -0.3399 -0.4585
   92MOL   C26038662   3.286   4.563   0.145  0.5391  0.3006  0.0106
   92MOL   H26138663   2.888   4.605   0.147  0.0710  0.7641  0.1077
   92MOL   H26238664   2.822   4.727   0.032 -1.1106  0.7199  2.5043
   92MOL   H26338665   3.090   4.606   7.743  0.7446  0.7869 -0.0324
   92MOL   H26438666   3.175   4.812   0.111  2.1971 -1.1378 -0.0895
   92MOL   H26538667   3.023   4.781   0.206 -0.1079  0.2745  0.0106
   92MOL   H26638668   3.156   4.447   0.327 -0.6675  0.5567  1.9299
   92MOL   H26738669   3.031   4.477   0.206  1.3547  1.1072 -1.6574
   92MOL   H26838670   3.031   4.539   0.378 -0.0250  0.3197 -0.1424
   92MOL   H26938671   3.328   4.625   0.405 -1.3532 -1.1473  0.7795
   92MOL   H27038672   3.187   4.722   0.433  1.6333 -0.2476  0.7969
   92MOL   H27138673   3.310   4.783   0.334 -0.4830  1.1685  3.8001
   92MOL   H27238674   3.351   4.502   0.208 -0.8279 -0.4605  0.7116
   92MOL   H27338675   3.246   4.496   0.068  2.3082 -0.5390 -0.1956
   92MOL   H27438676   3.347   4.640   0.098  0.2642  0.2817 -0.3792
   92MOL   C27538677   3.035   4.800   7.669  0.1172 -0.5167 -0.2961
   92MOL   C27638678   3.165   4.839   7.591 -0.0831  0.1135 -0.2471
   92MOL   C27738679   3.195   4.738   7.475  0.9212  0.1499 -0.4092
   92MOL   C27838680   3.342   4.690   7.446 -0.1548 -0.5241  0.5083
   92MOL   C27938681   3.349   4.603   7.320  0.0119 -0.5403  0.7099
   92MOL   C28038682   3.439   4.813   7.425  0.1104 -0.2045  0.1560
   92MOL   C28138683   3.395   4.610   7.564 -0.1402  0.2432 -0.4513
   92MOL   H28238684   2.969   4.773   7.587  1.7981  0.7987 -2.1504
   92MOL   H28338685   2.984   4.885   7.714  0.8391 -0.4995  0.4988
   92MOL   H28438686   3.253   4.829   7.655  0.2251 -1.1371 -0.8556
   92MOL   H28538687   3.151   4.790   7.390  2.2351  1.7522 -0.1386
   92MOL   H28638688   3.135   4.647   7.480  0.8556 -0.0103 -3.1220
   92MOL   H28738689   3.452   4.573   7.300 -0.1595  0.0598 -1.2033
   92MOL   H28838690   3.284   4.518   7.336  0.3336 -1.1234 -0.9207
   92MOL   H28938691   3.322   4.653   7.226  1.1290  1.5021  1.4420
   92MOL   H29038692   3.406   4.876   7.342  0.1069 -1.3737 -0.7376
   92MOL   H29138693   3.543   4.782   7.416  0.1821  0.5102 -1.7810
   92MOL   H29238694   3.451   4.875   7.513  0.6390  0.5954 -0.4690
   92MOL   H29338695   3.385   4.646   7.666 -0.6971  0.8774 -0.7222
   92MOL   H29438696   3.498   4.579   7.543  0.7964  2.2841  0.9050
   92MOL   H29538697   3.338   4.517   7.563 -1.0054  0.7344  1.5147
   92MOL   C29638698   3.165   4.981   7.539  0.1059 -0.6811 -0.2474
   92MOL   C29738699   3.162   5.092   7.645 -0.5102  0.2382 -0.0100
   92MOL   C29838700   3.140   5.226   7.581  0.4156  0.7272  0.0054
   92MOL   C29938701   3.012   5.270   7.511 -0.0365 -0.3862  0.4804
   92MOL   C30038702   3.010   5.228   7.364  0.3311 -0.5568 -0.0262
   92MOL   C30138703   2.888   5.213   7.581  0.0942  0.1454 -0.6446
   92MOL   C30238704   2.986   5.420   7.516  0.5133 -0.0944 -0.4806
   92MOL   H30338705   3.066   4.993   7.494  0.3682 -1.4415 -1.0485
   92MOL   H30438706   3.236   4.998   7.458 -0.3756 -0.1897 -0.5717
   92MOL   H30538707   3.079   5.070   7.711 -1.3256 -0.9743 -1.4030
   92MOL   H30638708   3.225   5.248   7.516  0.5988 -0.2204 -0.0765
   92MOL   H30738709   3.156   5.299   7.661 -1.2717  0.0092  1.0324
   92MOL   H30838710   3.037   5.123   7.356  2.0970 -0.0678 -0.7109
   92MOL   H30938711   2.912   5.241   7.317  0.2325 -2.3228 -0.3198
   92MOL   H31038712   3.075   5.286   7.298  0.8547 -0.5792  0.4631
   92MOL   H31138713   2.801   5.263   7.538 -0.3342  0.2012  0.2526
   92MOL   H31238714   2.883   5.106   7.560  2.4737 -0.1747  0.2546
   92MOL   H31338715   2.899   5.238   7.687 -1.0650  1.5054 -0.8266
   92MOL   H31438716   3.002   5.464   7.614  0.9008  0.4935 -0.8027
   92MOL   H31538717   3.056   5.469   7.448  0.8577  1.1646  0.7448
   92MOL   H31638718   2.883   5.446   7.490 -0.0217  1.2098  2.6398
   92MOL   C31738719   3.280   5.081   7.743  0.4515 -0.2668  0.3861
   92MOL   C31838720   3.270   5.161   0.108 -0.0123 -0.2859  0.4271
   92MOL   C31938721   3.164   5.095   0.204  0.4505  0.1100  0.0013
   92MOL   C32038722   3.080   5.193   0.292 -0.1100 -0.6231 -0.2192
   92MOL   C32138723   3.156   5.289   0.385 -0.0889  0.2271  0.1647
   92MOL   C32238724   2.996   5.111   0.390 -0.7991 -0.2986  0.3137
   92MOL   C32338725   2.988   5.277   0.209 -0.8967  0.5217  0.1704
   92MOL   H32438726   3.309   4.982   0.011  0.7432 -0.3173 -0.0094
   92MOL   H32538727   3.358   5.121   7.678  2.1198 -1.5658  1.5750
   92MOL   H32638728   3.220   5.255   0.083 -0.6791  0.0501  2.8230
   92MOL   H32738729   3.218   5.021   0.264  1.8875 -0.4418 -1.9497
   92MOL   H32838730   3.089   5.046   0.142 -0.3679  2.1533 -0.6489
   92MOL   H32938731   3.201   5.375   0.337 -1.0612  0.1601 -0.8771
   92MOL   H33038732   3.232   5.229   0.435 -0.7764 -2.1829 -1.6096
   92MOL   H33138733   3.083   5.317   0.461 -0.4241  1.5638 -0.6390
   92MOL   H33238734   3.055   5.060   0.466 -2.1370 -0.6394  1.1511
   92MOL   H33338735   2.932   5.176   0.450 -1.8812  1.2311 -2.4181
   92MOL   H33438736   2.934   5.035   0.341  2.2081 -2.8027  0.2479
   92MOL   H33538737   3.031   5.365   0.162 -1.3442  0.3412 -0.5820
   92MOL   H33638738   2.905   5.321   0.264 -0.7323  0.5177  0.4229
   92MOL   H33738739   2.955   5.208   0.132 -0.7469 -0.8157  1.2821
   92MOL   C33838740   3.402   5.216   0.175 -0.4880  0.0116 -0.4381
   92MOL   C33938741   3.496   5.129   0.261  0.0177 -0.3203  0.6276
   92MOL   C34038742   3.628   5.197   0.298 -0.3846 -0.0931 -0.9049
   92MOL   C34138743   3.641   5.247   0.445 -0.3694 -0.7550  0.9740
   92MOL   C34238744   3.531   5.348   0.482  0.6069 -0.0628  0.1777
   92MOL   C34338745   3.630   5.134   0.545  0.3367  0.3623 -0.6353
   92MOL   C34438746   3.781   5.321   0.463 -0.2703  0.3368  0.6093
   92MOL   H34538747   3.385   5.298   0.245  3.9371 -0.7881  1.7428
   92MOL   H34638748   3.467   5.258   0.098 -1.1517 -2.5570 -2.4562
   92MOL   H34738749   3.438   5.105   0.351 -0.8102  0.7189  0.3804
   92MOL   H34838750   3.653   5.273   0.224  1.3891 -0.0250 -0.2745
   92MOL   H34938751   3.714   5.131   0.285 -1.8628 -1.8757 -1.8532
   92MOL   H35038752   3.436   5.299   0.500  0.7590 -0.5316 -0.2928
   92MOL   H35138753   3.552   5.402   0.575  0.4455 -2.7419  1.8429
   92MOL   H35238754   3.522   5.416   0.397  2.2119 -0.9288 -0.7056
   92MOL   H35338755   3.694   5.047   0.530 -0.7804 -0.3945 -1.0692
   92MOL   H35438756   3.642   5.177   0.645 -0.0740 -1.6649  0.3152
   92MOL   H35538757   3.532   5.087   0.536 -0.6305  2.4539 -1.2516
   92MOL   H35638758   3.854   5.246   0.435  0.8817  0.9716  1.8739
   92MOL   H35738759   3.807   5.403   0.396 -2.4922  0.8417  0.3036
   92MOL   H35838760   3.810   5.358   0.561  2.2063  0.3470 -0.0965
   92MOL   C35938761   3.516   4.981   0.218 -0.2824 -0.0030  0.4043
   92MOL   C36038762   3.638   4.932   0.136 -0.4398 -0.8421 -0.6351
   92MOL   C36138763   3.627   4.974   7.748 -0.2037  0.6767 -0.0377
   92MOL   C36238764   3.749   5.005   7.658 -0.0295  0.7312  0.4141
   92MOL   C36338765   3.820   5.128   7.714  0.0177 -0.5569 -0.7602
   92MOL   C36438766   3.700   5.044   7.520 -0.5136 -0.1837 -0.0936
   92MOL   C36538767   3.845   4.882   7.636  0.5661  0.0252  0.7407
   92MOL   H36638768   3.427   4.934   0.176 -1.5269  0.5504  2.3894
   92MOL   H36738769   3.522   4.921   0.309 -2.4155  0.1096  0.6356
   92MOL   H36838770   3.738   4.970   0.158  0.1017 -2.6343  0.0189
   92MOL   H36938771   3.568   4.894   7.703  0.4587 -0.7245  1.5306
   92MOL   H37038772   3.561   5.061   7.741 -0.9369  0.2158  1.0158
   92MOL   H37138773   3.869   5.106   0.043  0.3039  0.7999 -0.5799
   92MOL   H37238774   3.898   5.158   7.644  1.2062 -0.4049  0.6019
   92MOL   H37338775   3.761   5.217   7.739  5.5877  3.4098 -0.6898
   92MOL   H37438776   3.658   5.144   7.532  0.0854  0.0946 -0.3101
   92MOL   H37538777   3.637   4.974   7.465  0.3067 -0.8854 -0.1494
   92MOL   H37638778   3.790   5.062   7.460 -1.1554 -0.0156 -1.0154
   92MOL   H37738779   3.927   4.895   7.566 -0.8335 -2.9746 -1.5544
   92MOL   H37838780   3.786   4.803   7.590  1.0850 -0.5087  0.9880
   92MOL   H37938781   3.888   4.849   7.730  0.6267 -0.6095  0.4874
   92MOL   C38038782   3.661   4.783   0.154  0.5927 -0.6063  0.5622
   92MOL   C38138783   3.737   4.749   0.282  0.9506  0.1143  0.1104
   92MOL   C38238784   3.893   4.753   0.269  0.1249  0.1629  0.6676
   92MOL   C38338785   3.990   4.776   0.393  0.5079 -0.3694 -0.2560
   92MOL   C38438786   3.952   4.909   0.473  0.3045  0.0297  0.2426
   92MOL   C38538787   4.130   4.797   0.330  0.2182  0.2276 -0.3531
   92MOL   C38638788   4.000   4.660   0.499 -0.4374 -1.0847  0.3817
   92MOL   H38738789   3.705   4.743   0.062  0.7934 -1.3098  0.9571
   92MOL   H38838790   3.562   4.737   0.146  1.2074 -2.1879  1.6818
   92MOL   H38938791   3.708   4.823   0.357 -0.3129  0.5354 -0.7774
   92MOL   H39038792   3.919   4.659   0.221  1.9572  1.3245 -0.6888
   92MOL   H39138793   3.913   4.821   0.186 -1.6561 -2.2297 -1.8052
   92MOL   H39238794   3.862   4.892   0.530  1.1291 -0.8155  1.3115
   92MOL   H39338795   4.022   4.930   0.554 -1.1660 -0.0160  1.5433
   92MOL   H39438796   3.944   5.001   0.414 -0.1966 -0.9091 -1.1721
   92MOL   H39538797   4.137   4.885   0.266  1.0010 -0.2359 -0.9065
   92MOL   H39638798   4.161   4.704   0.282  0.2207 -0.5161  1.0475
   92MOL   H39738799   4.211   4.815   0.400 -0.1863 -0.8696  0.4083
   92MOL   H39838800   4.081   4.671   0.571 -1.0805 -0.6361  1.0533
   92MOL   H39938801   4.015   4.565   0.448 -2.7758  0.3772 -3.2250
   92MOL   H40038802   3.909   4.656   0.559 -1.4175  1.9032 -0.8219
   92MOL   C40138803   3.681   4.616   0.340  0.4434  1.0748  0.2191
   92MOL   C40238804   3.703   4.495   0.247 -0.1761  0.0125  0.5678
   92MOL   C40338805   3.637   4.364   0.309  0.1293 -0.0035  0.5194
   92MOL   C40438806   3.655   4.232   0.229 -0.1354 -0.2623  0.2707
   92MOL   C40538807   3.632   4.255   0.077  0.2137  0.7956  0.1797
   92MOL   C40638808   3.557   4.120   0.271 -0.1092 -0.3234 -0.2687
   92MOL   C40738809   3.797   4.177   0.242 -0.3052  0.1289 -0.2166
   92MOL   H40838810   3.724   4.587   0.437 -1.4338 -0.0385  0.7546
   92MOL   H40938811   3.576   4.634   0.363  0.3205 -1.0940  1.5962
   92MOL   H41038812   3.676   4.521   0.144 -1.4581  3.7047  1.7513
   92MOL   H41138813   3.532   4.377   0.335 -0.7145 -0.6145 -2.4175
   92MOL   H41238814   3.687   4.353   0.405  0.5502 -0.6409  0.2302
   92MOL   H41338815   3.621   4.160   0.025  1.5625  2.9936 -4.3681
   92MOL   H41438816   3.716   4.314   0.041 -0.0955  1.2308  0.1695
   92MOL   H41538817   3.545   4.312   0.045 -1.2534 -1.4087  0.1703
   92MOL   H41638818   3.593   4.018   0.257  0.7424  0.1962 -2.0466
   92MOL   H41738819   3.467   4.122   0.209  1.3328  4.0175 -2.4288
   92MOL   H41838820   3.521   4.134   0.373  1.2257  0.3734  0.1137
   92MOL   H41938821   3.846   4.190   0.339  0.1349  0.3197 -0.4682
   92MOL   H42038822   3.802   4.072   0.213 -0.2717  0.8725 -3.0108
   92MOL   H42138823   3.856   4.231   0.169  1.5770  0.4924  1.5498
   92MOL   H42238824   3.810   4.476   0.241 -0.0065  0.9390  0.6675
   93MOL     C138825   0.575   3.275   0.584  0.5720  0.0652 -0.6380
   93MOL     C238826   0.565   3.430   0.605  0.5092  0.0835 -0.8978
   93MOL     C338827   0.707   3.487   0.611 -0.3595 -0.5848  0.9810
   93MOL     C438828   0.744   3.626   0.544  0.3747  0.3065  0.2126
   93MOL     C538829   0.681   3.737   0.633 -0.4338  0.1978  0.3638
   93MOL     C638830   0.898   3.642   0.547  0.7125 -0.2634 -0.1260
   93MOL     C738831   0.694   3.639   0.397  0.5553  0.0471 -0.3116
   93MOL     H838832   0.485   3.227   0.543  0.5836 -1.3027  0.8434
   93MOL     H938833   0.656   3.251   0.516  0.1282  1.4499 -1.6584
   93MOL    H1038834   0.516   3.462   0.514 -0.7968  0.9012  0.0813
   93MOL    H1138835   0.775   3.428   0.550  1.5204  1.3496  1.1446
   93MOL    H1238836   0.742   3.479   0.714  2.1475 -0.3186  0.1864
   93MOL    H1338837   0.725   3.733   0.732 -2.3574 -1.4083  1.1790
   93MOL    H1438838   0.573   3.734   0.644 -0.3980 -0.1389  0.6216
   93MOL    H1538839   0.712   3.834   0.595  0.6401 -0.5690 -0.7576
   93MOL    H1638840   0.943   3.575   0.474  0.4017  0.2900 -0.8423
   93MOL    H1738841   0.933   3.742   0.522  2.0289 -0.3832  1.2036
   93MOL    H1838842   0.941   3.620   0.645  0.2842 -0.5305  0.0009
   93MOL    H1938843   0.741   3.573   0.324  1.1272 -0.1089  0.1946
   93MOL    H2038844   0.708   3.742   0.364 -1.0240  0.4515  0.2443
   93MOL    H2138845   0.589   3.610   0.401  0.6669 -0.2594  0.3898
   93MOL    H2238846   0.608   3.222   0.674  1.0625 -1.6201 -1.7975
   93MOL    C2338847   0.458   3.455   0.709 -0.4176  0.2225 -0.1084
   93MOL    C2438848   0.310   3.437   0.656 -0.4699 -0.0862  0.5272
   93MOL    C2538849   0.271   3.554   0.560  0.1994  0.0722  1.0842
   93MOL    C2638850   0.199   3.528   0.427  0.2882  0.2129  0.2648
   93MOL    C2738851   0.187   3.664   0.355 -0.0337  0.1807 -0.4734
   93MOL    C2838852   0.292   3.436   0.333  1.0030  0.4659  0.7624
   93MOL    C2938853   0.069   3.456   0.461  0.7352 -0.0925  0.5535
   93MOL    H3038854   0.477   3.395   0.797 -0.3357 -2.0396 -1.6430
   93MOL    H3138855   0.464   3.557   0.747 -1.1083  0.1055  0.3326
   93MOL    H3238856   0.285   3.344   0.605  2.3412 -1.2765  1.2173
   93MOL    H3338857   0.359   3.612   0.532 -0.4640 -0.3398 -1.9810
   93MOL    H3438858   0.213   3.626   0.618  2.2174  3.1467 -0.5821
   93MOL    H3538859   0.251   3.707   0.279  1.5752  1.7254  1.6730
   93MOL    H3638860   0.094   3.648   0.301  0.3285  1.2930 -1.4455
   93MOL    H3738861   0.158   3.739   0.429 -4.3381 -0.0209 -1.8215
   93MOL    H3838862   0.383   3.489   0.304  0.6794  1.2966  1.2156
   93MOL    H3938863   0.324   3.350   0.391 -1.0154 -0.7262  0.1588
   93MOL    H4038864   0.242   3.396   0.245  0.4305  0.5567  1.0373
   93MOL    H4138865   0.009   3.511   0.534  2.4826  0.0431  1.9433
   93MOL    H4238866   0.075   3.360   0.512 -2.6986 -0.3382  0.6496
   93MOL    H4338867   0.006   3.451   0.372 -0.7979 -0.4449  1.6341
   93MOL    C4438868   0.214   3.425   0.776 -0.3144  0.7942  0.2749
   93MOL    C4538869   0.206   3.292   0.850 -0.2218 -1.3085 -0.1252
   93MOL    C4638870   0.097   3.203   0.783 -0.5483 -0.5655  0.9957
   93MOL    C4738871   0.130   3.054   0.754 -0.1588 -0.2878  0.1179
   93MOL    C4838872   0.002   2.979   0.705 -0.0535 -0.1337  0.0406
   93MOL    C4938873   0.190   2.969   0.868  0.4784 -0.3540 -0.1958
   93MOL    C5038874   0.234   3.042   0.640 -0.4109 -0.6038 -0.3749
   93MOL    H5138875   0.241   3.503   0.847  2.0050 -0.4532  0.8160
   93MOL    H5238876   0.116   3.452   0.736 -0.0971  0.8621 -0.2245
   93MOL    H5338877   0.304   3.244   0.846 -0.5195 -2.0868  1.3156
   93MOL    H5438878   0.076   3.252   0.688  3.2792 -1.7460 -0.5497
   93MOL    H5538879   0.002   3.216   0.834 -0.5098  0.1601  0.8867
   93MOL    H5638880   7.711   3.045   0.640  1.0725  0.3753 -0.4488
   93MOL    H5738881   7.704   2.952   0.788 -1.3378  1.3212 -0.4629
   93MOL    H5838882   0.029   2.880   0.668 -1.3076 -1.2798  2.1264
   93MOL    H5938883   0.245   2.881   0.834  1.2464 -0.0983  0.3676
   93MOL    H6038884   0.259   3.022   0.933  1.4764 -1.0721 -0.6617
   93MOL    H6138885   0.103   2.942   0.928  0.9901 -2.4690 -0.3662
   93MOL    H6238886   0.331   3.078   0.672 -2.2216  2.6627  1.7061
   93MOL    H6338887   0.255   2.941   0.603  2.4287 -0.6703  1.2885
   93MOL    H6438888   0.200   3.107   0.560 -0.1739  1.0611  0.8608
   93MOL    C6538889   0.191   3.318   0.998 -0.1199  1.1037  0.7880
   93MOL    C6638890   0.303   3.338   1.101 -0.2087 -0.2441 -0.8010
   93MOL    C6738891   0.334   3.211   1.194 -0.6205 -0.0358 -0.4475
   93MOL    C6838892   0.477   3.157   1.186 -0.0119  0.0868  0.2133
   93MOL    C6938893   0.535   3.140   1.042  0.7215  0.6681 -0.0627
   93MOL    C7038894   0.572   3.239   1.275 -0.6943 -0.1908  0.2326
   93MOL    C7138895   0.488   3.010   1.244 -1.1612  0.2972  0.4160
   93MOL    H7238896   0.115   3.394   1.018 -1.3209 -0.6826  3.3196
   93MOL    H7338897   0.135   3.236   1.043 -1.7597  0.9470 -1.4313
   93MOL    H7438898   0.390   3.368   1.043  0.9764  1.0530  1.5461
   93MOL    H7538899   0.279   3.126   1.153 -0.5976 -0.1028 -0.3409
   93MOL    H7638900   0.300   3.227   1.297  1.0331  2.8524 -0.3037
   93MOL    H7738901   0.562   3.236   0.998  0.9142  0.2985 -0.7586
   93MOL    H7838902   0.631   3.089   1.047 -0.2250 -1.0435  1.5847
   93MOL    H7938903   0.458   3.102   0.974  0.3078  1.8445 -0.2610
   93MOL    H8038904   0.569   3.346   1.252  2.4248  0.1774  1.2478
   93MOL    H8138905   0.678   3.216   1.264 -0.6148  0.0687  0.4537
   93MOL    H8238906   0.565   3.228   1.383  1.7346 -0.4028  0.4032
   93MOL    H8338907   0.556   2.939   1.197 -2.4313 -0.7857  0.1742
   93MOL    H8438908   0.391   2.963   1.228 -1.4645  1.3168 -0.8085
   93MOL    H8538909   0.525   3.007   1.347  4.2238  0.1544 -1.3565
   93MOL    C8638910   0.278   3.464   1.193  0.0664  0.4690  0.3873
   93MOL    C8738911   0.319   3.607   1.141 -0.0412 -0.2419  0.2951
   93MOL    C8838912   0.476   3.624   1.159  0.3510 -0.1616  0.1343
   93MOL    C8938913   0.555   3.733   1.077 -0.5566  0.5683  0.3418
   93MOL    C9038914   0.479   3.785   0.951 -0.4426 -0.1100  0.1278
   93MOL    C9138915   0.685   3.669   1.029  1.1010  0.1751  0.5253
   93MOL    C9238916   0.577   3.861   1.164 -0.0464 -0.6166 -0.2927
   93MOL    H9338917   0.315   3.465   1.295  0.4425  1.6838  0.2416
   93MOL    H9438918   0.171   3.463   1.212  0.0423  0.3786  0.2477
   93MOL    H9538919   0.293   3.620   1.036 -1.2351 -0.3561  0.5704
   93MOL    H9638920   0.523   3.527   1.142  1.7952  1.0085 -2.9697
   93MOL    H9738921   0.493   3.635   1.266 -2.2553  1.7322  0.4171
   93MOL    H9838922   0.392   3.842   0.987  0.7851  0.7868  1.7461
   93MOL    H9938923   0.437   3.706   0.889 -2.5651  0.7180  0.4386
   93MOL   H10038924   0.539   3.856   0.893  0.0498  0.3465  1.1870
   93MOL   H10138925   0.758   3.730   0.976 -0.1133 -0.5627 -2.0482
   93MOL   H10238926   0.746   3.620   1.105 -0.3845  0.1479  1.7372
   93MOL   H10338927   0.665   3.591   0.956  1.9925 -0.4082  0.8967
   93MOL   H10438928   0.634   3.940   1.116  0.0795 -0.5368 -0.0147
   93MOL   H10538929   0.483   3.910   1.190  0.3655  0.4666 -0.8142
   93MOL   H10638930   0.640   3.842   1.250  1.8332  0.0752 -1.4986
   93MOL   C10738931   0.238   3.719   1.219  0.3451 -0.5094 -0.6426
   93MOL   C10838932   0.075   3.727   1.215  0.3551 -0.9900 -0.5975
   93MOL   C10938933   0.012   3.846   1.300 -0.1133 -0.0901  0.0843
   93MOL   C11038934   0.004   3.842   1.457 -0.4989  0.1452  0.9223
   93MOL   C11138935   0.139   3.831   1.531 -0.6472 -0.0559  0.2497
   93MOL   C11238936   7.675   3.737   1.508 -0.5482  0.1927 -0.0218
   93MOL   C11338937   7.702   3.970   1.496  0.2919 -0.5870  0.6606
   93MOL   H11438938   0.278   3.815   1.188 -2.3855  1.3885  1.4821
   93MOL   H11538939   0.271   3.715   1.323 -0.6444  0.6440 -0.2652
   93MOL   H11638940   0.043   3.636   1.265 -0.6028 -0.2850  0.1033
   93MOL   H11738941   0.070   3.935   1.278  0.8253 -0.3353  1.5392
   93MOL   H11838942   7.673   3.854   1.270 -0.3085  1.4812  1.1424
   93MOL   H11938943   0.215   3.886   1.477  0.8270 -0.8705  1.4677
   93MOL   H12038944   0.129   3.858   1.636 -0.1365  1.1674 -0.0044
   93MOL   H12138945   0.169   3.727   1.537  1.8159  0.6417  0.4828
   93MOL   H12238946   7.569   3.745   1.484 -0.8705  1.8842  1.8414
   93MOL   H12338947   7.674   3.749   1.616  1.0772 -0.1099  0.0338
   93MOL   H12438948   7.711   3.637   1.481  1.4908  1.2904 -1.4513
   93MOL   H12538949   7.699   3.973   1.605  0.4706  0.4427  0.6399
   93MOL   H12638950   7.604   3.986   1.452  0.1548 -0.6753  0.9337
   93MOL   H12738951   7.737   4.068   1.463  0.7698 -0.6297  1.0245
   93MOL   C12838952   0.009   3.727   1.070 -0.2232  0.4113  0.1041
   93MOL   C12938953   7.632   3.668   1.061  0.3648  0.0661 -0.4096
   93MOL   C13038954   7.551   3.738   0.947  0.0136 -0.4044  0.0177
   93MOL   C13138955   7.463   3.863   0.974 -0.8715 -0.1182 -0.0110
   93MOL   C13238956   7.357   3.828   1.082 -0.3040  0.4872 -0.1102
   93MOL   C13338957   7.395   3.900   0.838  0.1890  0.0443 -0.3888
   93MOL   C13438958   7.535   3.987   1.031 -0.4482 -0.2156  0.1491
   93MOL   H13538959   0.075   3.675   1.000 -0.4352  0.6618 -0.2897
   93MOL   H13638960   0.008   3.831   1.036 -1.0085 -0.5030 -2.8849
   93MOL   H13738961   7.587   3.690   1.158  0.8234  0.3092 -0.2502
   93MOL   H13838962   7.619   3.741   0.862  0.0414  1.2719  0.0834
   93MOL   H13938963   7.486   3.658   0.912  0.8767  0.1993 -3.1149
   93MOL   H14038964   7.303   3.741   1.043 -3.3925  1.9002  0.8893
   93MOL   H14138965   7.289   3.913   1.082 -0.4095  0.4214  1.3577
   93MOL   H14238966   7.402   3.814   1.180  0.7551  0.8926 -0.5244
   93MOL   H14338967   7.340   3.815   0.797 -0.2018  0.0943  0.0248
   93MOL   H14438968   7.461   3.946   0.764 -1.3040  1.3644 -0.9608
   93MOL   H14538969   7.310   3.968   0.850  0.1827 -0.1501  0.7063
   93MOL   H14638970   7.634   3.992   0.985 -0.9728 -1.2833 -1.1355
   93MOL   H14738971   7.481   4.082   1.023 -3.0651 -1.6844 -0.2429
   93MOL   H14838972   7.564   3.977   1.135 -2.1347 -1.1163  0.5560
   93MOL   C14938973   7.633   3.516   1.044  0.2734 -0.1088  0.2999
   93MOL   C15038974   7.510   3.435   1.092 -0.8713 -0.1466 -0.5963
   93MOL   C15138975   7.492   3.302   1.017  0.5331 -0.5259 -0.1738
   93MOL   C15238976   7.401   3.293   0.891  0.1510  0.6546 -0.5039
   93MOL   C15338977   7.364   3.145   0.864  0.2022 -0.1928 -0.2624
   93MOL   C15438978   7.469   3.346   0.771 -0.5353  0.3849  0.6945
   93MOL   C15538979   7.270   3.378   0.897  0.4530  0.0403  0.3479
   93MOL   H15638980   7.711   3.479   1.109 -1.0490 -1.6741  1.0478
   93MOL   H15738981   7.666   3.496   0.942 -0.2144 -1.6078  0.4220
   93MOL   H15838982   7.413   3.484   1.083 -0.9899 -0.3407 -0.3875
   93MOL   H15938983   7.447   3.240   1.095 -2.7984  0.1036 -1.5501
   93MOL   H16038984   7.582   3.249   0.986  0.8106 -1.0620  1.4580
   93MOL   H16138985   7.308   3.132   0.771 -1.0669 -1.3007  0.6431
   93MOL   H16238986   7.457   3.089   0.851 -0.8586 -1.8350 -0.9158
   93MOL   H16338987   7.299   3.110   0.944  0.9194  0.0941  0.4506
   93MOL   H16438988   7.413   3.342   0.678  2.2611  2.2625 -1.1219
   93MOL   H16538989   7.564   3.300   0.745 -1.0261  0.0461 -0.5218
   93MOL   H16638990   7.503   3.449   0.785  0.5489 -0.0645  1.5079
   93MOL   H16738991   7.204   3.357   0.813  1.1857 -1.7494  0.1886
   93MOL   H16838992   7.211   3.341   0.981 -0.5236 -0.4238 -0.5334
   93MOL   H16938993   7.282   3.486   0.906 -0.3958 -0.0841  3.5044
   93MOL   C17038994   7.528   3.413   1.246 -0.6893  0.4386  0.3606
   93MOL   C17138995   7.392   3.409   1.324  0.2559  0.9134  0.4323
   93MOL   C17238996   7.335   3.552   1.357  0.2899  0.0711 -0.4936
   93MOL   C17338997   7.178   3.571   1.364  0.4086  0.1670  0.3639
   93MOL   C17438998   7.142   3.724   1.380 -0.3003 -0.1663  0.5456
   93MOL   C17538999   7.113   3.501   1.483  0.1622 -0.5299  0.6148
   93MOL   C17639000   7.107   3.519   1.242  0.4274 -0.1084  0.2616
   93MOL   H17739001   7.584   3.492   1.297  0.0250  0.5015 -0.5090
   93MOL   H17839002   7.572   3.313   1.249  0.8195  1.1138  1.4081
   93MOL   H17939003   7.323   3.350   1.263 -1.1789  1.3981  1.5619
   93MOL   H18039004   7.387   3.601   1.440  1.5285 -0.0826 -1.1672
   93MOL   H18139005   7.362   3.621   1.277  2.3110 -0.2703 -0.1343
   93MOL   H18239006   7.203   3.775   1.305 -0.6652 -0.3186  0.1428
   93MOL   H18339007   7.036   3.747   1.369  0.3035  1.8122 -1.4982
   93MOL   H18439008   7.187   3.750   1.475  1.1200  0.9547 -0.4115
   93MOL   H18539009   7.145   3.397   1.481  0.5773 -0.4258 -3.1647
   93MOL   H18639010   7.155   3.543   1.574  0.2256  2.6450 -0.7943
   93MOL   H18739011   7.004   3.506   1.490  0.1910 -0.9932  1.4273
   93MOL   H18839012   7.005   3.552   1.222  0.7007  0.7214  0.2226
   93MOL   H18939013   7.166   3.555   1.158 -0.5774 -2.3125 -1.4419
   93MOL   H19039014   7.106   3.411   1.229 -2.0960  0.0897 -1.6092
   93MOL   C19139015   7.406   3.325   1.453 -0.7868 -0.1567  0.2254
   93MOL   C19239016   7.383   3.173   1.444  0.1824  0.2381  0.0231
   93MOL   C19339017   7.236   3.132   1.416  0.4332  0.2032  0.2410
   93MOL   C19439018   7.196   2.997   1.342  0.0927  0.3154 -0.4981
   93MOL   C19539019   7.040   2.988   1.331  1.0961  0.1483  0.0083
   93MOL   C19639020   7.241   2.876   1.422 -0.3277 -0.1428 -0.1375
   93MOL   C19739021   7.259   2.994   1.205  0.0051 -0.9475  1.3582
   93MOL   H19839022   7.511   3.327   1.481  0.0994 -1.6281 -2.7745
   93MOL   H19939023   7.356   3.363   1.542 -1.8328  2.4690 -1.4327
   93MOL   H20039024   7.448   3.144   1.361 -1.0283  0.9949 -1.1880
   93MOL   H20139025   7.205   3.203   1.340  0.1295  0.0445  0.2169
   93MOL   H20239026   7.183   3.138   1.511 -1.5762 -0.6006 -0.8052
   93MOL   H20339027   7.002   3.083   1.292  0.3332 -0.1238  0.0835
   93MOL   H20439028   7.002   2.917   1.257 -2.8434  0.3449  1.7387
   93MOL   H20539029   7.003   2.980   1.433  1.6416  3.0253  0.4753
   93MOL   H20639030   7.208   2.893   1.524 -0.1179  4.4056 -0.7133
   93MOL   H20739031   7.193   2.787   1.382 -4.1865  0.8919  1.9513
   93MOL   H20839032   7.349   2.869   1.433 -0.3028  2.0521  1.2317
   93MOL   H20939033   7.247   2.907   1.140  1.9025 -0.0537 -0.2674
   93MOL   H21039034   7.231   3.085   1.151 -2.5409 -1.8095  1.1578
   93MOL   H21139035   7.367   2.987   1.210  0.0784 -0.9565 -0.0474
   93MOL   C21239036   7.436   3.103   1.577 -0.9502 -0.0979 -0.1032
   93MOL   C21339037   7.590   3.081   1.586 -0.1640 -0.0170 -1.0023
   93MOL   C21439038   7.630   2.968   1.488  0.1186 -0.0275 -0.2024
   93MOL   C21539039   7.757   2.993   1.407  0.6683  0.2123  0.2249
   93MOL   C21639040   0.025   2.874   1.320 -0.3399 -0.3868  0.2878
   93MOL   C21739041   7.728   3.101   1.310  0.0563 -0.1220 -0.3271
   93MOL   C21839042   0.126   3.022   1.480  0.3509  0.0323  0.2003
   93MOL   H21939043   7.416   3.170   1.661  0.8796  0.1695  0.1398
   93MOL   H22039044   7.393   3.005   1.599  1.8536 -1.0988  1.1554
   93MOL   H22139045   7.638   3.174   1.558 -1.4406  1.8320  2.6836
   93MOL   H22239046   7.550   2.948   1.417  2.6311 -0.4656 -2.9753
   93MOL   H22339047   7.633   2.876   1.546  2.1443 -0.0618 -0.3356
   93MOL   H22439048   0.115   2.882   1.260 -0.3602 -0.7426  0.2048
   93MOL   H22539049   7.702   2.854   1.259 -0.5269 -2.4056  1.1563
   93MOL   H22639050   0.047   2.785   1.380  3.0368  0.5306  0.4883
   93MOL   H22739051   0.037   3.113   1.233 -0.0309 -0.4031 -0.4563
   93MOL   H22839052   7.639   3.071   1.254  0.3292 -0.5761 -0.5135
   93MOL   H22939053   7.710   3.201   1.351  0.8782  0.6342 -1.8059
   93MOL   H23039054   0.163   2.935   1.534 -0.5998  0.0222  0.8581
   93MOL   H23139055   0.122   3.099   1.558  0.3292 -0.0016  0.2329
   93MOL   H23239056   0.202   3.065   1.415  1.1758 -0.7784  0.6135
   93MOL   C23339057   7.649   3.048   1.726  0.3158  0.3602  0.8405
   93MOL   C23439058   7.633   3.154   1.838 -0.4119 -1.1435  0.8945
   93MOL   C23539059   7.680   3.093   1.977 -0.0382  0.2240  0.0843
   93MOL   C23639060   7.575   3.027   2.058 -0.0031  0.4704 -0.5234
   93MOL   C23739061   7.481   2.945   1.983 -0.5056  1.0762  0.0074
   93MOL   C23839062   7.634   2.935   2.161  0.3830  0.6446 -0.5888
   93MOL   C23939063   7.499   3.135   2.137  0.3096  0.1537  0.4407
   93MOL   H24039064   7.750   3.010   1.712  0.5741  1.0407  0.8024
   93MOL   H24139065   7.594   2.961   1.763 -0.9275  0.0233 -1.6932
   93MOL   H24239066   7.529   3.186   1.848 -0.3967 -0.5186 -0.8770
   93MOL   H24339067   0.009   3.041   1.968  1.1050  1.6851  3.2137
   93MOL   H24439068   7.722   3.170   2.041  1.4816 -1.3594  1.0059
   93MOL   H24539069   7.533   2.860   1.939 -1.3573  0.4675  0.1681
   93MOL   H24639070   7.434   2.992   1.897  0.9623  0.3227 -1.2387
   93MOL   H24739071   7.408   2.898   2.049  0.6155 -0.3896  0.2430
   93MOL   H24839072   7.711   2.864   2.132 -0.6793 -0.0800 -1.6827
   93MOL   H24939073   7.694   2.992   2.232  1.3700 -0.1181 -0.8040
   93MOL   H25039074   7.555   2.878   2.210  0.3483  0.0842 -1.3007
   93MOL   H25139075   7.450   3.101   2.229  2.1253 -0.5170  1.1783
   93MOL   H25239076   7.572   3.199   2.186 -0.8602 -0.2250  2.7723
   93MOL   H25339077   7.427   3.185   2.072  0.7679  2.1104  1.3766
   93MOL   C25439078   7.730   3.271   1.793 -0.8921 -0.1450 -0.5251
   93MOL   C25539079   7.716   3.403   1.857  0.3708 -0.1171  0.7166
   93MOL   C25639080   7.591   3.475   1.795  0.5470  0.1387  0.0321
   93MOL   C25739081   7.497   3.560   1.886  0.1154 -0.2612 -0.6776
   93MOL   C25839082   7.379   3.621   1.799 -0.1218 -0.1196  0.1414
   93MOL   C25939083   7.568   3.687   1.945 -0.2314 -0.3349  0.7296
   93MOL   C26039084   7.432   3.487   2.004  0.6278  0.2158  0.9325
   93MOL   H26139085   7.720   3.292   1.687 -2.5251 -4.6835 -1.3578
   93MOL   H26239086   0.061   3.227   1.819  0.6823  3.6795  0.3972
   93MOL   H26339087   7.708   3.387   1.965  1.3295 -0.3404  0.7596
   93MOL   H26439088   7.626   3.526   1.705  1.7224  0.0205  0.4150
   93MOL   H26539089   7.529   3.402   1.742 -0.6431  1.4733 -0.4410
   93MOL   H26639090   7.326   3.696   1.857  0.2028 -0.8355  1.3934
   93MOL   H26739091   7.304   3.549   1.764  0.3555 -0.8026  0.4988
   93MOL   H26839092   7.413   3.664   1.705  0.9943 -1.9998 -0.3334
   93MOL   H26939093   7.634   3.725   1.866 -0.7795  0.4310  0.6363
   93MOL   H27039094   7.634   3.649   2.024 -0.0259 -0.2168  0.6166
   93MOL   H27139095   7.494   3.754   1.987 -2.0928 -3.6054  2.8799
   93MOL   H27239096   7.493   3.457   2.089  0.0513 -0.3573  1.1529
   93MOL   H27339097   7.360   3.553   2.053 -0.3659 -0.2608  0.1392
   93MOL   H27439098   7.375   3.395   1.990  1.2589 -0.1739  0.9073
   93MOL   C27539099   0.077   3.486   1.829 -0.0111 -0.6576 -0.0312
   93MOL   C27639100   0.207   3.450   1.907  0.0676 -0.6025 -0.1412
   93MOL   C27739101   0.333   3.491   1.831  0.0383 -0.4390 -0.6858
   93MOL   C27839102   0.393   3.390   1.725 -0.0431  0.4043 -0.3963
   93MOL   C27939103   0.427   3.251   1.789  0.8330  0.1064  0.1661
   93MOL   C28039104   0.294   3.364   1.607  0.0838  0.5302  0.4651
   93MOL   C28139105   0.516   3.464   1.670  0.1934  0.1132 -0.7445
   93MOL   H28239106   0.102   3.478   1.723 -1.4099  0.5139 -0.4589
   93MOL   H28339107   0.060   3.593   1.832  0.9097 -0.3639 -3.0539
   93MOL   H28439108   0.210   3.342   1.916  0.3178 -0.8666 -3.1414
   93MOL   H28539109   0.408   3.508   1.908  0.8325 -3.5343 -0.7167
   93MOL   H28639110   0.324   3.590   1.786 -0.7633 -0.1460  0.1098
   93MOL   H28739111   0.472   3.192   1.709  0.0761  0.1668 -0.3116
   93MOL   H28839112   0.500   3.262   1.869  2.0770  1.7391 -1.1811
   93MOL   H28939113   0.338   3.199   1.825  0.6156  0.3392 -0.0396
   93MOL   H29039114   0.268   3.463   1.568  2.8688  1.3713  0.5960
   93MOL   H29139115   0.214   3.309   1.656 -1.0607  0.5255 -1.3786
   93MOL   H29239116   0.329   3.307   1.521  0.0470  0.1443  0.7045
   93MOL   H29339117   0.596   3.461   1.743  0.3565  1.2678 -0.8643
   93MOL   H29439118   0.487   3.565   1.640  2.1468  1.0150  0.3054
   93MOL   H29539119   0.557   3.423   1.578  1.9169  2.5054 -1.0880
   93MOL   C29639120   0.195   3.526   2.043 -0.3516  0.3484  0.4016
   93MOL   C29739121   0.254   3.463   2.172  0.0032  0.2983 -0.8512
   93MOL   C29839122   0.189   3.329   2.208 -0.1056 -0.1547  0.7160
   93MOL   C29939123   0.280   3.214   2.273  1.1524 -0.1520  0.2597
   93MOL   C30039124   0.369   3.163   2.162  0.7990  0.0195 -0.3008
   93MOL   C30139125   0.362   3.259   2.391  0.0023 -0.3680  0.1947
   93MOL   C30239126   0.185   3.104   2.315  0.3170 -0.1170  0.0482
   93MOL   H30339127   0.092   3.548   2.067 -0.2250  1.4925 -0.0846
   93MOL   H30439128   0.236   3.626   2.026  1.8791 -0.3833  1.2380
   93MOL   H30539129   0.360   3.436   2.166  0.5627  2.1715  0.1896
   93MOL   H30639130   0.142   3.288   2.119 -1.8634  0.9931  1.0869
   93MOL   H30739131   0.093   3.352   2.255 -0.1596  1.2445 -0.0593
   93MOL   H30839132   0.314   3.143   2.070  1.6652 -1.8346 -0.4397
   93MOL   H30939133   0.450   3.234   2.147 -0.8731  1.9011 -0.6155
   93MOL   H31039134   0.417   3.069   2.190  0.8959  0.3941  0.8208
   93MOL   H31139135   0.437   3.334   2.368 -0.8665  1.2755  2.4645
   93MOL   H31239136   0.296   3.301   2.467  0.5796  0.4031  0.2697
   93MOL   H31339137   0.418   3.178   2.438 -0.1758 -0.9821 -0.6519
   93MOL   H31439138   0.118   3.144   2.392 -0.0540 -1.7480  0.5984
   93MOL   H31539139   0.130   3.065   2.230  0.0600  1.8266 -0.6975
   93MOL   H31639140   0.240   3.018   2.354 -0.6560 -0.8588 -0.1893
   93MOL   C31739141   0.225   3.557   2.289 -0.0857 -0.0945  0.4932
   93MOL   C31839142   0.281   3.696   2.280  0.3154  0.1069  0.1604
   93MOL   C31939143   0.237   3.787   2.400  0.3871 -0.3802 -0.1330
   93MOL   C32039144   0.103   3.863   2.398 -0.2564  0.3637 -0.1471
   93MOL   C32139145   0.079   3.923   2.543  0.4056  0.8799 -0.5503
   93MOL   C32239146   7.754   3.764   2.367 -0.1082  0.5460 -0.2632
   93MOL   C32339147   0.116   3.978   2.293 -0.7026  0.4737  0.1468
   93MOL   H32439148   0.118   3.559   2.307  0.0375  2.5930  1.2163
   93MOL   H32539149   0.263   3.502   2.375 -2.2644 -2.9936 -0.3126
   93MOL   H32639150   0.250   3.746   2.188  1.3933 -0.1934 -0.3714
   93MOL   H32739151   0.308   3.869   2.412  0.3298 -0.3410 -0.0601
   93MOL   H32839152   0.237   3.724   2.489 -3.9964  1.4147  1.2630
   93MOL   H32939153   0.055   3.840   2.609  2.3170  0.4000 -0.4237
   93MOL   H33039154   7.763   3.995   2.548 -1.2190 -0.9865  0.9680
   93MOL   H33139155   0.164   3.971   2.589 -0.7220  0.6517  1.8325
   93MOL   H33239156   7.753   3.739   2.261 -0.2521  0.6865 -0.2952
   93MOL   H33339157   7.730   3.687   2.441 -0.3583  0.5914 -0.2973
   93MOL   H33439158   7.669   3.830   2.384 -0.4250  1.3778 -4.5524
   93MOL   H33539159   0.040   4.055   2.307 -1.7873 -0.6484  0.6362
   93MOL   H33639160   0.093   3.937   2.194  1.1449  0.5405 -0.3136
   93MOL   H33739161   0.212   4.019   2.263 -0.2529 -1.1420 -0.6727
   93MOL   C33839162   0.436   3.699   2.275  0.3047  0.0566 -0.4803
   93MOL   C33939163   0.500   3.818   2.202 -0.1159  0.5740  0.1586
   93MOL   C34039164   0.523   3.786   2.050  0.1276 -0.0733 -0.9224
   93MOL   C34139165   0.485   3.899   1.949  0.4141  0.0826  0.3630
   93MOL   C34239166   0.333   3.919   1.940  0.3157 -0.2701  0.8710
   93MOL   C34339167   0.565   4.033   1.965 -0.0432 -0.3402 -0.5297
   93MOL   C34439168   0.522   3.848   1.805 -0.0900  0.3760 -0.1234
   93MOL   H34539169   0.482   3.613   2.225  1.9746  0.1521  0.8497
   93MOL   H34639170   0.469   3.697   2.379 -2.2416  3.0340  0.4448
   93MOL   H34739171   0.432   3.902   2.218 -0.0678  0.5052  0.7628
   93MOL   H34839172   0.458   3.699   2.036 -0.8405  0.0239  2.3953
   93MOL   H34939173   0.623   3.751   2.027 -0.1798 -1.8291  0.2678
   93MOL   H35039174   0.297   3.833   1.884  1.4748 -0.3219  0.1833
   93MOL   H35139175   0.278   3.927   2.034 -0.5427 -4.0139  0.7406
   93MOL   H35239176   0.305   3.998   1.871 -0.3191 -0.1266  1.2893
   93MOL   H35339177   0.673   4.028   1.955  0.3027  1.4183  1.7075
   93MOL   H35439178   0.525   4.109   1.898  0.4350  0.9685  0.6607
   93MOL   H35539179   0.557   4.064   2.069 -0.1351  1.8105 -1.1621
   93MOL   H35639180   0.475   3.754   1.779  0.0467  0.2596  0.0488
   93MOL   H35739181   0.484   3.921   1.733 -4.2026 -1.5271  0.0035
   93MOL   H35839182   0.629   3.842   1.785 -0.2953 -0.7631 -0.8516
   93MOL   C35939183   0.635   3.869   2.266  0.7697  0.4520  0.2407
   93MOL   C36039184   0.629   3.936   2.404 -1.0575  0.1236  0.5062
   93MOL   C36139185   0.600   4.086   2.385  0.2147  0.3611  0.4703
   93MOL   C36239186   0.545   4.171   2.501 -0.0908 -0.4746 -0.0956
   93MOL   C36339187   0.517   4.317   2.459  0.2331  0.1231  0.1120
   93MOL   C36439188   0.646   4.184   2.618 -0.0878 -0.0490  0.4152
   93MOL   C36539189   0.417   4.124   2.560  0.2793 -0.7180 -0.6149
   93MOL   H36639190   0.678   3.938   2.193  0.0911  0.5596 -0.0594
   93MOL   H36739191   0.712   3.792   2.276 -0.1245 -0.1401  3.1581
   93MOL   H36839192   0.548   3.895   2.464 -1.2872  2.3686  1.7939
   93MOL   H36939193   0.697   4.127   2.357  0.1741 -0.0952 -0.3383
   93MOL   H37039194   0.542   4.101   2.294  0.5080 -0.7270  0.0946
   93MOL   H37139195   0.502   4.385   2.543 -0.7861  0.0863 -0.0346
   93MOL   H37239196   0.592   4.369   2.400  1.3642 -1.3713  0.2204
   93MOL   H37339197   0.429   4.322   2.395  0.5744  1.8988 -0.2382
   93MOL   H37439198   0.663   4.093   2.675 -0.1839 -0.3112  0.0322
   93MOL   H37539199   0.633   4.265   2.690 -1.2106 -0.5381  0.7673
   93MOL   H37639200   0.746   4.196   2.577  0.0460  0.0435  0.7695
   93MOL   H37739201   0.427   4.025   2.604 -1.5205 -1.3470 -1.5476
   93MOL   H37839202   0.334   4.128   2.489  0.0964  0.6734 -0.3248
   93MOL   H37939203   0.399   4.190   2.644  2.5018 -1.5090  0.5100
   93MOL   C38039204   0.757   3.906   2.481  0.1308  0.3034  0.1717
   93MOL   C38139205   0.734   3.775   2.558 -0.1756  0.7774 -0.5442
   93MOL   C38239206   0.640   3.790   2.679  0.6134  0.3720  0.0113
   93MOL   C38339207   0.573   3.667   2.744 -0.2361 -0.6888  0.4882
   93MOL   C38439208   0.444   3.704   2.801  0.2207 -0.5598  0.5327
   93MOL   C38539209   0.651   3.609   2.855 -0.4463  0.1454 -0.5755
   93MOL   C38639210   0.543   3.548   2.641 -0.4621  0.3262 -0.0701
   93MOL   H38739211   0.787   3.981   2.555 -0.9748  1.0680 -0.1423
   93MOL   H38839212   0.846   3.894   2.420 -2.1053 -1.2309 -2.9409
   93MOL   H38939213   0.696   3.698   2.491  2.1030 -0.1183 -0.8662
   93MOL   H39039214   0.688   3.843   2.761 -0.0380  0.2352  0.4846
   93MOL   H39139215   0.558   3.860   2.660  0.2825  0.0271  0.1686
   93MOL   H39239216   0.396   3.615   2.843 -0.0394 -0.5773  0.2053
   93MOL   H39339217   0.445   3.772   2.886 -0.1811 -0.2417  0.2845
   93MOL   H39439218   0.369   3.748   2.735 -0.4879 -0.1619  1.5865
   93MOL   H39539219   0.602   3.538   2.921  1.5149 -2.3770 -1.7495
   93MOL   H39639220   0.688   3.694   2.913 -1.4815  0.0527  0.2388
   93MOL   H39739221   0.741   3.551   2.834 -1.9496 -1.6140 -2.3150
   93MOL   H39839222   0.507   3.594   2.549 -0.9471 -0.1896 -0.1384
   93MOL   H39939223   0.467   3.474   2.662 -0.6254  1.0027  1.8293
   93MOL   H40039224   0.637   3.504   2.608 -2.2796 -1.3658 -3.1169
   93MOL   C40139225   0.872   3.725   2.608 -0.1423  0.6978 -0.3089
   93MOL   C40239226   0.965   3.815   2.688 -0.8794  0.1230 -0.8886
   93MOL   C40339227   1.106   3.768   2.696 -0.3488  0.0200  0.2813
   93MOL   C40439228   1.206   3.870   2.763 -0.6135 -0.0612 -0.0937
   93MOL   C40539229   1.211   4.001   2.677  0.1606  0.0181  0.3644
   93MOL   C40639230   1.352   3.819   2.759  0.4911 -0.4899  0.1257
   93MOL   C40739231   1.151   3.912   2.912 -0.2825 -0.4636  0.4719
   93MOL   H40839232   0.843   3.637   2.666 -1.1173 -0.3214 -2.3110
   93MOL   H40939233   0.929   3.679   2.527  1.2089  1.4377  0.2085
   93MOL   H41039234   0.973   3.918   2.654  1.9147 -0.1889 -1.3319
   93MOL   H41139235   1.150   3.743   2.600  1.3263  0.2275  0.9776
   93MOL   H41239236   1.105   3.678   2.757 -0.2255  0.5947  1.1347
   93MOL   H41339237   1.119   4.058   2.683  1.3394  2.0414 -0.3351
   93MOL   H41439238   1.223   3.978   2.571  0.3084 -0.2482  0.4370
   93MOL   H41539239   1.292   4.069   2.705 -0.3939  0.7453  0.2203
   93MOL   H41639240   1.386   3.798   2.658  1.2822  1.0801  0.0513
   93MOL   H41739241   1.363   3.725   2.813  1.1816  0.8266  2.3556
   93MOL   H41839242   1.416   3.886   2.817  0.0079  2.2233 -2.3794
   93MOL   H41939243   1.061   3.973   2.903 -1.2264 -1.9498 -0.3798
   93MOL   H42039244   1.120   3.827   2.973 -1.1543  0.7500  1.7338
   93MOL   H42139245   1.220   3.970   2.972  0.4711 -2.0693  1.1815
   93MOL   H42239246   0.939   3.811   2.794  2.2810 -1.9294 -0.1436
   94MOL     C139247   7.296   0.619   1.764  0.0281  0.4256 -0.3214
   94MOL     C239248   7.328   0.631   1.613 -0.7034  0.6919 -1.1200
   94MOL     C339249   7.481   0.664   1.596 -0.0729  0.7117 -0.2105
   94MOL     C439250   7.594   0.575   1.665  0.8916 -0.9022 -0.2690
   94MOL     C539251   7.620   0.602   1.817  0.2691  0.4194 -0.9874
   94MOL     C639252   7.549   0.430   1.641 -0.0730  0.6316 -0.2946
   94MOL     C739253   7.734   0.595   1.594 -0.2057  0.2060  0.3098
   94MOL     H839254   7.333   0.526   1.806  1.7173  0.7904 -0.9408
   94MOL     H939255   7.344   0.700   1.819 -0.9337  0.5160  0.4002
   94MOL    H1039256   7.315   0.533   1.566  3.3394 -0.9325  0.9278
   94MOL    H1139257   7.485   0.772   1.609  0.4975  0.7607 -0.8146
   94MOL    H1239258   7.495   0.666   1.488  0.6722 -2.3150 -0.2170
   94MOL    H1339259   7.690   0.529   1.856  0.7926  1.8965  0.9099
   94MOL    H1439260   7.529   0.601   1.878 -0.8981 -2.6440 -2.6470
   94MOL    H1539261   7.671   0.698   1.825 -0.1722  0.5325  0.8453
   94MOL    H1639262   7.503   0.417   1.543 -1.1856 -1.1113  0.4202
   94MOL    H1739263   7.645   0.378   1.652  0.6612  1.2249 -3.3052
   94MOL    H1839264   7.481   0.398   1.719  1.7711 -1.4614  0.5332
   94MOL    H1939265   0.031   0.513   1.629  1.1372  0.5750 -1.1728
   94MOL    H2039266   0.016   0.686   1.629  0.0467  0.5759 -0.9481
   94MOL    H2139267   7.723   0.595   1.485  3.5317  1.6656 -0.1686
   94MOL    H2239268   7.189   0.606   1.782 -0.1464  0.3943 -1.3483
   94MOL    C2339269   7.245   0.739   1.552  0.3311  0.5641  0.3839
   94MOL    C2439270   7.105   0.702   1.505  0.3437  0.2208 -0.0248
   94MOL    C2539271   7.118   0.604   1.384 -0.6456  0.6601 -0.0730
   94MOL    C2639272   7.017   0.484   1.370 -0.2673 -0.0281 -0.6267
   94MOL    C2739273   7.024   0.388   1.489  0.8600 -0.2369  0.4066
   94MOL    C2839274   6.873   0.534   1.346  0.7472 -1.2187  0.2336
   94MOL    C2939275   7.060   0.407   1.241 -0.2685  0.0079  0.3759
   94MOL    H3039276   7.245   0.829   1.613 -2.5189 -0.1296  1.4749
   94MOL    H3139277   7.288   0.772   1.458 -2.1451  1.7063 -0.3787
   94MOL    H3239278   7.067   0.642   1.586  0.0278 -2.1486 -1.8782
   94MOL    H3339279   7.214   0.555   1.397 -1.1908  0.0561  1.8659
   94MOL    H3439280   7.133   0.668   1.297  1.6125  1.6001  0.9987
   94MOL    H3539281   7.121   0.339   1.496  0.7508 -0.4228  0.6419
   94MOL    H3639282   7.009   0.435   1.586  1.2552  0.8205 -0.0440
   94MOL    H3739283   6.953   0.307   1.471 -0.1687  0.5736  0.7632
   94MOL    H3839284   6.880   0.597   1.257 -0.0480  1.4040  1.9654
   94MOL    H3939285   6.788   0.468   1.331  0.6317 -0.1987 -4.3629
   94MOL    H4039286   6.834   0.591   1.430 -1.5419  1.3080 -2.4119
   94MOL    H4139287   7.148   0.345   1.263 -0.6689 -0.5568  0.4012
   94MOL    H4239288   7.077   0.481   1.163  1.2457  2.3493  2.8164
   94MOL    H4339289   6.993   0.326   1.211  1.2594 -1.3828  0.6169
   94MOL    C4439290   7.014   0.818   1.478 -0.6716 -0.2250 -0.0486
   94MOL    C4539291   6.957   0.895   1.593  0.5028  0.4114  0.8886
   94MOL    C4639292   6.819   0.837   1.640  0.0893  0.4699 -0.1654
   94MOL    C4739293   6.786   0.835   1.789  0.5373  0.0571 -0.0966
   94MOL    C4839294   6.893   0.748   1.865 -0.5599  0.4532 -1.0518
   94MOL    C4939295   6.653   0.757   1.805  0.0389 -0.2899 -0.2145
   94MOL    C5039296   6.769   0.962   1.860 -0.1419  0.4083 -0.6872
   94MOL    H5139297   7.080   0.886   1.425 -2.0306  0.9936 -0.2241
   94MOL    H5239298   6.941   0.788   1.404 -1.8261 -0.3329  1.1112
   94MOL    H5339299   7.024   0.894   1.679  1.7489 -0.7683 -0.0778
   94MOL    H5439300   6.834   0.731   1.620  0.4283  0.2336  1.2660
   94MOL    H5539301   6.740   0.876   1.576 -1.5206 -0.9935  0.8960
   94MOL    H5639302   6.996   0.782   1.864 -0.6863  0.8612 -0.5343
   94MOL    H5739303   6.883   0.644   1.835 -1.5977  0.3960 -0.5230
   94MOL    H5839304   6.872   0.749   1.972 -0.4158  1.4772 -1.0316
   94MOL    H5939305   6.637   0.658   1.763 -1.8167 -0.1313  0.0705
   94MOL    H6039306   6.636   0.747   1.912  2.1552  0.2520  0.2092
   94MOL    H6139307   6.568   0.817   1.772 -0.2464 -0.9090 -0.6093
   94MOL    H6239308   6.719   1.036   1.797 -2.4182 -2.3322 -2.2238
   94MOL    H6339309   6.705   0.970   1.948 -0.6859 -0.0483 -1.0374
   94MOL    H6439310   6.864   1.003   1.894  0.0684  1.5367 -2.5888
   94MOL    C6539311   6.929   1.043   1.544 -0.2584  0.6477 -0.2322
   94MOL    C6639312   7.068   1.124   1.531 -0.4177 -0.8615  0.1752
   94MOL    C6739313   7.071   1.243   1.625  0.1556  0.0939 -0.0559
   94MOL    C6839314   7.179   1.238   1.734 -0.5236  0.0975  0.2687
   94MOL    C6939315   7.188   1.109   1.820  0.0671  0.4447  0.3382
   94MOL    C7039316   7.323   1.260   1.677 -0.0358 -0.1145  0.6575
   94MOL    C7139317   7.149   1.346   1.841 -0.0589 -0.3536  0.5995
   94MOL    H7239318   6.873   1.031   1.451  1.4816 -0.6453 -1.1549
   94MOL    H7339319   6.860   1.102   1.605 -1.6345 -0.5371 -0.6140
   94MOL    H7439320   7.150   1.059   1.562 -0.4199  0.3633  2.8588
   94MOL    H7539321   6.975   1.248   1.675 -0.7537  1.4190 -1.8657
   94MOL    H7639322   7.074   1.335   1.566  0.4754 -0.1419 -0.4089
   94MOL    H7739323   7.086   1.071   1.831  0.4915 -1.6057 -2.2505
   94MOL    H7839324   7.234   1.032   1.758  1.9343  2.3218 -0.6536
   94MOL    H7939325   7.211   1.119   1.926 -0.9856  2.6998  0.3833
   94MOL    H8039326   7.370   1.175   1.627  1.3776  1.3874 -0.6030
   94MOL    H8139327   7.385   1.287   1.762  0.0331  1.0643  0.2461
   94MOL    H8239328   7.318   1.346   1.610 -4.1171 -1.6675 -1.2092
   94MOL    H8339329   7.051   1.326   1.886 -1.2783  0.4246 -1.6170
   94MOL    H8439330   7.142   1.444   1.793  0.5671  0.3090  1.8400
   94MOL    H8539331   7.235   1.351   1.907 -0.7163  0.5292  1.3998
   94MOL    C8639332   7.089   1.166   1.385 -0.6495  1.0256 -0.3082
   94MOL    C8739333   7.238   1.186   1.341 -0.7054 -0.3243 -0.1766
   94MOL    C8839334   7.237   1.283   1.215  0.6315 -0.5036  0.5013
   94MOL    C8939335   7.253   1.436   1.222  0.2811 -0.3102 -0.9137
   94MOL    C9039336   7.139   1.504   1.299 -0.6202 -1.0035 -0.0565
   94MOL    C9139337   7.259   1.489   1.077  0.0421  0.4759  0.4130
   94MOL    C9239338   7.387   1.477   1.281  0.2663 -0.0117 -0.0153
   94MOL    H9339339   7.034   1.259   1.374  0.4408  1.5699 -1.2788
   94MOL    H9439340   7.042   1.108   1.306  0.9689  0.6053 -0.9936
   94MOL    H9539341   7.294   1.222   1.427  1.8343 -0.8548 -1.5371
   94MOL    H9639342   7.152   1.247   1.156  1.4292  1.4866 -1.9311
   94MOL    H9739343   7.314   1.249   1.145 -1.1886 -0.9416 -1.3558
   94MOL    H9839344   7.047   1.480   1.246 -0.0472  0.9841 -2.0440
   94MOL    H9939345   7.150   1.611   1.316 -0.1746 -0.5077 -3.0213
   94MOL   H10039346   7.135   1.457   1.397  1.4635 -0.8134  0.1524
   94MOL   H10139347   7.353   1.460   1.030  0.5033 -1.0744  2.2134
   94MOL   H10239348   7.165   1.458   1.031 -0.0610 -0.8893  1.4727
   94MOL   H10339349   7.260   1.598   1.078 -1.0038  0.5056 -0.8755
   94MOL   H10439350   7.392   1.585   1.296  2.1487 -0.0083 -0.5021
   94MOL   H10539351   7.403   1.427   1.376 -0.8209  0.2170  0.2974
   94MOL   H10639352   7.470   1.448   1.216 -0.4711 -0.4665 -0.7613
   94MOL   C10739353   7.298   1.048   1.298  0.3908 -0.3596  1.0235
   94MOL   C10839354   7.450   1.035   1.267 -0.1684  0.6285  0.6375
   94MOL   C10939355   7.522   0.996   1.396 -0.3243  0.0868  0.0992
   94MOL   C11039356   7.666   1.060   1.417  0.5706 -0.4122 -0.2369
   94MOL   C11139357   7.758   1.027   1.310  0.5744  0.7267 -0.2089
   94MOL   C11239358   7.736   0.997   1.540 -0.7157 -0.0705 -0.5302
   94MOL   C11339359   7.656   1.212   1.434 -0.4456  0.0680  0.0472
   94MOL   H11439360   7.241   1.035   1.206  3.0005 -4.4144 -0.1528
   94MOL   H11539361   7.265   0.979   1.376  0.2341 -0.9159  0.4684
   94MOL   H11639362   7.486   1.131   1.228 -1.7508  0.8285 -0.4014
   94MOL   H11739363   7.463   1.026   1.483 -0.7365  1.6341 -0.6974
   94MOL   H11839364   7.547   0.890   1.403  1.5972  0.5414  0.3032
   94MOL   H11939365   7.762   0.918   1.310 -1.2996  0.6363 -0.7613
   94MOL   H12039366   7.719   1.054   1.212 -2.5664 -1.3414  0.3724
   94MOL   H12139367   0.098   1.046   1.323  1.1649 -0.7720 -2.4096
   94MOL   H12239368   7.665   0.998   1.623 -0.8592  0.1477 -0.6567
   94MOL   H12339369   0.061   1.053   1.563  0.5817 -1.3668 -2.4464
   94MOL   H12439370   7.754   0.890   1.531  0.1641 -0.2119  2.1735
   94MOL   H12539371   7.749   1.261   1.462 -0.4228 -0.0979  0.2650
   94MOL   H12639372   7.595   1.237   1.521  1.1915  1.0099  0.9467
   94MOL   H12739373   7.614   1.260   1.346 -0.1515  1.0810  0.4584
   94MOL   C12839374   7.459   0.930   1.156 -0.1973  0.7262  0.3914
   94MOL   C12939375   7.432   0.966   1.011 -0.2475  0.0299  0.5822
   94MOL   C13039376   7.554   1.041   0.961  0.0198 -0.2817 -0.2530
   94MOL   C13139377   7.546   1.136   0.827  0.2951  0.3817 -0.0508
   94MOL   C13239378   7.463   1.258   0.855  0.2379  0.1758 -0.5416
   94MOL   C13339379   7.496   1.060   0.703  0.4611  0.2571 -0.3572
   94MOL   C13439380   7.689   1.191   0.799  0.2241 -0.0065  0.1201
   94MOL   H13539381   7.407   0.839   1.185  2.2774 -1.5409 -2.0603
   94MOL   H13639382   7.565   0.906   1.157 -0.1529  0.9369  1.5303
   94MOL   H13739383   7.347   1.034   1.015 -0.6586 -0.5091  1.0553
   94MOL   H13839384   7.589   1.101   1.045 -2.0470 -1.2894  1.3793
   94MOL   H13939385   7.632   0.968   0.944 -1.2853 -1.6414 -0.5642
   94MOL   H14039386   7.482   1.334   0.780  0.2325  1.3213  0.6012
   94MOL   H14139387   7.496   1.300   0.950 -0.4332  0.0110 -0.2328
   94MOL   H14239388   7.356   1.237   0.863  0.1989  0.6210  0.2270
   94MOL   H14339389   7.388   1.053   0.711  0.5843 -1.9838 -0.4439
   94MOL   H14439390   7.541   0.962   0.692  1.4730  0.6501  0.1580
   94MOL   H14539391   7.515   1.115   0.610  2.2337 -1.3794 -0.9805
   94MOL   H14639392   7.759   1.115   0.764  0.8450  0.9363 -0.7085
   94MOL   H14739393   7.694   1.289   0.751 -0.1990  0.2064  0.4983
   94MOL   H14839394   7.731   1.221   0.895 -0.5092  0.8054  0.2013
   94MOL   C14939395   7.407   0.835   0.932 -0.2857 -0.1138 -0.5570
   94MOL   C15039396   7.273   0.769   0.937 -0.0357 -0.5138  0.1970
   94MOL   C15139397   7.159   0.859   0.885  0.0704 -0.7911  0.1660
   94MOL   C15239398   7.014   0.838   0.952 -0.3781 -0.0904  0.0983
   94MOL   C15339399   6.908   0.901   0.854  0.0748 -0.3906  0.2116
   94MOL   C15439400   7.005   0.908   1.088  0.5783 -0.4752  0.1016
   94MOL   C15539401   6.979   0.696   0.969 -0.4170  0.9582  0.0677
   94MOL   H15639402   7.474   0.756   0.965 -1.3517 -1.7379 -2.2083
   94MOL   H15739403   7.424   0.856   0.826  2.9073  0.8629  0.1031
   94MOL   H15839404   7.254   0.751   1.043 -1.6853 -1.1715 -0.2056
   94MOL   H15939405   7.150   0.852   0.776  3.3443  1.8941 -0.3710
   94MOL   H16039406   7.195   0.960   0.903  0.2828 -0.6962 -0.7535
   94MOL   H16139407   6.908   0.861   0.752 -0.7139 -1.4985  0.6310
   94MOL   H16239408   6.809   0.902   0.901  0.4763  1.4641  1.0483
   94MOL   H16339409   6.931   1.006   0.835 -2.1773  0.4035  1.6181
   94MOL   H16439410   7.026   1.014   1.072 -1.4033  0.2231  1.9620
   94MOL   H16539411   7.069   0.872   1.168 -2.0627 -0.1739  2.4249
   94MOL   H16639412   6.903   0.902   1.125  1.4168  1.1334  2.8815
   94MOL   H16739413   6.992   0.632   0.881 -2.4856  3.1760 -1.9063
   94MOL   H16839414   7.036   0.663   1.056 -2.6688 -0.3845  1.0652
   94MOL   H16939415   6.873   0.692   0.992 -0.3840  2.9388  0.5992
   94MOL   C17039416   7.289   0.620   0.885  0.1415 -0.4797  0.0283
   94MOL   C17139417   7.342   0.600   0.742 -0.3524 -0.0426 -0.1359
   94MOL   C17239418   7.228   0.605   0.629  0.1461 -0.4994 -0.0049
   94MOL   C17339419   7.261   0.663   0.491 -0.3136 -0.1561 -0.1706
   94MOL   C17439420   7.368   0.591   0.411 -0.2334 -0.1674  0.1184
   94MOL   C17539421   7.289   0.815   0.505 -0.2146 -0.3059  0.1464
   94MOL   C17639422   7.129   0.638   0.420  0.1694 -0.3634  0.3398
   94MOL   H17739423   7.189   0.576   0.878 -0.9573  2.0546 -1.2883
   94MOL   H17839424   7.335   0.569   0.969 -0.3271 -0.7875  0.1042
   94MOL   H17939425   7.416   0.671   0.706  0.4385 -0.5026  0.5796
   94MOL   H18039426   7.202   0.499   0.624 -0.2022 -0.4238  0.1781
   94MOL   H18139427   7.137   0.647   0.672  0.2566  1.5656 -1.6891
   94MOL   H18239428   7.460   0.600   0.469  0.5976  1.2518 -1.3798
   94MOL   H18339429   7.359   0.482   0.401  3.0506 -0.4568 -0.1127
   94MOL   H18439430   7.382   0.638   0.314 -0.3740  2.4283  1.3345
   94MOL   H18539431   7.204   0.871   0.544 -1.0951 -0.9731 -0.7858
   94MOL   H18639432   7.380   0.833   0.562  0.2878  0.6916 -0.9556
   94MOL   H18739433   7.310   0.865   0.411 -0.8940 -1.8848 -0.8711
   94MOL   H18839434   7.104   0.535   0.394  1.3803 -0.5431 -0.1446
   94MOL   H18939435   7.046   0.682   0.475  0.6580  0.1901  0.6420
   94MOL   H19039436   7.137   0.676   0.318 -0.8125 -1.0302  0.0021
   94MOL   C19139437   7.413   0.466   0.741  0.4172  0.7241  0.7104
   94MOL   C19239438   7.564   0.461   0.797 -0.7468  0.9417 -0.5743
   94MOL   C19339439   7.660   0.534   0.696 -0.3446 -0.0077 -0.1096
   94MOL   C19439440   0.019   0.603   0.762 -0.3572  0.3556  0.8585
   94MOL   C19539441   0.116   0.492   0.811 -0.1017 -0.3125  0.4648
   94MOL   C19639442   7.754   0.712   0.867 -0.6404 -0.0373  0.2669
   94MOL   C19739443   0.088   0.665   0.639 -0.1802  0.7299 -0.2628
   94MOL   H19839444   7.353   0.401   0.805  2.0861 -0.8147  0.7443
   94MOL   H19939445   7.421   0.423   0.641  1.1360 -2.0995  1.9265
   94MOL   H20039446   7.557   0.518   0.891  1.8143 -1.3856  1.0939
   94MOL   H20139447   7.604   0.607   0.638  1.0306  0.1691 -1.2424
   94MOL   H20239448   7.700   0.458   0.628  0.1842  1.1195 -1.0638
   94MOL   H20339449   0.129   0.420   0.730  0.5880  0.7883 -0.4141
   94MOL   H20439450   0.212   0.538   0.836 -0.3918  0.5404  0.0072
   94MOL   H20539451   0.076   0.449   0.903 -0.8960 -3.6397 -1.3596
   94MOL   H20639452   7.714   0.674   0.961  1.2666  2.3501  2.1143
   94MOL   H20739453   0.084   0.755   0.895 -1.0096  0.1255  1.3160
   94MOL   H20839454   7.691   0.794   0.832  1.4607  1.1302 -0.8929
   94MOL   H20939455   0.174   0.726   0.669  0.3275 -1.5449  3.2162
   94MOL   H21039456   0.129   0.592   0.570 -0.7555 -1.4116  1.6132
   94MOL   H21139457   0.012   0.729   0.593  0.1058  0.2033 -1.4808
   94MOL   C21239458   7.595   0.311   0.830  0.0579 -0.1619 -0.1595
   94MOL   C21339459   7.530   0.240   0.958  0.3280  0.1309 -0.5027
   94MOL   C21439460   7.622   0.276   1.086 -0.3345 -0.0058 -0.1741
   94MOL   C21539461   7.564   0.287   1.224  0.2852 -0.2193  0.0688
   94MOL   C21639462   7.469   0.412   1.243  0.1415  0.4711  0.8532
   94MOL   C21739463   7.495   0.159   1.275  0.0969 -0.4244  0.0833
   94MOL   C21839464   7.691   0.317   1.305  0.0416  0.1104 -0.2442
   94MOL   H21939465   7.575   0.264   0.733 -0.3736  0.5862 -0.4447
   94MOL   H22039466   7.702   0.296   0.843  0.1664 -1.8856 -2.7396
   94MOL   H22139467   7.435   0.289   0.983  0.0306 -1.1134  0.8576
   94MOL   H22239468   7.669   0.374   1.075 -0.9962  0.2356 -0.8567
   94MOL   H22339469   7.697   0.197   1.083 -1.0445 -0.6690 -0.4843
   94MOL   H22439470   7.378   0.395   1.186  0.4104 -2.3751  1.2380
   94MOL   H22539471   7.526   0.502   1.218 -1.4614  1.3771  0.3496
   94MOL   H22639472   7.434   0.430   1.345  2.7049  0.4283  1.7549
   94MOL   H22739473   7.472   0.181   1.379  3.1106 -1.8385  1.1150
   94MOL   H22839474   7.406   0.148   1.214 -1.0836  0.4923  1.6005
   94MOL   H22939475   7.560   0.073   1.257  0.0442 -0.5296  0.4053
   94MOL   H23039476   7.732   0.416   1.285  0.7969  0.2195  1.7877
   94MOL   H23139477   0.013   0.254   1.294  0.6031  0.5050  1.7475
   94MOL   H23239478   7.666   0.309   1.411 -1.4810 -0.7362 -0.6502
   94MOL   C23339479   7.519   0.084   0.950 -0.0879 -0.0221 -0.0410
   94MOL   C23439480   7.397   0.021   0.885  0.3504  0.2678 -0.1458
   94MOL   C23539481   7.419   7.637   0.870  0.2845  0.0131 -0.0092
   94MOL   C23639482   7.514   7.577   0.760  0.4579 -0.4698 -0.8753
   94MOL   C23739483   7.497   7.425   0.757  0.3430  0.5527  0.0722
   94MOL   C23839484   7.467   7.631   0.621 -0.8040  0.0545  0.2904
   94MOL   C23939485   7.659   7.617   0.773  0.6723  0.3068  0.3622
   94MOL   H24039486   7.524   0.037   1.048  3.5146 -1.1407 -0.6857
   94MOL   H24139487   7.610   0.056   0.898 -0.7959  1.6276 -2.2526
   94MOL   H24239488   7.367   0.074   0.795 -1.0828  1.3420  0.9370
   94MOL   H24339489   7.446   7.587   0.964  1.8174 -1.3716 -1.1437
   94MOL   H24439490   7.325   7.598   0.831  0.2653  1.7663 -1.8008
   94MOL   H24539491   7.520   7.389   0.657 -1.2713  4.6157 -1.9096
   94MOL   H24639492   7.399   7.393   0.793  0.0963  1.3228  0.1074
   94MOL   H24739493   7.562   7.371   0.824 -0.5145  0.6351  0.9817
   94MOL   H24839494   7.387   7.573   0.577 -1.2046  0.6061  0.2886
   94MOL   H24939495   7.426   7.731   0.607 -0.1847  1.4375  6.8144
   94MOL   H25039496   7.543   7.616   0.545 -1.9671 -1.8714 -0.5235
   94MOL   H25139497   7.740   7.550   0.743  0.4409  0.3804 -0.4353
   94MOL   H25239498   7.682   7.714   0.728 -0.4172 -0.9566 -3.0568
   94MOL   H25339499   7.681   7.620   0.880  2.7707 -0.5993 -0.0175
   94MOL   C25439500   7.277   0.050   0.979  1.2040 -0.7432 -0.6909
   94MOL   C25539501   7.129   0.018   0.933 -0.5486  0.1596  0.0514
   94MOL   C25639502   7.076   0.119   0.831 -0.0657 -0.6263 -0.1395
   94MOL   C25739503   7.000   0.065   0.705  0.2427 -0.7352 -0.6740
   94MOL   C25839504   6.870   7.748   0.738 -0.0764 -0.1727 -0.1939
   94MOL   C25939505   7.094   7.750   0.608  0.8997 -0.3174 -0.1504
   94MOL   C26039506   6.953   0.192   0.628  0.7695 -0.1608 -0.2001
   94MOL   H26139507   7.274   0.147   1.028  2.3156 -1.1880  0.3073
   94MOL   H26239508   7.302   7.748   1.061 -0.4873 -0.1805  0.3116
   94MOL   H26339509   7.130   7.692   0.875 -0.3502  0.1877  0.0093
   94MOL   H26439510   7.013   0.185   0.890 -1.7356 -1.7580 -0.6123
   94MOL   H26539511   7.154   0.183   0.790  2.4629 -2.7084  1.2627
   94MOL   H26639512   6.823   7.703   0.651  1.8224 -0.0427 -1.3153
   94MOL   H26739513   6.792   0.049   0.775  1.4687  1.9223 -0.6352
   94MOL   H26839514   6.884   7.665   0.807 -3.2925 -1.0324 -0.4947
   94MOL   H26939515   7.180   0.047   0.586  0.2139  0.4916 -0.5207
   94MOL   H27039516   7.051   7.728   0.510 -0.8934 -0.3976  0.6235
   94MOL   H27139517   7.124   7.654   0.650 -0.1522 -0.8742 -0.6391
   94MOL   H27239518   7.036   0.257   0.599 -0.1503  0.8971 -0.4805
   94MOL   H27339519   6.891   0.180   0.539 -1.8084  0.2608  1.4938
   94MOL   H27439520   6.890   0.251   0.693 -1.3157 -1.1477 -1.2773
   94MOL   C27539521   7.033   0.003   1.057 -0.6859 -0.7187  0.1688
   94MOL   C27639522   7.055   7.640   1.139  0.1973 -0.2327  0.1391
   94MOL   C27739523   6.962   7.655   1.265 -0.2499 -0.5168  0.0864
   94MOL   C27839524   7.032   7.708   1.394 -0.3620  0.8567 -0.5927
   94MOL   C27939525   7.107   0.075   1.376  0.6328  0.0353 -0.0595
   94MOL   C28039526   6.925   7.736   1.502 -0.4924  0.6931 -1.0455
   94MOL   C28139527   7.125   7.591   1.439 -0.0434  0.5230 -0.4774
   94MOL   H28239528   7.047   0.093   1.117  2.1473 -1.2166  0.3334
   94MOL   H28339529   6.930   7.757   1.022 -0.3147 -2.2441 -0.4586
   94MOL   H28439530   7.157   7.629   1.174  0.8607  0.7627 -1.4565
   94MOL   H28539531   6.919   7.562   1.305  0.8509 -0.4565  1.4648
   94MOL   H28639532   6.870   7.700   1.230  1.2509  1.6167 -1.1894
   94MOL   H28739533   7.159   0.102   1.467  0.9464  2.6094 -0.9386
   94MOL   H28839534   7.187   0.080   1.301  0.7065  2.1950  0.1328
   94MOL   H28939535   7.032   0.153   1.367  0.1881  0.1206  3.7371
   94MOL   H29039536   6.952   7.694   1.598 -0.5753  3.1329  0.0787
   94MOL   H29139537   6.827   7.697   1.474  0.0221  0.3978 -2.5101
   94MOL   H29239538   6.917   0.074   1.535  0.1122  0.2322  0.5629
   94MOL   H29339539   7.069   7.498   1.444 -0.1417  0.7017  2.5007
   94MOL   H29439540   7.171   7.601   1.537 -1.4211  0.4516  0.1829
   94MOL   H29539541   7.218   7.596   1.382  1.1404  1.2517  1.4644
   94MOL   C29639542   7.015   7.524   1.052 -0.1491  0.2911  0.4536
   94MOL   C29739543   7.041   7.388   1.114  0.2164 -0.4517 -0.1199
   94MOL   C29839544   7.195   7.351   1.090  0.3194 -0.1902 -0.4800
   94MOL   C29939545   7.263   7.240   1.172  0.5440  0.2814  0.3299
   94MOL   C30039546   7.419   7.229   1.135 -0.5102 -0.1510 -0.3663
   94MOL   C30139547   7.264   7.268   1.322 -0.2230 -0.0481 -0.2729
   94MOL   C30239548   7.193   7.109   1.152  0.4361  0.3462 -0.1722
   94MOL   H30339549   7.067   7.521   0.957  1.5258  1.2308  1.3325
   94MOL   H30439550   6.907   7.534   1.040 -0.3330 -1.6260  0.3599
   94MOL   H30539551   7.026   7.385   1.222  2.4445  2.3005  0.2987
   94MOL   H30639552   7.242   7.448   1.107 -0.3274  0.1955 -0.8321
   94MOL   H30739553   7.200   7.333   0.983  0.2600  0.8233 -0.6557
   94MOL   H30839554   7.433   7.219   1.027 -1.6380 -3.4869 -0.2720
   94MOL   H30939555   7.483   7.308   1.174 -0.3446 -1.3430  1.8477
   94MOL   H31039556   7.455   7.131   1.168 -3.7547 -0.7827  1.4986
   94MOL   H31139557   7.288   7.371   1.349  1.1887 -0.7933  1.4133
   94MOL   H31239558   7.164   7.256   1.364 -0.2559 -1.2623 -0.6878
   94MOL   H31339559   7.324   7.202   1.384 -1.2245  1.3543  2.2863
   94MOL   H31439560   7.090   7.127   1.183 -0.2908  2.4696 -3.5586
   94MOL   H31539561   7.203   7.075   1.049  1.2340  0.5309 -0.1633
   94MOL   H31639562   7.242   7.027   1.206  0.3550 -0.1425 -0.8272
   94MOL   C31739563   6.938   7.292   1.036  0.1237 -0.2101 -0.2026
   94MOL   C31839564   6.822   7.216   1.114  0.9709 -0.1084 -1.1543
   94MOL   C31939565   6.755   7.281   1.233  0.4778 -0.2522 -0.2631
   94MOL   C32039566   6.767   7.222   1.377 -0.2764  1.3111 -0.5160
   94MOL   C32139567   6.703   7.329   1.470  0.3247 -0.2782  0.0536
   94MOL   C32239568   6.907   7.200   1.439 -0.4153  0.0765  0.7960
   94MOL   C32339569   6.698   7.084   1.408  0.2805 -0.0762  0.1559
   94MOL   H32439570   6.908   7.340   0.943  1.8967  1.7594  0.2108
   94MOL   H32539571   6.998   7.218   0.983  0.7787  1.5047 -1.9262
   94MOL   H32639572   6.869   7.126   1.154  1.4733  0.7354  0.1835
   94MOL   H32739573   6.653   7.309   1.209  0.3834  0.5400  1.0105
   94MOL   H32839574   6.805   7.378   1.234  1.5316 -0.7846 -0.4633
   94MOL   H32939575   6.600   7.343   1.437 -0.3035 -5.5979 -0.6129
   94MOL   H33039576   6.743   7.431   1.473 -1.0474  0.3171 -1.1407
   94MOL   H33139577   6.698   7.293   1.572 -2.2208 -1.2538 -0.3915
   94MOL   H33239578   6.973   7.145   1.372  0.9342  0.4182  1.8076
   94MOL   H33339579   6.958   7.295   1.459 -1.9325  0.9707  0.4760
   94MOL   H33439580   6.921   7.152   1.536  3.1311  0.5580  0.5754
   94MOL   H33539581   6.605   7.068   1.353  0.3961 -0.4273  0.0613
   94MOL   H33639582   6.686   7.060   1.514 -0.1509 -2.2645 -0.3556
   94MOL   H33739583   6.750   6.998   1.368  2.1104  1.5300 -0.9815
   94MOL   C33839584   6.710   7.164   1.021  0.1976  0.1361  0.2271
   94MOL   C33939585   6.746   7.105   0.881  0.3542  0.3953 -0.4740
   94MOL   C34039586   6.629   7.123   0.778  0.7508  0.5171  0.2960
   94MOL   C34139587   6.618   7.251   0.688  0.2770  0.7688  0.2295
   94MOL   C34239588   6.481   7.251   0.613 -0.1219  0.2916  0.1868
   94MOL   C34339589   6.626   7.377   0.779  0.0641 -0.4014  0.0803
   94MOL   C34439590   6.735   7.263   0.590  0.1072 -0.3892 -0.6117
   94MOL   H34539591   6.651   7.254   1.000  0.1378 -0.2322 -1.2020
   94MOL   H34639592   6.642   7.099   1.076  0.7299 -1.1655 -0.6288
   94MOL   H34739593   6.825   7.171   0.846 -0.6007  4.1385  3.9805
   94MOL   H34839594   6.536   7.117   0.834  0.5632  2.2761  0.2065
   94MOL   H34939595   6.648   7.041   0.709  1.0092  0.1776  0.7703
   94MOL   H35039596   6.460   7.336   0.548  1.0107 -0.0861 -0.7030
   94MOL   H35139597   6.491   7.157   0.560 -0.8821  0.7365 -0.7653
   94MOL   H35239598   6.395   7.252   0.680 -0.7486  0.4911 -0.6108
   94MOL   H35339599   6.602   7.469   0.726  0.4651 -1.0759 -1.2858
   94MOL   H35439600   6.555   7.355   0.859  0.5605  0.9221  0.9040
   94MOL   H35539601   6.721   7.391   0.830 -0.2816  1.4831  0.2438
   94MOL   H35639602   6.831   7.268   0.642  0.9526 -1.0743 -2.0818
   94MOL   H35739603   6.734   7.165   0.543 -0.2162 -0.0998 -1.2128
   94MOL   H35839604   6.721   7.346   0.520 -1.9844  0.8336  1.2013
   94MOL   C35939605   6.805   6.963   0.879 -0.3021 -0.1465  0.4778
   94MOL   C36039606   6.729   6.848   0.959  0.1011  0.1360  0.8153
   94MOL   C36139607   6.816   6.720   0.968 -0.2147 -0.6483  0.0160
   94MOL   C36239608   6.899   6.696   1.093  0.5451  0.1841  0.6175
   94MOL   C36339609   6.978   6.561   1.070 -0.1221 -0.1685 -0.8785
   94MOL   C36439610   6.797   6.685   1.211 -0.1909  0.2707 -0.6040
   94MOL   C36539611   7.000   6.812   1.104  0.2901 -0.6117 -0.4255
   94MOL   H36639612   6.905   6.969   0.922  0.9227  2.7288 -2.5208
   94MOL   H36739613   6.829   6.939   0.775 -2.4815 -1.3135  0.2257
   94MOL   H36839614   6.709   6.895   1.055 -0.4855  1.6443 -0.0121
   94MOL   H36939615   6.757   6.634   0.936  1.0614 -0.9871 -1.4237
   94MOL   H37039616   6.888   6.717   0.887  0.7138  0.1273  0.7973
   94MOL   H37139617   7.018   6.515   1.160 -0.1566 -1.0015 -1.2815
   94MOL   H37239618   6.911   6.483   1.035 -0.7013  0.3543 -0.9329
   94MOL   H37339619   7.054   6.571   0.992  0.1659  1.7887 -0.3700
   94MOL   H37439620   6.750   6.780   1.235  0.5490  0.1168  1.5390
   94MOL   H37539621   6.842   6.643   1.301 -0.7210  1.4299  0.2001
   94MOL   H37639622   6.720   6.611   1.186 -0.4487  0.5164 -0.5390
   94MOL   H37739623   6.952   6.899   1.151 -0.2885  0.1002 -2.2949
   94MOL   H37839624   7.036   6.831   1.003 -2.3490  1.2086 -1.0910
   94MOL   H37939625   7.079   6.779   1.172  0.3015 -0.4603 -0.3643
   94MOL   C38039626   6.597   6.818   0.889 -0.8671  0.2629  0.4254
   94MOL   C38139627   6.490   6.741   0.978 -0.1138 -0.1479  0.0457
   94MOL   C38239628   6.385   6.665   0.895 -0.2572  0.3592 -0.1310
   94MOL   C38339629   6.388   6.506   0.882  0.2392 -0.1694  0.2404
   94MOL   C38439630   6.520   6.457   0.820 -0.1891  0.1466 -0.4107
   94MOL   C38539631   6.257   6.460   0.796 -0.7447  0.5742 -0.5502
   94MOL   C38639632   6.369   6.451   1.022 -0.4558  1.0181  0.2176
   94MOL   H38739633   6.612   6.750   0.805  1.7245 -0.5555  1.5214
   94MOL   H38839634   6.555   6.911   0.850 -1.0590 -1.3293 -3.3621
   94MOL   H38939635   6.535   6.657   1.032 -2.3864 -1.9991 -0.8783
   94MOL   H39039636   6.287   6.689   0.938 -0.4604  1.5001 -1.1904
   94MOL   H39139637   6.381   6.707   0.795  1.5206  1.7291  0.3471
   94MOL   H39239638   6.497   6.353   0.797 -2.7368  0.7721 -0.7572
   94MOL   H39339639   6.544   6.512   0.729 -1.3293  2.2829  0.5580
   94MOL   H39439640   6.607   6.468   0.885 -0.7779 -0.4499  0.4841
   94MOL   H39539641   6.251   6.507   0.698  0.6070 -0.7488 -1.2852
   94MOL   H39639642   6.170   6.495   0.852  0.5936  1.6031  0.9495
   94MOL   H39739643   6.255   6.354   0.773  2.4678  0.1931  0.5758
   94MOL   H39839644   6.371   6.342   1.017  0.7336  1.0209  0.5506
   94MOL   H39939645   6.266   6.476   1.049 -0.4139  2.3855 -0.8444
   94MOL   H40039646   6.433   6.490   1.100 -0.5767  3.8297 -1.0039
   94MOL   C40139647   6.430   6.823   1.094 -0.2410 -0.7165 -0.5313
   94MOL   C40239648   6.352   6.957   1.057 -0.4771  0.7943  0.2144
   94MOL   C40339649   6.326   7.038   1.183 -0.9422 -0.9530  0.2520
   94MOL   C40439650   6.254   7.172   1.158 -0.3481  0.4935  0.0378
   94MOL   C40539651   6.261   7.261   1.283  0.0410  0.2354  0.3515
   94MOL   C40639652   6.104   7.140   1.135  0.3017  0.4225 -0.1352
   94MOL   C40739653   6.307   7.260   1.044 -0.0644  0.2835 -0.3456
   94MOL   H40839654   6.365   6.753   1.147 -1.6377 -0.1279 -1.4210
   94MOL   H40939655   6.516   6.848   1.155 -2.2794  1.7884  1.4043
   94MOL   H41039656   6.415   7.010   0.986  2.6114 -2.2403  0.5416
   94MOL   H41139657   6.426   7.047   1.224 -0.2797 -1.4495 -1.2136
   94MOL   H41239658   6.266   6.979   1.252  0.4693 -1.2681  1.2098
   94MOL   H41339659   6.199   7.349   1.268 -0.2338 -0.4114 -2.5714
   94MOL   H41439660   6.362   7.298   1.298 -0.0323  0.4629  0.2828
   94MOL   H41539661   6.227   7.211   1.374  0.3197  0.3889  0.5413
   94MOL   H41639662   6.058   7.062   1.195 -1.2818 -0.5615 -2.5297
   94MOL   H41739663   6.093   7.095   1.036  0.7511 -0.9255  0.4151
   94MOL   H41839664   6.039   7.228   1.138 -0.1932  0.0110  1.5963
   94MOL   H41939665   6.416   7.269   1.046  0.0306 -0.8540  0.0436
   94MOL   H42039666   6.277   7.231   0.943 -0.6505 -1.0026  0.1821
   94MOL   H42139667   6.268   7.361   1.058 -0.5017  0.0085  0.4526
   94MOL   H42239668   6.258   6.934   1.008 -1.4042  3.0584  0.8854
   95MOL     C139669   0.214   3.175   6.470  0.4512 -0.1293  0.3404
   95MOL     C239670   0.284   3.311   6.472 -0.2867 -0.4590  0.1196
   95MOL     C339671   0.199   3.429   6.523  0.7078  0.3139  0.0134
   95MOL     C439672   0.265   3.532   6.625  0.0907  0.3824  0.5541
   95MOL     C539673   0.334   3.458   6.741 -0.6467 -0.1566 -0.8158
   95MOL     C639674   0.369   3.608   6.558 -0.5968 -0.7690  0.4882
   95MOL     C739675   0.148   3.616   6.687  0.6424 -0.2798 -0.1996
   95MOL     H839676   0.146   3.165   6.385 -0.2561 -0.3983  0.9383
   95MOL     H939677   0.295   3.103   6.459  0.5374 -0.3546  2.2934
   95MOL    H1039678   0.363   3.304   6.547  0.5629 -2.2162 -0.9051
   95MOL    H1139679   0.112   3.384   6.572  0.0343  1.9148  0.3525
   95MOL    H1239680   0.151   3.475   6.436  1.8424 -0.5033 -1.0639
   95MOL    H1339681   0.296   3.360   6.769 -0.9125  0.7654  2.1958
   95MOL    H1439682   0.335   3.527   6.825  0.0448  2.8013 -3.1475
   95MOL    H1539683   0.440   3.448   6.720 -0.0874  0.0300  1.7818
   95MOL    H1639684   0.415   3.682   6.623  2.4312 -0.3773 -1.9801
   95MOL    H1739685   0.456   3.550   6.526 -0.0674 -0.6544  1.7179
   95MOL    H1839686   0.331   3.661   6.470 -3.0279  0.4257  2.2131
   95MOL    H1939687   0.175   3.684   6.768  0.0893  0.7023 -0.8272
   95MOL    H2039688   0.061   3.560   6.724  0.6512  1.4872  2.6275
   95MOL    H2139689   0.097   3.678   6.613 -1.2673 -0.4991  0.8789
   95MOL    H2239690   0.164   3.152   6.564  0.4843  1.3621  0.7407
   95MOL    C2339691   0.346   3.331   6.334 -0.0553  0.2722  0.6100
   95MOL    C2439692   0.466   3.253   6.285  0.2323 -0.1778  0.2833
   95MOL    C2539693   0.597   3.268   6.371 -0.2547 -0.3545 -0.1452
   95MOL    C2639694   0.673   3.140   6.414  0.2784  0.0402 -0.3066
   95MOL    C2739695   0.692   3.052   6.293 -0.4264 -0.3967  0.3333
   95MOL    C2839696   0.804   3.184   6.477 -0.3293  0.8053 -0.1989
   95MOL    C2939697   0.588   3.054   6.514 -0.2388 -0.4933  0.3952
   95MOL    H3039698   0.259   3.325   6.268 -1.0372  1.3269  1.7644
   95MOL    H3139699   0.362   3.439   6.337 -0.8879  0.4277 -0.2265
   95MOL    H3239700   0.437   3.149   6.299  0.0534  0.1316  2.2793
   95MOL    H3339701   0.565   3.321   6.461  1.2485 -1.8084  1.2915
   95MOL    H3439702   0.668   3.339   6.330  0.3659 -0.7656  0.2120
   95MOL    H3539703   0.743   2.960   6.320  1.4014  1.1267  2.2602
   95MOL    H3639704   0.603   3.029   6.234  0.3287 -1.1897 -0.5072
   95MOL    H3739705   0.765   3.101   6.228 -0.0567 -1.0212  0.2705
   95MOL    H3839706   0.793   3.269   6.543  0.8752 -0.3959  1.5963
   95MOL    H3939707   0.857   3.102   6.525 -0.3475  0.3392 -0.9558
   95MOL    H4039708   0.863   3.231   6.399 -0.7011  1.2423 -0.2183
   95MOL    H4139709   0.582   3.105   6.610 -0.5335 -1.8011  1.0788
   95MOL    H4239710   0.619   2.952   6.536 -0.0838 -0.8505 -1.3820
   95MOL    H4339711   0.484   3.041   6.484  0.3721 -3.4762 -0.5785
   95MOL    C4439712   0.504   3.294   6.144  1.4054 -0.2205 -0.1535
   95MOL    C4539713   0.395   3.268   6.030 -0.1135 -0.2657 -0.6783
   95MOL    C4639714   0.380   3.117   5.999 -0.2385  0.4672 -0.3639
   95MOL    C4739715   0.236   3.060   5.988 -0.6676 -0.2417 -1.0575
   95MOL    C4839716   0.162   3.088   6.119 -0.4873  0.2412 -0.1795
   95MOL    C4939717   0.252   2.902   5.982 -0.1911 -0.3383  0.2080
   95MOL    C5039718   0.163   3.112   5.860  0.3414  0.5310  0.2234
   95MOL    H5139719   0.513   3.402   6.148  4.0279 -0.4274  0.4820
   95MOL    H5239720   0.600   3.248   6.120  0.9422 -0.0133 -2.4694
   95MOL    H5339721   0.295   3.303   6.056  0.1167 -0.1280  0.0370
   95MOL    H5439722   0.425   3.062   6.081 -3.1263 -0.7582  0.4581
   95MOL    H5539723   0.432   3.103   5.904  0.4507  3.4792 -0.4733
   95MOL    H5639724   0.081   3.019   6.139 -1.3218  1.3975  0.5358
   95MOL    H5739725   0.117   3.188   6.113 -1.6257 -0.2877 -0.5411
   95MOL    H5839726   0.223   3.091   6.209 -2.3340  1.0221  1.0704
   95MOL    H5939727   0.318   2.876   5.899  2.3221 -0.9599  2.3423
   95MOL    H6039728   0.297   2.861   6.073  1.0932 -1.5166 -0.9164
   95MOL    H6139729   0.162   2.848   5.952 -0.4691 -2.7217  4.8072
   95MOL    H6239730   0.155   3.221   5.862 -1.2310  0.4430 -0.6374
   95MOL    H6339731   0.209   3.079   5.767 -1.1412 -0.5834 -0.1313
   95MOL    H6439732   0.062   3.076   5.875  0.2641  1.4353  1.9431
   95MOL    C6539733   0.447   3.331   5.896  0.5428  0.2963  0.2934
   95MOL    C6639734   0.429   3.488   5.885  0.6234 -0.3111  0.2526
   95MOL    C6739735   0.282   3.544   5.887  0.3322 -0.9492  0.3271
   95MOL    C6839736   0.243   3.651   5.992  0.4506  0.0737  0.1968
   95MOL    C6939737   0.233   3.594   6.133  0.8152 -0.2495 -0.3010
   95MOL    C7039738   0.343   3.764   5.990 -0.3467  0.0687  0.7181
   95MOL    C7139739   0.101   3.716   5.958 -0.1818  0.3569 -0.0483
   95MOL    H7239740   0.553   3.308   5.889  0.0804 -1.5373 -1.1415
   95MOL    H7339741   0.411   3.276   5.809 -0.5430 -2.4953  2.4441
   95MOL    H7439742   0.470   3.537   5.973 -0.6475  0.9001  0.1911
   95MOL    H7539743   0.218   3.462   5.920 -2.9959  1.7917  0.9043
   95MOL    H7639744   0.246   3.583   5.791  0.1598 -2.5624 -0.2936
   95MOL    H7739745   0.326   3.542   6.156  2.3300  1.9677 -1.2364
   95MOL    H7839746   0.216   3.672   6.207  0.7390 -1.0370  0.5262
   95MOL    H7939747   0.156   3.518   6.149 -0.6282  1.1258 -0.5917
   95MOL    H8039748   0.447   3.743   6.016 -0.2519  1.4128  1.4753
   95MOL    H8139749   0.310   3.842   6.058 -1.5632  1.0035 -0.8886
   95MOL    H8239750   0.340   3.799   5.887  1.2447 -1.1209  0.2455
   95MOL    H8339751   0.093   3.778   5.869 -0.9308 -0.4685 -0.5667
   95MOL    H8439752   0.058   3.768   6.044  1.0404 -0.0480  0.8300
   95MOL    H8539753   0.028   3.638   5.939 -2.3728  2.5505 -0.8298
   95MOL    C8639754   0.499   3.536   5.759  0.3988  0.7334  0.0614
   95MOL    C8739755   0.649   3.494   5.726  0.9630  0.0676  0.1858
   95MOL    C8839756   0.746   3.532   5.849  1.0667 -0.1668 -0.2242
   95MOL    C8939757   0.874   3.453   5.873  0.0324 -0.0976 -0.1202
   95MOL    C9039758   0.984   3.469   5.764 -0.5057  0.4012 -0.3716
   95MOL    C9139759   0.838   3.299   5.882 -0.6323  0.0857 -0.4520
   95MOL    C9239760   0.934   3.492   6.011 -0.0499 -1.0535  0.0398
   95MOL    H9339761   0.489   3.645   5.759 -0.7188  0.6368 -0.4811
   95MOL    H9439762   0.444   3.501   5.672  2.6233 -1.7621 -0.4217
   95MOL    H9539763   0.649   3.388   5.702 -0.5647  0.0991  0.0258
   95MOL    H9639764   0.686   3.517   5.939  0.9810 -0.5335 -0.3438
   95MOL    H9739765   0.771   3.638   5.844  0.2319  0.3038  3.8696
   95MOL    H9839766   0.955   3.452   5.660 -3.1151 -1.3417  0.5804
   95MOL    H9939767   1.080   3.426   5.791 -1.4683 -2.2517 -0.9243
   95MOL   H10039768   0.998   3.577   5.767 -0.4605  0.3485  2.8489
   95MOL   H10139769   0.924   3.241   5.914  0.1420  1.2723 -0.3376
   95MOL   H10239770   0.757   3.266   5.947 -1.4753  2.0396 -0.4659
   95MOL   H10339771   0.815   3.261   5.782 -2.7213 -0.9325  0.3829
   95MOL   H10439772   1.011   3.420   6.037  0.2337 -0.9451 -0.4968
   95MOL   H10539773   0.976   3.591   6.001 -1.9438 -0.3927 -1.9325
   95MOL   H10639774   0.865   3.495   6.095  0.6444  0.4943  0.5581
   95MOL   C10739775   0.696   3.576   5.605  0.2891  0.6249 -0.0437
   95MOL   C10839776   0.646   3.505   5.475  1.0450  0.0679  0.4718
   95MOL   C10939777   0.656   3.614   5.360 -0.1220  1.1001 -0.1576
   95MOL   C11039778   0.546   3.724   5.326  0.7353  0.6149 -0.3919
   95MOL   C11139779   0.591   3.861   5.378  0.0140 -0.2317 -0.3682
   95MOL   C11239780   0.409   3.688   5.383  0.2651 -0.4837  0.0636
   95MOL   C11339781   0.533   3.737   5.177  0.4553  0.0004  0.5932
   95MOL   H11439782   0.803   3.579   5.585 -0.1611 -0.1308 -2.6470
   95MOL   H11539783   0.658   3.677   5.622 -1.0562  0.0184  0.6588
   95MOL   H11639784   0.543   3.472   5.485  1.4414 -0.8761  1.5172
   95MOL   H11739785   0.751   3.666   5.372 -0.6748  1.8562  1.0456
   95MOL   H11839786   0.653   3.555   5.268  0.7537  0.2005  0.3842
   95MOL   H11939787   0.690   3.889   5.343  0.3236 -0.4257  0.3574
   95MOL   H12039788   0.531   3.949   5.355 -0.3310 -0.2055  0.6269
   95MOL   H12139789   0.604   3.861   5.486 -1.3296 -0.9345 -0.1948
   95MOL   H12239790   0.410   3.688   5.492  3.5847 -0.3676  0.0872
   95MOL   H12339791   0.375   3.586   5.360  0.0050 -0.4980  0.5033
   95MOL   H12439792   0.338   3.767   5.359  1.5148  0.4968 -0.4401
   95MOL   H12539793   0.618   3.791   5.136  0.0674  0.2155  0.0556
   95MOL   H12639794   0.443   3.792   5.150 -0.2575 -0.9913  0.9084
   95MOL   H12739795   0.510   3.650   5.115 -1.0417  0.1608  0.9097
   95MOL   C12839796   0.740   3.373   5.446  0.3720  0.7765  0.9923
   95MOL   C12939797   0.667   3.252   5.390 -0.5269 -0.2025 -0.5686
   95MOL   C13039798   0.765   3.149   5.326 -0.2728  0.0967 -0.3694
   95MOL   C13139799   0.815   3.168   5.180  0.8331  0.0127 -0.6654
   95MOL   C13239800   0.848   3.316   5.153  0.3745 -0.3296 -0.3618
   95MOL   C13339801   0.700   3.125   5.084  0.6656 -0.0941 -0.2534
   95MOL   C13439802   0.934   3.073   5.159 -0.2779  0.3057  0.2161
   95MOL   H13539803   0.775   3.335   5.542  1.3823  1.4619  0.9027
   95MOL   H13639804   0.835   3.400   5.400 -0.3005  1.4427 -0.0212
   95MOL   H13739805   0.598   3.283   5.311  0.1407  0.6512 -0.8221
   95MOL   H13839806   0.861   3.159   5.377  0.2132 -1.6706 -0.8983
   95MOL   H13939807   0.738   3.045   5.345  0.8813 -0.2037 -0.3651
   95MOL   H14039808   0.888   3.317   5.052  1.9397  2.8256  0.2292
   95MOL   H14139809   0.933   3.351   5.212 -0.5978 -0.0411  0.9021
   95MOL   H14239810   0.765   3.386   5.166  0.5883  0.1073 -1.3541
   95MOL   H14339811   0.607   3.181   5.091 -0.3273 -1.7986  0.6125
   95MOL   H14439812   0.659   3.029   5.115 -0.0644  0.4754  0.5696
   95MOL   H14539813   0.733   3.136   4.981 -0.1128 -0.2433 -0.5226
   95MOL   H14639814   0.911   2.967   5.168  1.8028 -0.1796  0.1554
   95MOL   H14739815   0.977   3.082   5.060  0.9459  0.8163  0.7768
   95MOL   H14839816   1.019   3.085   5.226  0.6764 -0.2610 -0.8902
   95MOL   C14939817   0.591   3.173   5.503 -0.6062  0.4215  0.3123
   95MOL   C15039818   0.480   3.073   5.453 -0.0788  0.0956  0.2707
   95MOL   C15139819   0.443   2.961   5.550  0.2848 -0.5148  0.4612
   95MOL   C15239820   0.537   2.839   5.586  0.0077  0.6315  0.6836
   95MOL   C15339821   0.453   2.725   5.641  0.8314  0.0319  0.4570
   95MOL   C15439822   0.643   2.873   5.694  0.2736 -0.5108 -0.3557
   95MOL   C15539823   0.603   2.787   5.460  0.8411  0.3802  0.5827
   95MOL   H15639824   0.550   3.237   5.582 -1.0347 -0.4062  0.7747
   95MOL   H15739825   0.674   3.119   5.547  0.8544  1.3779 -1.2382
   95MOL   H15839826   0.512   3.021   5.363 -0.0081  0.7419 -0.0858
   95MOL   H15939827   0.363   2.913   5.493  1.6517  0.5621 -2.5080
   95MOL   H16039828   0.406   3.001   5.644 -0.9667 -0.2172 -0.1490
   95MOL   H16139829   0.395   2.667   5.569 -0.6521  1.0129  0.8342
   95MOL   H16239830   0.512   2.649   5.691  0.4526 -2.1025 -2.2240
   95MOL   H16339831   0.381   2.762   5.714  0.8524  1.1130 -0.0614
   95MOL   H16439832   0.596   2.900   5.789 -2.2558 -2.5821 -0.9738
   95MOL   H16539833   0.704   2.960   5.671  0.1609 -0.1175  0.8076
   95MOL   H16639834   0.704   2.784   5.708 -0.4693 -0.8112  1.0569
   95MOL   H16739835   0.533   2.762   5.380  1.1282 -0.2874  0.5374
   95MOL   H16839836   0.663   2.864   5.411  0.1214  1.1383  0.8843
   95MOL   H16939837   0.671   2.710   5.495  0.1806  0.0411  1.1278
   95MOL   C17039838   0.358   3.165   5.415  0.0621  0.0663 -0.3209
   95MOL   C17139839   0.248   3.106   5.314 -0.1017  0.3136  0.4213
   95MOL   C17239840   0.302   3.109   5.168  0.2445  0.5214  0.1820
   95MOL   C17339841   0.282   2.994   5.074 -0.6239 -0.3225  0.3063
   95MOL   C17439842   0.138   2.956   5.051 -0.3422  0.7595 -0.2818
   95MOL   C17539843   0.365   2.871   5.119 -0.3628  0.5736 -0.1627
   95MOL   C17639844   0.327   3.038   4.934  0.0266  0.3471  0.0351
   95MOL   H17739845   0.389   3.252   5.357  0.4887 -0.5254 -0.9935
   95MOL   H17839846   0.324   3.196   5.514  0.3223 -1.0898  0.1388
   95MOL   H17939847   0.225   3.004   5.345 -1.0801  0.2756 -0.3976
   95MOL   H18039848   0.264   3.199   5.119  1.6227  1.2621  0.4633
   95MOL   H18139849   0.409   3.120   5.181  0.6618 -1.2441 -1.6593
   95MOL   H18239850   0.095   2.905   5.137 -1.1442  1.7549 -0.0694
   95MOL   H18339851   0.075   3.044   5.034  0.5619  1.3198 -0.7871
   95MOL   H18439852   0.138   2.879   4.974 -0.8774 -1.0476  1.4815
   95MOL   H18539853   0.454   2.902   5.172 -0.6349 -0.1575  0.7347
   95MOL   H18639854   0.319   2.813   5.199 -1.7513  1.7538 -0.0896
   95MOL   H18739855   0.379   2.802   5.036  1.9324  1.2578 -0.3765
   95MOL   H18839856   0.430   3.074   4.940 -0.7903  2.3119  3.2001
   95MOL   H18939857   0.320   2.967   4.852 -1.2617  0.8066 -0.2682
   95MOL   H19039858   0.261   3.116   4.894 -0.7658 -0.0472  0.5755
   95MOL   C19139859   0.108   3.174   5.331  0.0196 -0.0139 -0.1799
   95MOL   C19239860   7.746   3.089   5.385  0.1797 -0.0383  0.3069
   95MOL   C19339861   7.616   3.185   5.405  0.3532 -0.5376  0.8582
   95MOL   C19439862   7.514   3.191   5.286  0.1777  0.1418 -0.3310
   95MOL   C19539863   7.471   3.048   5.241  0.3559  0.1955 -0.3507
   95MOL   C19639864   7.573   3.277   5.165  0.3010 -0.5457  0.1684
   95MOL   C19739865   7.391   3.260   5.340  0.4063  0.0362  0.3114
   95MOL   H19839866   0.118   3.249   5.410 -2.1088  0.3256 -0.2215
   95MOL   H19939867   0.073   3.223   5.240  1.3291  0.1901 -0.5983
   95MOL   H20039868   7.714   3.010   5.318 -3.1328 -0.2902  2.0706
   95MOL   H20139869   7.641   3.289   5.422  0.3808 -0.8538  2.8266
   95MOL   H20239870   7.564   3.153   5.496  0.6607 -0.9901  0.8782
   95MOL   H20339871   7.541   2.983   5.190  0.0914 -0.4187  0.0564
   95MOL   H20439872   7.427   3.000   5.329 -1.5934  0.0846 -1.3690
   95MOL   H20539873   7.376   3.045   5.186 -0.2429  1.3020  0.5969
   95MOL   H20639874   7.495   3.305   5.094 -1.5533  0.9624  2.7146
   95MOL   H20739875   7.615   3.373   5.197 -3.3485  1.3738 -0.5621
   95MOL   H20839876   7.653   3.226   5.112  2.2050 -0.2171  2.6485
   95MOL   H20939877   7.334   3.198   5.409  1.4848  1.0710  2.1549
   95MOL   H21039878   7.420   3.358   5.376 -2.3848  1.5685 -1.3676
   95MOL   H21139879   7.323   3.290   5.259 -2.4980 -3.5230  1.2831
   95MOL   C21239880   0.010   3.014   5.516 -0.0377 -0.0789  0.2190
   95MOL   C21339881   7.733   2.864   5.532 -0.4259  0.0791 -0.3894
   95MOL   C21439882   7.729   2.821   5.681  0.0480  0.1301  0.0577
   95MOL   C21539883   7.596   2.825   5.757  0.0440 -0.2328  0.2031
   95MOL   C21639884   7.626   2.790   5.908 -0.5138 -0.1216 -0.4276
   95MOL   C21739885   7.523   2.956   5.740  0.0349 -0.0767 -0.6261
   95MOL   C21839886   7.500   2.709   5.713  0.9700 -0.3427 -0.2605
   95MOL   H21939887   0.113   3.015   5.552  0.8045 -0.5724 -2.0852
   95MOL   H22039888   7.718   3.070   5.589  0.3092  1.1160 -0.4006
   95MOL   H22139889   7.637   2.858   5.482 -0.3940 -1.0082 -0.3327
   95MOL   H22239890   0.038   2.884   5.729 -0.1627  0.3298  0.1241
   95MOL   H22339891   0.006   2.721   5.683  0.5857  0.3237 -1.5484
   95MOL   H22439892   7.657   2.687   5.925 -1.4673 -0.3839 -0.2670
   95MOL   H22539893   7.535   2.814   5.963 -0.7547  0.6314 -1.1526
   95MOL   H22639894   7.704   2.853   5.950 -0.1899 -0.2523 -0.8248
   95MOL   H22739895   7.586   3.039   5.774 -0.2222  0.6078 -1.7878
   95MOL   H22839896   7.501   2.979   5.636 -0.9109 -3.5767 -1.2403
   95MOL   H22939897   7.430   2.969   5.795  0.6780  1.2453  0.1804
   95MOL   H23039898   7.428   2.681   5.791  1.1118 -3.5453 -1.2139
   95MOL   H23139899   7.548   2.612   5.723 -0.8714 -1.2589  0.0007
   95MOL   H23239900   7.461   2.705   5.611 -0.2417 -0.7377  0.2083
   95MOL   C23339901   0.067   2.785   5.447  0.1881 -0.5965 -0.2988
   95MOL   C23439902   0.008   2.648   5.384  0.0736 -0.2743 -0.1998
   95MOL   C23539903   7.711   2.695   5.250  0.4109  0.0880  0.1883
   95MOL   C23639904   7.578   2.624   5.213 -0.1758  0.8855  0.3959
   95MOL   C23739905   7.595   2.474   5.209 -0.2003 -1.0783  0.5739
   95MOL   C23839906   7.473   2.662   5.317  0.8968  1.1308 -0.6389
   95MOL   C23939907   7.517   2.675   5.079  0.1269  0.5249  0.4807
   95MOL   H24039908   0.155   2.760   5.507  0.1735  1.9338  0.8489
   95MOL   H24139909   0.097   2.847   5.363  0.3786 -0.4304 -0.1074
   95MOL   H24239910   7.700   2.603   5.450  0.0385  0.4888  0.2886
   95MOL   H24339911   7.702   2.803   5.248 -1.1630 -0.0448 -0.2099
   95MOL   H24439912   0.032   2.685   5.185  0.1442 -0.2216 -0.1222
   95MOL   H24539913   7.603   2.436   5.311 -1.3330 -1.5082  0.5074
   95MOL   H24639914   7.686   2.450   5.154  1.2762  0.8016  2.1414
   95MOL   H24739915   7.511   2.421   5.163 -1.7494  3.3001 -2.0106
   95MOL   H24839916   7.493   2.615   5.413  1.6987  2.4138 -0.1770
   95MOL   H24939917   7.481   2.769   5.337  3.3563  1.1369 -1.4497
   95MOL   H25039918   7.371   2.640   5.286  1.7944 -0.8142 -2.3601
   95MOL   H25139919   7.504   2.784   5.080  2.3168  0.8418 -1.2540
   95MOL   H25239920   7.580   2.654   4.993 -1.4622  0.5346 -0.7216
   95MOL   H25339921   7.418   2.636   5.053  1.1884  0.0201 -3.1038
   95MOL   C25439922   0.118   2.540   5.356  0.0384 -0.4455  0.4046
   95MOL   C25539923   0.164   2.449   5.472 -0.5039  0.2525  0.4316
   95MOL   C25639924   0.260   2.335   5.430  0.0717 -0.1549  0.0886
   95MOL   C25739925   0.413   2.356   5.403  0.5581 -0.0343 -0.2898
   95MOL   C25839926   0.480   2.365   5.545  0.4438 -0.5021  0.4921
   95MOL   C25939927   0.456   2.473   5.316 -0.2134 -0.0757  0.8024
   95MOL   C26039928   0.460   2.226   5.339 -0.3531  0.5908 -0.9065
   95MOL   H26139929   0.199   2.584   5.298 -0.0644 -1.0287 -0.1893
   95MOL   H26239930   0.087   2.471   5.277 -2.4916  0.0173  0.9591
   95MOL   H26339931   0.223   2.519   5.531  1.3756 -0.2178 -0.8511
   95MOL   H26439932   0.240   2.252   5.498  1.3280  0.5545  1.3383
   95MOL   H26539933   0.223   2.297   5.334  0.0777 -0.2149  0.1092
   95MOL   H26639934   0.586   2.382   5.524  0.4467 -0.9218  0.1577
   95MOL   H26739935   0.474   2.275   5.607  1.4400 -1.6785 -1.0775
   95MOL   H26839936   0.442   2.453   5.595 -0.1690 -0.3099 -0.3076
   95MOL   H26939937   0.431   2.470   5.210 -0.9913  0.8740  0.9529
   95MOL   H27039938   0.564   2.482   5.299 -0.4700  1.4254 -0.0934
   95MOL   H27139939   0.413   2.567   5.350  0.9487  0.5939  0.4458
   95MOL   H27239940   0.427   2.137   5.394 -1.3293  0.9343 -0.9236
   95MOL   H27339941   0.427   2.201   5.239 -0.0572  1.7550 -1.2961
   95MOL   H27439942   0.569   2.223   5.328 -0.4979 -0.9436 -2.0307
   95MOL   C27539943   0.050   2.403   5.570 -0.9084 -0.4285  0.0995
   95MOL   C27639944   0.062   2.280   5.660  0.2788 -0.7301 -0.1891
   95MOL   C27739945   0.186   2.289   5.758  0.0388  0.1490  0.4691
   95MOL   C27839946   0.195   2.395   5.867 -0.2178 -0.0739 -0.0792
   95MOL   C27939947   0.155   2.534   5.823 -0.6243 -0.2476 -0.4056
   95MOL   C28039948   0.114   2.358   5.989 -0.3082  0.1185 -0.1744
   95MOL   C28139949   0.344   2.405   5.923 -0.1520 -0.3521  0.4830
   95MOL   H28239950   0.008   2.490   5.620 -0.0932 -0.7129  1.2820
   95MOL   H28339951   7.732   2.370   5.508  0.1040 -0.9880 -1.0087
   95MOL   H28439952   0.068   2.202   5.584 -0.3583 -1.1567  0.1951
   95MOL   H28539953   0.274   2.318   5.700 -1.4201 -0.0581 -1.9475
   95MOL   H28639954   0.201   2.188   5.797  2.2953  0.9251  1.6513
   95MOL   H28739955   0.205   2.580   5.738  1.8865  0.7370  1.5382
   95MOL   H28839956   0.047   2.539   5.813 -0.5772 -0.1057 -0.8770
   95MOL   H28939957   0.184   2.597   5.907 -1.6686 -1.8933  1.2449
   95MOL   H29039958   0.124   2.254   6.018 -3.1365 -0.3713 -0.8235
   95MOL   H29139959   0.007   2.367   5.972 -0.3311 -1.4541 -0.9742
   95MOL   H29239960   0.149   2.418   6.073  1.8976 -1.6577  0.2231
   95MOL   H29339961   0.353   2.467   6.012 -0.7242 -1.1546  1.1070
   95MOL   H29439962   0.405   2.437   5.838 -0.2871 -3.0146 -0.6942
   95MOL   H29539963   0.378   2.311   5.967 -0.4422 -0.6281  0.1333
   95MOL   C29639964   7.682   2.253   5.722  0.6393  0.0336 -0.7044
   95MOL   C29739965   7.666   2.125   5.814  0.3552  0.0428  0.0974
   95MOL   C29839966   7.730   1.997   5.743 -0.8177  0.1072 -0.4169
   95MOL   C29939967   0.014   1.874   5.833 -0.0407  0.0100  0.6535
   95MOL   C30039968   0.128   1.921   5.934  0.1114 -0.6816  0.0443
   95MOL   C30139969   7.668   1.807   5.914  0.1051 -0.7094 -0.5263
   95MOL   C30239970   0.075   1.761   5.750 -0.3652 -0.3850  0.5573
   95MOL   H30339971   7.606   2.237   5.645  0.7571  1.0542 -1.0405
   95MOL   H30439972   7.649   2.338   5.781 -1.0990 -1.7167  0.8856
   95MOL   H30539973   7.729   2.139   5.902  0.5153 -2.3767  0.3900
   95MOL   H30639974   0.053   2.022   5.686 -0.3551 -2.2664 -0.7814
   95MOL   H30739975   7.668   1.952   5.666 -1.3976  2.0488 -1.1102
   95MOL   H30839976   0.218   1.961   5.888  0.3002  0.8902  1.7225
   95MOL   H30939977   0.104   2.001   6.004  1.3946  0.2183 -0.5198
   95MOL   H31039978   0.157   1.835   5.996 -1.1861 -0.5257  0.8739
   95MOL   H31139979   7.703   1.733   5.987  2.0373  2.6968  2.1462
   95MOL   H31239980   7.620   1.878   5.981  1.5384  1.3066 -1.6026
   95MOL   H31339981   7.590   1.766   5.849  0.1894 -2.3690  0.3795
   95MOL   H31439982   0.158   1.795   5.688 -1.2475  0.9514  0.0663
   95MOL   H31539983   0.109   1.680   5.814 -0.3211 -0.2507  0.7033
   95MOL   H31639984   7.762   1.719   5.686  1.0298  0.2263 -1.6239
   95MOL   C31739985   7.522   2.105   5.851 -0.9690 -0.7099 -0.2289
   95MOL   C31839986   7.454   2.204   5.946 -0.1253 -0.3278 -0.1258
   95MOL   C31939987   7.299   2.215   5.912  0.3219 -0.6779 -0.2132
   95MOL   C32039988   7.245   2.343   5.839 -0.1448 -0.4079 -0.8043
   95MOL   C32139989   7.281   2.467   5.925 -0.5991  0.0864  0.4646
   95MOL   C32239990   7.088   2.331   5.829 -0.1107 -0.1317 -0.4503
   95MOL   C32339991   7.308   2.351   5.703 -0.7455 -0.0612  0.0902
   95MOL   H32439992   7.474   2.114   5.753 -0.9804 -0.5297 -0.2064
   95MOL   H32539993   7.503   2.011   5.903  0.3473 -0.9959 -0.2579
   95MOL   H32639994   7.498   2.301   5.920 -0.2938  0.0983  1.1404
   95MOL   H32739995   7.248   2.182   6.002 -0.2474  1.6653  0.3607
   95MOL   H32839996   7.275   2.132   5.846 -3.6766 -0.2693  0.5861
   95MOL   H32939997   7.276   2.426   6.026  0.8183 -1.5956 -0.1185
   95MOL   H33039998   7.214   2.550   5.905 -0.8047 -0.6805 -2.3012
   95MOL   H33139999   7.384   2.502   5.912 -0.1836 -1.7923 -1.5589
   95MOL   H33240000   7.051   2.348   5.931  2.1197  1.6286  0.0942
   95MOL   H33340001   7.047   2.402   5.758 -0.2061  0.9428  0.6671
   95MOL   H33440002   7.048   2.232   5.806 -1.5046  0.0507  1.0858
   95MOL   H33540003   7.410   2.388   5.702 -0.1670 -1.5908  1.1332
   95MOL   H33640004   7.250   2.420   5.641  1.3160  0.7882 -0.9332
   95MOL   H33740005   7.303   2.252   5.659 -1.5497  0.3589 -0.7844
   95MOL   C33840006   7.495   2.165   6.091 -0.0468 -0.9054 -0.0896
   95MOL   C33940007   7.459   2.257   6.214  0.3417 -0.9180 -0.4767
   95MOL   C34040008   7.578   2.364   6.241 -0.3694  0.3140  0.3123
   95MOL   C34140009   7.545   2.491   6.324 -0.8028  0.9121  0.0512
   95MOL   C34240010   7.518   2.450   6.471 -0.4042  0.0530  0.1232
   95MOL   C34340011   7.665   2.584   6.310 -0.4885 -0.3019  1.0519
   95MOL   C34440012   7.418   2.557   6.263 -0.1572 -0.0358 -0.1724
   95MOL   H34540013   7.601   2.142   6.089  0.0460 -0.4751 -0.1570
   95MOL   H34640014   7.451   2.067   6.110 -1.5037 -0.4044 -0.7928
   95MOL   H34740015   7.368   2.313   6.191  0.0070 -0.9506  0.7381
   95MOL   H34840016   7.598   2.396   6.139  1.7126 -2.3738 -0.1615
   95MOL   H34940017   7.668   2.309   6.268 -1.2142 -0.6167  1.2718
   95MOL   H35040018   7.600   2.392   6.513  0.0047 -0.1192 -0.8846
   95MOL   H35140019   7.509   2.542   6.529  1.0301  0.8831 -0.9268
   95MOL   H35240020   7.419   2.407   6.481 -0.2996 -0.9459 -2.6326
   95MOL   H35340021   7.674   2.612   6.205 -1.4586 -0.1131  1.0122
   95MOL   H35440022   7.654   2.675   6.369  1.9879  0.1283  0.9027
   95MOL   H35540023   7.759   2.543   6.346 -0.3856 -0.4133  0.6526
   95MOL   H35640024   7.329   2.504   6.299  0.1699  0.5481  1.5494
   95MOL   H35740025   7.415   2.659   6.302  1.2496 -0.1106  0.1624
   95MOL   H35840026   7.424   2.566   6.155 -2.6443 -0.2640 -0.3734
   95MOL   C35940027   7.438   2.163   6.334  0.1995  0.3932  0.5782
   95MOL   C36040028   7.289   2.105   6.345  0.0491 -0.4422 -0.1299
   95MOL   C36140029   7.184   2.211   6.391  0.6877 -0.5928 -0.0611
   95MOL   C36240030   7.039   2.210   6.352 -0.0177  0.0075  0.6488
   95MOL   C36340031   6.967   2.313   6.435 -0.4902 -0.4755 -0.3795
   95MOL   C36440032   6.967   2.078   6.379  0.8126  0.6983 -0.3998
   95MOL   C36540033   7.036   2.249   6.205 -0.1615  0.1662  0.1922
   95MOL   H36640034   7.477   2.199   6.429  1.5109  2.7258 -0.7754
   95MOL   H36740035   7.499   2.073   6.323  0.4911  0.6814 -0.2382
   95MOL   H36840036   7.266   2.075   6.242 -0.2194  1.4455 -0.6393
   95MOL   H36940037   7.181   2.215   6.500 -0.7481 -0.1065 -0.1149
   95MOL   H37040038   7.228   2.309   6.368 -2.5508  0.5423 -1.6741
   95MOL   H37140039   6.862   2.317   6.404 -0.2429 -2.5796 -1.5522
   95MOL   H37240040   6.974   2.298   6.543  2.5121  0.0852 -0.4628
   95MOL   H37340041   7.004   2.413   6.415 -0.7932 -0.0890  0.9565
   95MOL   H37440042   6.975   2.004   6.300 -0.3973 -1.0569  1.0813
   95MOL   H37540043   6.860   2.097   6.372  0.7377  0.3599 -0.1721
   95MOL   H37640044   6.982   2.038   6.480  3.2932 -0.3349 -1.1241
   95MOL   H37740045   7.068   2.351   6.183 -1.9617  0.7922  0.4014
   95MOL   H37840046   6.932   2.257   6.173 -0.0260  1.2810  0.0162
   95MOL   H37940047   7.082   2.179   6.135 -1.7592 -1.7858  1.0344
   95MOL   C38040048   7.283   1.972   6.433 -0.4330 -0.0962 -0.1416
   95MOL   C38140049   7.316   1.835   6.367  0.0706  0.0067 -0.0812
   95MOL   C38240050   7.204   1.785   6.270 -0.0396 -0.2554  0.0396
   95MOL   C38340051   7.247   1.720   6.142 -0.1560  0.0944  0.4960
   95MOL   C38440052   7.339   1.594   6.168  0.2419 -0.4635  0.0355
   95MOL   C38540053   7.320   1.826   6.052  0.3700 -0.6797  0.3769
   95MOL   C38640054   7.127   1.676   6.056 -0.2173 -0.4199  0.0327
   95MOL   H38740055   7.185   1.964   6.481  0.4756 -0.0684  1.7716
   95MOL   H38840056   7.344   1.985   6.522  0.2060 -0.9320 -0.4609
   95MOL   H38940057   7.408   1.840   6.309  0.7893  0.6530  1.1103
   95MOL   H39040058   7.148   1.709   6.325  0.0719 -0.4014 -0.0473
   95MOL   H39140059   7.129   1.861   6.246  0.1191 -0.6836 -1.8586
   95MOL   H39240060   7.419   1.631   6.233 -0.4175  1.0069  0.0088
   95MOL   H39340061   7.292   1.504   6.209 -2.1887  1.2525  1.0940
   95MOL   H39440062   7.375   1.556   6.072  1.3081 -0.7785  0.5432
   95MOL   H39540063   7.263   1.918   6.043  2.0251  0.3057 -0.3388
   95MOL   H39640064   7.331   1.779   5.954 -3.7782  1.0874 -1.0677
   95MOL   H39740065   7.407   1.854   6.111 -1.7961  0.7618  2.9552
   95MOL   H39840066   7.054   1.757   6.060  1.3022  0.9259  1.3783
   95MOL   H39940067   7.081   1.590   6.105  1.2114 -0.9844  0.4070
   95MOL   H40040068   7.151   1.656   5.951 -2.3004 -1.7920 -0.2058
   95MOL   C40140069   7.342   1.726   6.473  0.0293 -0.2328 -0.7696
   95MOL   C40240070   7.477   1.740   6.547  0.5715  0.1731  0.3908
   95MOL   C40340071   7.587   1.655   6.478  0.6953 -0.4872 -0.0200
   95MOL   C40440072   7.706   1.620   6.559 -1.2836 -0.5769  0.2335
   95MOL   C40540073   0.025   1.748   6.573 -0.4694 -0.1557  0.6357
   95MOL   C40640074   0.025   1.510   6.491 -0.1363  0.1648 -0.4305
   95MOL   C40740075   7.667   1.571   6.701 -0.0641  0.6508 -0.7110
   95MOL   H40840076   7.268   1.732   6.553  0.1887 -0.6932 -0.5868
   95MOL   H40940077   7.327   1.626   6.433  0.5327 -0.7395  0.2873
   95MOL   H41040078   7.511   1.844   6.553  0.5596  0.0747  2.4612
   95MOL   H41140079   7.616   1.717   6.394  0.7038  0.3783  0.6055
   95MOL   H41240080   7.542   1.563   6.441 -3.1974  0.9543  0.8626
   95MOL   H41340081   0.055   1.793   6.479  1.1289 -0.0720  1.1797
   95MOL   H41440082   0.121   1.734   6.621 -1.4151  0.8828  2.8819
   95MOL   H41540083   7.739   1.819   6.637 -0.1383 -1.0052  1.8620
   95MOL   H41640084   0.114   1.483   6.548  1.0202 -1.2114 -2.8095
   95MOL   H41740085   0.066   1.527   6.391  0.8137 -2.6164 -0.5544
   95MOL   H41840086   7.738   1.417   6.468 -1.9479  0.6199  1.7593
   95MOL   H41940087   7.598   1.488   6.685  1.8372 -0.8998 -0.9111
   95MOL   H42040088   7.756   1.537   6.753 -1.0463 -1.0235 -0.0917
   95MOL   H42140089   7.623   1.651   6.762  2.6202 -1.0208  3.6365
   95MOL   H42240090   7.458   1.713   6.651 -0.3443 -1.4876 -0.1872
   96MOL     C140091   4.560   2.137   4.018 -0.4616  0.5151  0.5550
   96MOL     C240092   4.513   2.234   3.913  0.0178  0.4633  0.2248
   96MOL     C340093   4.360   2.218   3.897 -0.1903  0.1456  0.0419
   96MOL     C440094   4.265   2.317   3.963  0.2392  0.2972  0.1469
   96MOL     C540095   4.124   2.248   3.950  0.4171 -0.6834 -0.6183
   96MOL     C640096   4.291   2.341   4.113  0.6024 -0.3279 -1.4107
   96MOL     C740097   4.269   2.458   3.891 -0.9286  0.2673 -0.4913
   96MOL     H840098   4.533   2.039   3.978  1.2206  0.8620 -1.5200
   96MOL     H940099   4.668   2.127   4.036 -0.1604 -0.3001 -1.5394
   96MOL    H1040100   4.530   2.338   3.941 -1.5956  0.3602  1.6432
   96MOL    H1140101   4.333   2.114   3.912  1.5984 -0.6469 -1.9898
   96MOL    H1240102   4.328   2.226   3.793  0.0280  1.9544  0.0951
   96MOL    H1340103   4.110   2.157   4.008 -0.0547  0.7732  1.6275
   96MOL    H1440104   4.103   2.239   3.843  0.5805 -0.3423 -0.6797
   96MOL    H1540105   4.046   2.317   3.981 -0.1822  0.4089 -4.2834
   96MOL    H1640106   4.228   2.419   4.154  2.4684  0.7565 -0.5520
   96MOL    H1740107   4.271   2.256   4.179 -0.3361  1.0238  0.0678
   96MOL    H1840108   4.386   2.389   4.133  0.1846  0.1838 -0.6246
   96MOL    H1940109   4.370   2.497   3.894 -1.0664  0.5146  1.2679
   96MOL    H2040110   4.198   2.533   3.925  0.7451  1.7803 -0.3385
   96MOL    H2140111   4.237   2.446   3.787  0.1108  1.9762 -1.0270
   96MOL    H2240112   4.531   2.164   4.119  0.4090  0.7020  0.7590
   96MOL    C2340113   4.591   2.217   3.783 -0.5738  0.3713 -0.3396
   96MOL    C2440114   4.740   2.191   3.789  0.3696  0.6115  0.0687
   96MOL    C2540115   4.818   2.320   3.841  0.3912 -0.0824  0.6136
   96MOL    C2640116   4.950   2.314   3.924  0.5358 -0.6009  0.2738
   96MOL    C2740117   4.997   2.447   3.976  0.3903 -0.2331  0.6651
   96MOL    C2840118   4.916   2.225   4.048  0.2952  0.5923 -0.0749
   96MOL    C2940119   5.065   2.255   3.842 -0.0599  0.1788  0.2098
   96MOL    H3040120   4.549   2.131   3.732 -1.0734 -1.0662  2.4052
   96MOL    H3140121   4.564   2.299   3.716  2.6499  0.2372 -1.8885
   96MOL    H3240122   4.760   2.103   3.850 -0.6677  0.5564  0.3441
   96MOL    H3340123   4.750   2.391   3.886 -1.8902 -1.0438 -1.1838
   96MOL    H3440124   4.826   2.369   3.744 -0.0604 -0.4357  0.3957
   96MOL    H3540125   5.061   2.438   4.064 -0.2345 -1.2085  1.0219
   96MOL    H3640126   5.046   2.511   3.902  0.1664  0.7755  1.3764
   96MOL    H3740127   4.909   2.506   4.005  1.0012  0.9129  0.2337
   96MOL    H3840128   4.892   2.124   4.013 -2.3742  1.3026 -0.3990
   96MOL    H3940129   4.998   2.213   4.118 -1.3799  1.0807  2.0285
   96MOL    H4040130   4.825   2.264   4.095 -1.4525  0.1148 -2.9061
   96MOL    H4140131   5.073   2.304   3.745 -0.2316  0.8958  0.5511
   96MOL    H4240132   5.032   2.154   3.818 -2.0289  1.3970 -2.5790
   96MOL    H4340133   5.164   2.238   3.884  0.3181  1.1900 -0.2531
   96MOL    C4440134   4.802   2.155   3.647 -0.0934 -0.0035 -0.7935
   96MOL    C4540135   4.783   2.011   3.592 -0.1385  0.1715 -0.1182
   96MOL    C4640136   4.856   1.907   3.678 -0.0139 -0.2814 -0.4459
   96MOL    C4740137   4.788   1.767   3.718  0.4816 -0.5567 -0.2001
   96MOL    C4840138   4.769   1.684   3.593  0.0881 -0.2017  0.4849
   96MOL    C4940139   4.645   1.777   3.776  0.6002 -0.0440  0.2032
   96MOL    C5040140   4.876   1.695   3.821  0.0275  0.3139  0.1646
   96MOL    H5140141   4.746   2.223   3.582 -0.6238 -0.4641 -0.8226
   96MOL    H5240142   4.908   2.177   3.638  0.2153  0.3770  3.1110
   96MOL    H5340143   4.677   1.990   3.601 -0.5270  1.2533 -1.8492
   96MOL    H5440144   4.894   1.944   3.773  2.7855 -3.2662 -0.2939
   96MOL    H5540145   4.944   1.877   3.620  0.1167 -0.5974 -0.0917
   96MOL    H5640146   4.690   1.722   3.528 -1.2419 -1.8948  1.0535
   96MOL    H5740147   4.742   1.581   3.618 -1.3689 -0.3574 -1.6040
   96MOL    H5840148   4.858   1.674   3.532 -0.8173 -2.3805 -0.5548
   96MOL    H5940149   4.574   1.822   3.706 -0.8290  0.7929  2.1566
   96MOL    H6040150   4.597   1.681   3.794 -3.0077  1.8362  1.0821
   96MOL    H6140151   4.646   1.840   3.864 -2.1924 -0.6361  0.7123
   96MOL    H6240152   4.973   1.672   3.775  0.3522  0.9042  0.5508
   96MOL    H6340153   4.897   1.755   3.909  0.0086 -1.7753  1.6128
   96MOL    H6440154   4.822   1.604   3.845  2.1325 -0.7070  1.1527
   96MOL    C6540155   4.821   1.992   3.445 -0.0349  0.1741  0.4498
   96MOL    C6640156   4.724   2.035   3.337  0.3585  0.3782 -0.5859
   96MOL    C6740157   4.600   1.940   3.344  0.6962 -0.0188  0.3853
   96MOL    C6840158   4.459   2.004   3.330  0.2024 -0.1756 -0.1624
   96MOL    C6940159   4.364   1.884   3.321 -0.1852  0.0588  0.0215
   96MOL    C7040160   4.425   2.094   3.448  0.5060  0.3327 -0.4047
   96MOL    C7140161   4.446   2.075   3.196  0.0704  0.0841 -0.1395
   96MOL    H7240162   4.917   2.045   3.440  1.7562 -2.8423  1.4328
   96MOL    H7340163   4.849   1.889   3.422  0.5180  0.2828  0.6259
   96MOL    H7440164   4.692   2.135   3.368  1.4999  0.4647  0.3763
   96MOL    H7540165   4.609   1.883   3.436  0.0882 -0.2416  0.3065
   96MOL    H7640166   4.604   1.854   3.277 -1.6993 -0.1254  0.3576
   96MOL    H7740167   4.383   1.811   3.399  0.2857 -1.1443 -1.1934
   96MOL    H7840168   4.258   1.908   3.331 -0.2107  0.7448 -1.6553
   96MOL    H7940169   4.383   1.821   3.234 -1.8304 -2.8670  1.7057
   96MOL    H8040170   4.326   2.138   3.442  0.0573 -0.2702  2.0638
   96MOL    H8140171   4.492   2.180   3.460  0.6519 -0.2708  3.5983
   96MOL    H8240172   4.435   2.040   3.542  0.1126  2.0459  0.6398
   96MOL    H8340173   4.344   2.110   3.181 -0.5186 -0.9179  1.3813
   96MOL    H8440174   4.471   2.006   3.116 -2.3993 -0.4312 -0.5223
   96MOL    H8540175   4.513   2.160   3.198  0.0426  0.0771  1.5208
   96MOL    C8640176   4.794   2.040   3.203 -0.3639 -0.0424  0.7985
   96MOL    C8740177   4.897   2.153   3.166  0.2748 -0.3341  0.3893
   96MOL    C8840178   4.838   2.295   3.176  0.8690  0.8433  0.0940
   96MOL    C8940179   4.929   2.414   3.216 -0.0516 -0.1882 -0.8319
   96MOL    C9040180   5.070   2.420   3.156  0.0765 -0.5275 -0.2535
   96MOL    C9140181   4.938   2.413   3.375 -0.2806 -0.7095  0.5200
   96MOL    C9240182   4.860   2.548   3.181  0.2158 -0.0527 -0.5740
   96MOL    H9340183   4.726   2.050   3.119 -2.4820  1.2755  2.6255
   96MOL    H9440184   4.847   1.945   3.191  0.7606  0.7402 -0.6099
   96MOL    H9540185   4.986   2.149   3.228  0.7366  0.5270 -0.2290
   96MOL    H9640186   4.753   2.306   3.244  1.3343 -0.1963  0.8379
   96MOL    H9740187   4.787   2.313   3.081  0.0675  1.5051  0.6322
   96MOL    H9840188   5.134   2.338   3.188  1.9283  0.8934 -0.2294
   96MOL    H9940189   5.122   2.509   3.191 -2.3188  0.8586 -0.0595
   96MOL   H10040190   5.062   2.421   3.048 -0.2246  1.0768 -0.2266
   96MOL   H10140191   4.988   2.325   3.415  3.5891  1.3118  0.3024
   96MOL   H10240192   5.010   2.491   3.400 -1.2517  0.2360  0.3909
   96MOL   H10340193   4.849   2.428   3.437 -0.5351 -0.6190  0.1372
   96MOL   H10440194   4.881   2.580   3.079  0.4922  0.7192 -0.2747
   96MOL   H10540195   4.754   2.552   3.206  0.5689  2.0258  0.6482
   96MOL   H10640196   4.910   2.625   3.239 -0.2670 -0.8552  0.9371
   96MOL   C10740197   4.952   2.124   3.025  0.1932  0.5441 -1.1179
   96MOL   C10840198   5.064   2.014   3.017 -0.2504  0.0696 -0.1464
   96MOL   C10940199   5.095   2.004   2.863 -0.6313  0.1504  0.0390
   96MOL   C11040200   5.042   1.885   2.779  0.3862  0.2127 -0.6030
   96MOL   C11140201   4.888   1.899   2.775 -0.5533 -0.5684  0.0970
   96MOL   C11240202   5.086   1.754   2.851 -0.3494  0.5479  0.2607
   96MOL   C11340203   5.084   1.888   2.628  0.1727  0.0448 -0.6048
   96MOL   H11440204   4.986   2.220   2.987  0.6522  0.8602  0.0778
   96MOL   H11540205   4.874   2.110   2.950  0.4695 -1.3038 -1.0861
   96MOL   H11640206   5.020   1.927   3.066 -1.0054  0.4551 -0.1285
   96MOL   H11740207   5.096   2.102   2.814  2.2362 -0.2716 -0.8906
   96MOL   H11840208   5.203   1.990   2.856 -0.4648  0.8607  1.1303
   96MOL   H11940209   4.840   1.881   2.871  1.0276 -3.2038  0.4331
   96MOL   H12040210   4.860   2.002   2.750 -1.2205 -1.0903 -1.3730
   96MOL   H12140211   4.836   1.839   2.700 -0.4744  0.6334 -0.9338
   96MOL   H12240212   5.055   1.742   2.955  0.9222 -0.5869  0.5237
   96MOL   H12340213   5.193   1.736   2.857 -0.7545 -3.9315 -3.5041
   96MOL   H12440214   5.052   1.668   2.794 -0.2279 -0.4885  1.7224
   96MOL   H12540215   5.193   1.891   2.621  0.2499  2.4226  0.9459
   96MOL   H12640216   5.049   1.975   2.572  0.6317 -1.1123 -2.7385
   96MOL   H12740217   5.061   1.797   2.573 -2.8825  1.4406 -1.7239
   96MOL   C12840218   5.199   2.043   3.101  0.2806  0.1059 -0.3131
   96MOL   C12940219   5.306   1.926   3.115 -0.3496  0.1947  0.5824
   96MOL   C13040220   5.442   1.972   3.173 -0.3225 -1.1946  0.1602
   96MOL   C13140221   5.576   1.936   3.109 -0.1273 -0.0008  0.9645
   96MOL   C13240222   5.593   2.005   2.969 -0.3841 -0.2291 -0.1600
   96MOL   C13340223   5.585   1.783   3.084  0.3302 -0.2537 -0.3338
   96MOL   C13440224   5.683   1.981   3.205 -0.6501 -0.1144 -0.2889
   96MOL   H13540225   5.166   2.082   3.197 -1.9131  1.5747 -1.6055
   96MOL   H13640226   5.238   2.136   3.059 -2.4336  0.8886 -1.1927
   96MOL   H13740227   5.327   1.903   3.011 -0.1767 -0.8123  0.8359
   96MOL   H13840228   5.439   2.080   3.187  1.2270 -1.2032  0.6982
   96MOL   H13940229   5.450   1.951   3.280  0.1946  3.3151  1.1357
   96MOL   H14040230   5.690   1.983   2.924 -2.0996 -1.0573 -3.5917
   96MOL   H14140231   5.555   2.107   2.970 -0.7663 -0.3726  1.8678
   96MOL   H14240232   5.526   1.958   2.898  3.1452 -0.8694 -3.2348
   96MOL   H14340233   5.673   1.774   3.021  1.5465 -0.1315  1.3146
   96MOL   H14440234   5.507   1.738   3.023  0.2966  0.9025 -1.1658
   96MOL   H14540235   5.605   1.724   3.174  1.5865  0.4659 -0.1231
   96MOL   H14640236   5.681   1.924   3.298 -1.6956  1.6613  0.8075
   96MOL   H14740237   5.778   1.963   3.155  0.2590 -2.4272  2.1045
   96MOL   H14840238   5.690   2.086   3.230  0.5942 -0.4403  0.7889
   96MOL   C14940239   5.254   1.793   3.186  0.2422 -0.1414  0.1461
   96MOL   C15040240   5.239   1.786   3.343 -0.5721 -0.7595  0.0612
   96MOL   C15140241   5.214   1.915   3.432 -0.0671  0.1080  0.3745
   96MOL   C15240242   5.290   1.923   3.570 -0.1854  1.2021  0.2823
   96MOL   C15340243   5.441   1.919   3.549 -0.3378 -0.0507  0.2312
   96MOL   C15440244   5.239   1.816   3.668  0.1797 -0.3731  0.2752
   96MOL   C15540245   5.259   2.051   3.641  0.2906 -0.2120 -0.1576
   96MOL   H15640246   5.312   1.705   3.159  1.4466  0.4091  0.8533
   96MOL   H15740247   5.165   1.763   3.132  0.0833 -0.0981  0.3806
   96MOL   H15840248   5.331   1.742   3.380 -0.7179  0.5555  2.1082
   96MOL   H15940249   5.109   1.944   3.441 -0.1788 -0.8963  2.4378
   96MOL   H16040250   5.258   1.999   3.378  0.6817 -0.2777  0.3830
   96MOL   H16140251   5.476   1.835   3.489 -2.0576 -0.6973  0.0929
   96MOL   H16240252   5.487   2.009   3.509  1.3634 -0.3491  1.5063
   96MOL   H16340253   5.491   1.914   3.645 -0.7266  1.1210  0.4985
   96MOL   H16440254   5.267   1.826   3.773 -2.4139  1.0051  0.8653
   96MOL   H16540255   5.273   1.717   3.638 -0.5992 -1.1686  1.9780
   96MOL   H16640256   5.132   1.796   3.670 -0.4172  2.7583  2.4732
   96MOL   H16740257   5.294   2.139   3.586 -0.4708  0.1682 -0.0343
   96MOL   H16840258   5.155   2.085   3.645  0.2089 -0.4681 -0.1004
   96MOL   H16940259   5.298   2.038   3.742 -3.7941 -1.8471  1.3196
   96MOL   C17040260   5.126   1.687   3.369  0.5436  1.4484  0.1285
   96MOL   C17140261   5.142   1.545   3.301 -0.0715 -0.1317  0.2747
   96MOL   C17240262   5.011   1.469   3.333 -0.0254  0.7062  0.0888
   96MOL   C17340263   4.906   1.458   3.220  0.1180  0.2740  0.3950
   96MOL   C17440264   4.961   1.407   3.079  0.7450  0.2548 -0.2616
   96MOL   C17540265   4.829   1.590   3.198  0.2040  0.3554 -0.0395
   96MOL   C17640266   4.805   1.344   3.260 -0.0349 -0.0723 -0.5813
   96MOL   H17740267   5.040   1.741   3.329 -0.4709  0.9853  1.6220
   96MOL   H17840268   5.108   1.670   3.476  0.8479  0.9106  0.0941
   96MOL   H17940269   5.145   1.553   3.192 -0.7940 -0.5428  0.2228
   96MOL   H18040270   5.046   1.366   3.341  2.6518  1.6727  1.6940
   96MOL   H18140271   4.968   1.507   3.426 -1.3256 -1.5993  0.4432
   96MOL   H18240272   5.006   1.309   3.099 -0.2620  0.0533  1.0800
   96MOL   H18340273   4.880   1.385   3.010  1.8732 -0.3824 -1.3893
   96MOL   H18440274   5.028   1.472   3.023  0.2232 -0.1226 -1.3424
   96MOL   H18540275   4.896   1.669   3.164 -0.1493 -0.7433 -3.3917
   96MOL   H18640276   4.763   1.573   3.114  0.5723 -0.2109 -0.2234
   96MOL   H18740277   4.767   1.616   3.284 -0.0693  0.7794 -0.3658
   96MOL   H18840278   4.707   1.354   3.214 -1.9402  1.3555  3.5969
   96MOL   H18940279   4.839   1.242   3.243 -3.5754 -1.8204  2.2058
   96MOL   H19040280   4.801   1.349   3.369  0.9949  0.6544 -0.5646
   96MOL   C19140281   5.273   1.484   3.363  0.7079  0.4215  0.0596
   96MOL   C19240282   5.309   1.334   3.353  0.4896  0.0824  0.7257
   96MOL   C19340283   5.423   1.307   3.460  0.4734  0.8194  0.9746
   96MOL   C19440284   5.372   1.248   3.597  0.3772 -0.9222  0.3463
   96MOL   C19540285   5.493   1.209   3.686 -0.3995 -0.6096 -0.1057
   96MOL   C19640286   5.288   1.112   3.584  0.7371  0.1451 -0.2946
   96MOL   C19740287   5.283   1.358   3.669 -0.6368 -0.0470  0.9889
   96MOL   H19840288   5.346   1.537   3.301 -0.0690  0.4974 -0.7999
   96MOL   H19940289   5.288   1.516   3.466  0.0300 -1.4323  0.7502
   96MOL   H20040290   5.222   1.270   3.369 -0.0193  0.2036 -1.3524
   96MOL   H20140291   5.479   1.400   3.469 -0.1869  1.2966  0.1780
   96MOL   H20240292   5.493   1.241   3.408 -1.1185  1.0953 -1.5984
   96MOL   H20340293   5.549   1.142   3.621  1.1108  1.2699 -0.7914
   96MOL   H20440294   5.565   1.288   3.706  1.2796 -2.0795 -0.2221
   96MOL   H20540295   5.454   1.162   3.776 -1.5540  0.8906  0.2030
   96MOL   H20640296   5.277   1.056   3.677 -1.2338 -0.5305 -0.9202
   96MOL   H20740297   5.184   1.132   3.560  1.0842  3.5600  0.7681
   96MOL   H20840298   5.337   1.054   3.505 -0.9832  0.6281 -1.7574
   96MOL   H20940299   5.198   1.388   3.608  1.3318  3.3361 -0.2344
   96MOL   H21040300   5.232   1.307   3.750  1.7350  0.7381  3.0273
   96MOL   H21140301   5.336   1.443   3.711  1.9757 -1.0434 -0.1670
   96MOL   C21240302   5.361   1.304   3.207 -0.6618 -0.6703 -0.5606
   96MOL   C21340303   5.392   1.161   3.168  0.2550  0.4837 -0.1268
   96MOL   C21440304   5.505   1.157   3.060  0.0180 -0.3554  0.0310
   96MOL   C21540305   5.657   1.187   3.089 -0.4748  0.8184 -0.1261
   96MOL   C21640306   5.703   1.071   3.176  0.4490 -0.0356  0.0980
   96MOL   C21740307   5.733   1.177   2.956  0.4932  0.7951  1.0751
   96MOL   C21840308   5.690   1.330   3.152  0.0684  1.0211  0.0298
   96MOL   H21940309   5.294   1.355   3.137 -2.1549  0.1122  1.3666
   96MOL   H22040310   5.457   1.355   3.201 -1.0658  0.3862  1.4169
   96MOL   H22140311   5.419   1.099   3.254 -2.4321  1.3271  1.3882
   96MOL   H22240312   5.469   1.223   2.980 -1.1204 -2.3380 -1.1392
   96MOL   H22340313   5.509   1.055   3.023  0.7258 -0.6849  1.0061
   96MOL   H22440314   5.657   1.074   3.275 -1.1529 -1.3407 -0.6074
   96MOL   H22540315   5.811   1.081   3.194  0.5791 -0.3337 -0.5089
   96MOL   H22640316   5.699   0.972   3.131 -0.5391  0.4296 -0.8412
   96MOL   H22740317   5.842   1.183   2.964  0.7350 -0.3591 -0.9745
   96MOL   H22840318   5.708   1.078   2.918  0.7805  1.2415 -0.3153
   96MOL   H22940319   5.701   1.255   2.887 -0.4619  0.7871  1.4991
   96MOL   H23040320   5.674   1.328   3.259  0.0783 -0.7952  0.0040
   96MOL   H23140321   5.628   1.403   3.099 -0.6700  0.4791  0.1299
   96MOL   H23240322   5.795   1.358   3.147  0.5977 -1.1463 -1.9009
   96MOL   C23340323   5.262   1.100   3.107 -0.0917  0.5041 -0.4516
   96MOL   C23440324   5.264   0.951   3.076 -0.5988  0.1903 -0.4974
   96MOL   C23540325   5.257   0.864   3.211  0.0375  0.4198 -0.1030
   96MOL   C23640326   5.320   0.719   3.197  0.9035 -0.0500  0.1128
   96MOL   C23740327   5.464   0.734   3.146 -0.8614 -0.2289 -0.0872
   96MOL   C23840328   5.318   0.646   3.327 -0.1857 -0.5033  0.5358
   96MOL   C23940329   5.237   0.631   3.098 -0.0824  0.1583 -0.4348
   96MOL   H24040330   5.248   1.160   3.018  0.8006 -0.4965 -1.2748
   96MOL   H24140331   5.187   1.126   3.182 -0.2356  1.1985 -0.8388
   96MOL   H24240332   5.351   0.919   3.019 -0.2891 -1.3672  0.7926
   96MOL   H24340333   5.305   0.930   3.284 -2.1409  0.6771  1.1406
   96MOL   H24440334   5.164   0.864   3.268  0.9739  0.6193  1.4601
   96MOL   H24540335   5.474   0.713   3.040 -0.7747  0.4380 -0.2147
   96MOL   H24640336   5.522   0.658   3.198 -1.7361 -0.8841 -0.0601
   96MOL   H24740337   5.511   0.832   3.160  1.3844 -1.5083  1.5664
   96MOL   H24840338   5.342   0.541   3.307  0.8989 -0.4431  1.4792
   96MOL   H24940339   5.395   0.686   3.392  1.7237  1.0911 -2.6324
   96MOL   H25040340   5.218   0.643   3.372  0.3828 -1.7519  1.7878
   96MOL   H25140341   5.299   0.542   3.088  1.9274  1.2406  1.9208
   96MOL   H25240342   5.141   0.599   3.139 -0.3342  0.4868 -0.7619
   96MOL   H25340343   5.220   0.670   2.998 -0.6448 -2.4313 -1.3827
   96MOL   C25440344   5.137   0.920   2.989 -0.2232  0.6144  1.0879
   96MOL   C25540345   5.153   0.923   2.833 -0.2060  0.0869  0.1338
   96MOL   C25640346   5.016   0.911   2.766 -0.4846  0.1746  0.2989
   96MOL   C25740347   4.910   1.033   2.779  0.9383 -0.0387  0.2530
   96MOL   C25840348   4.978   1.169   2.786  0.5732 -0.4019 -0.2114
   96MOL   C25940349   4.813   1.026   2.904  0.5273 -0.2037  0.3898
   96MOL   C26040350   4.823   1.033   2.649 -0.7420  0.1672 -0.2652
   96MOL   H26140351   5.060   0.995   3.010 -1.8449 -0.6210 -0.3370
   96MOL   H26240352   5.089   0.832   3.031 -1.6281  2.0972  2.7175
   96MOL   H26340353   5.188   1.022   2.806 -0.7417  0.4859  0.8673
   96MOL   H26440354   5.024   0.882   2.661 -0.6629  0.8416  0.0983
   96MOL   H26540355   4.967   0.830   2.821  0.3102 -0.1920  0.4628
   96MOL   H26640356   5.066   1.185   2.723  0.7113 -0.2531  0.0188
   96MOL   H26740357   5.029   1.175   2.882 -0.9899 -0.4454  0.6300
   96MOL   H26840358   4.912   1.255   2.780 -0.7791 -1.3463  0.9263
   96MOL   H26940359   4.770   0.926   2.909 -0.0758  0.0776  0.8536
   96MOL   H27040360   4.730   1.090   2.874  0.9873  0.5706  0.7458
   96MOL   H27140361   4.845   1.073   2.997  0.3429  1.1670 -0.2294
   96MOL   H27240362   4.742   1.105   2.666 -2.6657 -2.2349  0.9742
   96MOL   H27340363   4.880   1.073   2.564 -1.2461  0.1107 -0.6359
   96MOL   H27440364   4.763   0.945   2.627 -2.0454  0.7484  0.8606
   96MOL   C27540365   5.238   0.806   2.783  0.2398 -0.2903 -0.2312
   96MOL   C27640366   5.306   0.833   2.648 -0.1948  0.4061  0.2654
   96MOL   C27740367   5.434   0.918   2.668  0.2977 -0.1452 -0.0225
   96MOL   C27840368   5.498   1.008   2.547 -0.0989 -0.7557  0.1594
   96MOL   C27940369   5.407   1.107   2.485  0.1217 -0.3987 -0.0726
   96MOL   C28040370   5.623   1.076   2.607 -0.0004  0.0976 -0.1220
   96MOL   C28140371   5.544   0.911   2.434  0.0235  0.6367 -0.0632
   96MOL   H28240372   5.325   0.787   2.845  0.0822  0.4152  0.2088
   96MOL   H28340373   5.182   0.713   2.792  0.2146 -0.3848 -1.3062
   96MOL   H28440374   5.231   0.885   2.588 -1.3015 -0.6417  0.7305
   96MOL   H28540375   5.513   0.858   2.713 -0.1148 -0.0520  0.8265
   96MOL   H28640376   5.403   0.995   2.738 -1.6822 -1.0086  0.0716
   96MOL   H28740377   5.323   1.053   2.442  0.5990 -1.7812  0.6994
   96MOL   H28840378   5.369   1.191   2.544  0.4018  0.9646 -1.8116
   96MOL   H28940379   5.463   1.163   2.411 -0.5933  3.4044  2.1658
   96MOL   H29040380   5.659   1.164   2.554  0.4460  1.6604  2.6631
   96MOL   H29140381   5.704   1.003   2.614  1.7977  1.8503 -1.9696
   96MOL   H29240382   5.608   1.114   2.708 -1.7002  1.0385 -0.7083
   96MOL   H29340383   5.462   0.887   2.367 -0.1178  0.3992  0.1952
   96MOL   H29440384   5.587   0.821   2.479  0.6075  0.6240 -0.6379
   96MOL   H29540385   5.624   0.951   2.372 -0.1861  1.3084  0.0969
   96MOL   C29640386   5.333   0.703   2.570  0.9454  0.5231 -0.0113
   96MOL   C29740387   5.210   0.649   2.488  0.1921  0.3018 -0.4661
   96MOL   C29840388   5.217   0.499   2.462  0.3163  0.3197  0.0317
   96MOL   C29940389   5.141   0.397   2.559 -0.7066 -0.6408  0.8529
   96MOL   C30040390   4.986   0.411   2.553  0.8812 -0.2050 -0.3453
   96MOL   C30140391   5.178   0.256   2.511 -0.0078  0.1678  0.3246
   96MOL   C30240392   5.194   0.402   2.698 -0.4687 -0.8131  0.2416
   96MOL   H30340393   5.361   0.625   2.640 -1.1153  0.4589  0.7797
   96MOL   H30440394   5.417   0.715   2.502  0.1701  1.1742 -0.8778
   96MOL   H30540395   5.136   0.674   2.564  2.2485  0.0585  1.6818
   96MOL   H30640396   5.319   0.460   2.467 -0.4643 -1.8336  0.0718
   96MOL   H30740397   5.194   0.466   2.361  0.8311 -0.4810  0.1722
   96MOL   H30840398   4.957   0.512   2.580  1.2076  0.1704 -1.3669
   96MOL   H30940399   4.956   0.395   2.449  2.7362  1.2326 -1.1243
   96MOL   H31040400   4.935   0.341   2.620  1.5102  1.2112  1.6361
   96MOL   H31140401   5.143   0.177   2.578 -1.6614  1.3082  0.8509
   96MOL   H31240402   5.135   0.241   2.412  2.6205 -1.0773 -0.6563
   96MOL   H31340403   5.284   0.234   2.511 -0.0324 -0.1571  3.2020
   96MOL   H31440404   5.206   0.500   2.746  2.7546 -0.8902 -0.3270
   96MOL   H31540405   5.141   0.331   2.761  1.1222 -0.3269  2.1729
   96MOL   H31640406   5.292   0.356   2.707 -1.5499 -2.9987  1.2528
   96MOL   C31740407   5.198   0.730   2.359  0.2087 -0.0959  0.3169
   96MOL   C31840408   5.052   0.755   2.299 -0.6688 -0.1183  0.5918
   96MOL   C31940409   5.062   0.848   2.176  0.2400  0.0319  0.0682
   96MOL   C32040410   5.089   1.000   2.204  0.2805 -0.7742 -0.3694
   96MOL   C32140411   5.241   1.040   2.181 -0.6569  0.5136  0.3727
   96MOL   C32240412   5.052   1.060   2.343 -0.0102 -0.1127  0.0984
   96MOL   C32340413   5.009   1.077   2.095 -0.0863 -0.4175 -0.3197
   96MOL   H32440414   5.238   0.831   2.370  0.3565 -0.3087  1.7574
   96MOL   H32540415   5.255   0.687   2.276 -0.8894 -1.5192  0.2790
   96MOL   H32640416   4.997   0.799   2.382  2.3633  2.7307  1.1843
   96MOL   H32740417   4.972   0.841   2.114 -0.9018 -0.9786  1.7813
   96MOL   H32840418   5.142   0.813   2.110 -1.0910 -1.2104 -0.9537
   96MOL   H32940419   5.309   0.971   2.230 -2.2419 -0.0183  1.8431
   96MOL   H33040420   5.262   1.138   2.222 -0.1787  0.9518 -0.8831
   96MOL   H33140421   5.265   1.055   2.075 -1.4918 -0.8462 -0.0282
   96MOL   H33240422   5.079   1.163   2.365 -1.3996  0.1806  0.4738
   96MOL   H33340423   4.943   1.063   2.353 -0.3021 -1.9890 -2.2119
   96MOL   H33440424   5.090   1.004   2.428 -3.4916 -1.0613  1.1296
   96MOL   H33540425   4.903   1.055   2.105 -0.1513  0.8814  2.2494
   96MOL   H33640426   5.052   1.041   2.002 -0.7196  0.9017 -1.1219
   96MOL   H33740427   5.027   1.184   2.103  0.9650 -0.5750 -0.4239
   96MOL   C33840428   4.973   0.637   2.259 -0.0205 -0.0862  0.4531
   96MOL   C33940429   4.819   0.639   2.228 -0.0727  0.8673  0.3666
   96MOL   C34040430   4.744   0.676   2.364  0.4549  0.0847  0.9054
   96MOL   C34140431   4.615   0.772   2.357 -0.0266 -0.5097 -0.6929
   96MOL   C34240432   4.514   0.728   2.250  0.2707 -0.3354 -1.0921
   96MOL   C34340433   4.547   0.769   2.500 -0.5086 -0.2833 -0.9177
   96MOL   C34440434   4.669   0.918   2.332 -0.4864  0.7071  0.0733
   96MOL   H34540435   4.991   0.560   2.334  0.3032 -0.0913  0.3688
   96MOL   H34640436   5.017   0.598   2.167 -0.6729  0.6319 -0.1698
   96MOL   H34740437   4.797   0.718   2.156 -2.6739 -1.7433 -1.7860
   96MOL   H34840438   4.813   0.719   2.437  1.1095 -0.0226  0.3515
   96MOL   H34940439   4.710   0.580   2.404 -5.2661  0.2809 -2.9121
   96MOL   H35040440   4.558   0.713   2.151  1.6769 -3.1210 -0.0979
   96MOL   H35140441   4.484   0.624   2.261 -2.1281  0.3779 -0.7249
   96MOL   H35240442   4.435   0.803   2.254  0.1704 -0.4215 -1.4928
   96MOL   H35340443   4.603   0.829   2.571 -2.4090  0.4574 -0.0127
   96MOL   H35440444   4.450   0.819   2.494  0.8411  2.7290  1.3949
   96MOL   H35540445   4.539   0.668   2.538  5.1675 -1.0383 -1.3255
   96MOL   H35640446   4.594   0.997   2.332  0.0159  1.1961  0.9922
   96MOL   H35740447   4.753   0.941   2.397  0.5074 -1.2648 -0.4770
   96MOL   H35840448   4.710   0.924   2.231 -1.8791  0.1821 -0.5245
   96MOL   C35940449   4.769   0.502   2.179  0.5528 -0.2158 -0.5725
   96MOL   C36040450   4.808   0.465   2.030 -0.4450  0.1288 -0.4574
   96MOL   C36140451   4.735   0.557   1.929 -0.1195  0.3956 -0.3947
   96MOL   C36240452   4.818   0.629   1.815 -0.1392 -0.2917 -0.2929
   96MOL   C36340453   4.865   0.537   1.712 -0.3936 -0.3819  0.2677
   96MOL   C36440454   4.931   0.712   1.874  0.1897 -0.2150 -0.0759
   96MOL   C36540455   4.723   0.724   1.746 -0.3888 -0.0335  0.0402
   96MOL   H36640456   4.662   0.490   2.165  0.5155 -0.9734  0.2914
   96MOL   H36740457   4.801   0.422   2.247 -1.0257  0.1954  0.6800
   96MOL   H36840458   4.916   0.473   2.024 -0.3283 -1.6767 -0.8947
   96MOL   H36940459   4.653   0.501   1.883 -1.9709  0.7031  2.3776
   96MOL   H37040460   4.679   0.626   1.992  0.7500  1.5239 -0.8422
   96MOL   H37140461   4.902   0.588   1.623  0.3300 -1.0054  0.1977
   96MOL   H37240462   4.944   0.472   1.751 -0.9271 -0.8175  0.6421
   96MOL   H37340463   4.786   0.468   1.682  0.2412 -2.2528  2.7348
   96MOL   H37440464   4.998   0.652   1.936  0.7685  1.3784  0.8719
   96MOL   H37540465   4.896   0.800   1.927 -2.9315 -0.3758 -1.7412
   96MOL   H37640466   4.977   0.773   1.796  0.9614 -0.8811 -0.1478
   96MOL   H37740467   4.668   0.796   1.806  0.0201 -0.8940  1.4982
   96MOL   H37840468   4.641   0.673   1.695 -1.3781 -0.2722  1.8175
   96MOL   H37940469   4.781   0.783   1.676 -0.9544  0.9416  0.3896
   96MOL   C38040470   4.775   0.317   1.984 -0.1146 -0.2717  0.0640
   96MOL   C38140471   4.871   0.205   2.043 -0.1657  0.1639 -0.5011
   96MOL   C38240472   5.011   0.201   1.972  0.0877  0.4391  0.3438
   96MOL   C38340473   5.138   0.182   2.060 -0.4192 -0.2527  0.2609
   96MOL   C38440474   5.259   0.175   1.964 -0.0140 -0.1740 -0.0479
   96MOL   C38540475   5.142   0.057   2.147 -0.3688  0.5957 -0.0701
   96MOL   C38640476   5.144   0.312   2.142 -0.4579  0.1201 -0.2152
   96MOL   H38740477   4.774   0.311   1.875  0.8952  1.4219 -0.0595
   96MOL   H38840478   4.670   0.301   2.007 -0.1366 -1.2420 -0.6525
   96MOL   H38940479   4.887   0.230   2.148 -2.0157 -1.8141  0.2926
   96MOL   H39040480   5.004   0.120   1.899 -1.1082  0.3426  0.5494
   96MOL   H39140481   5.023   0.285   1.904  1.0067 -1.2175 -1.6031
   96MOL   H39240482   5.252   0.077   1.916 -4.0079 -1.4844  2.9819
   96MOL   H39340483   5.242   0.259   1.897  1.4351 -1.3513 -1.9783
   96MOL   H39440484   5.360   0.179   2.005  0.7638 -0.6595 -1.8652
   96MOL   H39540485   5.130   7.729   2.094 -3.0905 -0.5745  2.4820
   96MOL   H39640486   5.066   0.048   2.224 -0.5546  0.2691 -0.2923
   96MOL   H39740487   5.238   0.055   2.197 -0.1487  2.9093 -0.3359
   96MOL   H39840488   5.242   0.326   2.187 -0.5444  0.2980 -0.0830
   96MOL   H39940489   5.077   0.311   2.228  0.9742 -1.3064  0.8973
   96MOL   H40040490   5.129   0.408   2.091  2.2281  0.7421  0.1091
   96MOL   C40140491   4.815   0.060   2.053 -0.0871 -0.5270 -0.4967
   96MOL   C40240492   4.723   0.041   2.172 -0.0718 -0.0241  0.1526
   96MOL   C40340493   4.651   7.673   2.186 -0.3850  0.3505  0.1519
   96MOL   C40440494   4.550   7.671   2.302 -0.3492  0.7477 -0.1423
   96MOL   C40540495   4.496   7.526   2.324  0.3279 -0.2411 -0.4914
   96MOL   C40640496   4.426   0.000   2.277 -0.2124  0.6275 -0.2754
   96MOL   C40740497   4.619   7.711   2.433 -0.3880 -0.2765 -0.3249
   96MOL   H40840498   4.771   0.025   1.960  1.1073  0.9406 -1.6408
   96MOL   H40940499   4.895   7.757   2.080  0.1954 -0.3756 -0.9381
   96MOL   H41040500   4.771   0.078   2.263 -0.8112  1.0269  0.1311
   96MOL   H41140501   4.715   7.585   2.195 -1.4060 -0.2411  1.9286
   96MOL   H41240502   4.595   7.647   2.096 -1.5043  0.8954  0.6838
   96MOL   H41340503   4.469   7.493   2.223 -1.1150  2.1508 -0.9296
   96MOL   H41440504   4.406   7.528   2.386 -0.6613  2.1001 -1.9104
   96MOL   H41540505   4.567   7.459   2.372 -0.6220 -0.2699  0.8975
   96MOL   H41640506   4.377   7.748   2.181 -2.3880  2.3753  0.4866
   96MOL   H41740507   4.454   0.106   2.277  1.2406  0.2745  2.0104
   96MOL   H41840508   4.347   7.741   2.347  0.2792 -0.1925 -0.0133
   96MOL   H41940509   4.658   0.046   2.424 -0.8632 -0.1018 -0.4268
   96MOL   H42040510   4.554   7.707   2.521  0.5255 -0.2397  0.3668
   96MOL   H42140511   4.703   7.642   2.444 -1.0927 -0.8382  1.8838
   96MOL   H42240512   4.643   0.112   2.149 -0.4593 -0.6371 -0.3895
   97MOL     C140513   5.827   0.412   4.948 -0.1674  0.4295  0.2568
   97MOL     C240514   5.834   0.329   5.072  0.5618 -0.1348 -0.2771
   97MOL     C340515   5.835   0.176   5.043  0.6294  0.1279  0.0639
   97MOL     C440516   5.924   0.069   5.132  0.1549 -0.9584 -0.5219
   97MOL     C540517   5.898   7.693   5.080  0.2407 -0.9960 -0.1121
   97MOL     C640518   6.074   0.095   5.134  0.0038  0.0822 -0.1555
   97MOL     C740519   5.872   0.066   5.273 -0.0394  0.5212  0.1363
   97MOL     H840520   5.854   0.516   4.965  1.4116 -0.0956  1.0926
   97MOL     H940521   5.888   0.369   4.868 -0.6107 -0.1740  0.2355
   97MOL    H1040522   5.929   0.351   5.121 -0.0598  2.1296 -0.0769
   97MOL    H1140523   5.866   0.166   4.939 -0.9632  0.9079 -0.4984
   97MOL    H1240524   5.733   0.139   5.036  0.3160  0.4540  2.5070
   97MOL    H1340525   5.965   7.619   5.124  1.5413  0.6671  0.7521
   97MOL    H1440526   5.903   7.666   4.975  3.8563 -0.8317 -0.0266
   97MOL    H1540527   5.796   7.669   5.112 -0.5627  1.8487 -0.4713
   97MOL    H1640528   6.102   0.160   5.218 -2.5464 -1.9906  2.3903
   97MOL    H1740529   6.132   0.003   5.143  0.1142  0.0966 -0.6944
   97MOL    H1840530   6.107   0.145   5.043  1.2443 -0.2588  0.0975
   97MOL    H1940531   5.899   0.164   5.312 -1.8095  0.7186  0.9409
   97MOL    H2040532   5.918   7.759   5.339 -0.4042  0.7877  0.6956
   97MOL    H2140533   5.763   0.056   5.277  0.1625 -1.5804  0.9862
   97MOL    H2240534   5.729   0.418   4.901 -0.4638 -0.4742  0.7494
   97MOL    C2340535   5.707   0.352   5.164  0.5269 -0.5060  0.3131
   97MOL    C2440536   5.685   0.494   5.222  0.1910  0.0963  0.2636
   97MOL    C2540537   5.787   0.522   5.335 -0.4143  0.6394  0.1461
   97MOL    C2640538   5.877   0.655   5.328  0.7217 -0.0715  0.1781
   97MOL    C2740539   5.963   0.648   5.460  0.2831 -0.4819 -0.5256
   97MOL    C2840540   5.972   0.657   5.214 -0.4347 -0.0642  0.3382
   97MOL    C2940541   5.785   0.776   5.330  0.1056 -0.5181 -0.1782
   97MOL    H3040542   5.617   0.310   5.117 -0.6024  1.7529  0.3834
   97MOL    H3140543   5.714   0.289   5.253  0.1095 -0.1869  0.5767
   97MOL    H3240544   5.708   0.556   5.135  0.9840 -0.0686  0.3502
   97MOL    H3340545   5.857   0.438   5.337 -0.9531  0.1916  0.3309
   97MOL    H3440546   5.738   0.529   5.432  0.7490 -0.6689  0.8426
   97MOL    H3540547   5.910   0.590   5.536 -2.5388  1.4173 -0.9763
   97MOL    H3640548   6.067   0.616   5.467  1.0790  2.0179 -0.4270
   97MOL    H3740549   5.958   0.748   5.504 -0.3613 -0.2289 -1.1757
   97MOL    H3840550   5.917   0.669   5.120 -2.0660 -0.3673  1.2349
   97MOL    H3940551   6.039   0.742   5.221 -0.0513 -0.2522 -0.9542
   97MOL    H4040552   6.035   0.568   5.215  0.2413  0.4207  1.6521
   97MOL    H4140553   5.743   0.794   5.231  1.6168  0.5579 -0.6524
   97MOL    H4240554   5.848   0.864   5.346 -0.0560 -0.3711 -0.3546
   97MOL    H4340555   5.699   0.762   5.396 -2.2442 -1.6294 -3.4005
   97MOL    C4440556   5.530   0.515   5.261 -0.0778 -0.3297  0.2232
   97MOL    C4540557   5.434   0.539   5.142 -0.3265 -0.5458 -0.0035
   97MOL    C4640558   5.456   0.679   5.082  0.1018  0.4512  0.2567
   97MOL    C4740559   5.412   0.700   4.932  0.1235  0.3156 -0.7377
   97MOL    C4840560   5.256   0.714   4.921 -0.7374  0.3005  0.1330
   97MOL    C4940561   5.474   0.588   4.843 -0.1171  0.5519  0.1200
   97MOL    C5040562   5.470   0.838   4.892 -0.3977  0.5387 -0.7033
   97MOL    H5140563   5.504   0.432   5.326  0.1845 -0.4258  0.2049
   97MOL    H5240564   5.521   0.595   5.335 -0.6245  1.6640 -1.9116
   97MOL    H5340565   5.458   0.463   5.068 -2.6286 -0.8887 -0.4119
   97MOL    H5440566   5.558   0.704   5.111  0.4357 -0.8698  0.2295
   97MOL    H5540567   5.410   0.755   5.146  1.4035  3.0754 -1.7981
   97MOL    H5640568   5.211   0.777   4.998 -0.4054 -1.2595  1.6674
   97MOL    H5740569   5.210   0.616   4.930  2.5074 -1.2374  0.8410
   97MOL    H5840570   5.225   0.742   4.821  0.6513 -1.8060 -0.9300
   97MOL    H5940571   5.452   0.629   4.745 -1.1122  0.6561  0.3876
   97MOL    H6040572   5.582   0.590   4.860  0.9341 -1.3314 -5.3702
   97MOL    H6140573   5.429   0.490   4.861  3.5828 -1.4535 -1.0333
   97MOL    H6240574   5.421   0.918   4.946  1.4108  0.9584  0.3626
   97MOL    H6340575   5.577   0.832   4.911 -0.1079 -0.2125 -2.4508
   97MOL    H6440576   5.458   0.867   4.788 -0.3848  0.7293 -0.6512
   97MOL    C6540577   5.288   0.506   5.198 -0.3040  0.2555 -0.6310
   97MOL    C6640578   5.253   0.356   5.238 -0.1446 -0.2437 -0.0468
   97MOL    C6740579   5.269   0.243   5.133 -0.4150  0.1804  0.2067
   97MOL    C6840580   5.305   0.094   5.185 -0.3339  0.1484  0.5599
   97MOL    C6940581   5.332   0.011   5.060  0.9230  0.0118 -0.0474
   97MOL    C7040582   5.438   0.090   5.270 -0.4123  0.0922 -0.4997
   97MOL    C7140583   5.180   0.032   5.265 -0.4030  0.1716 -0.0503
   97MOL    H7240584   5.278   0.579   5.278  1.8283 -0.3162  0.1957
   97MOL    H7340585   5.215   0.552   5.132 -0.5780  1.6021  0.5693
   97MOL    H7440586   5.318   0.337   5.324  0.9845  1.8982 -0.4062
   97MOL    H7540587   5.355   0.267   5.070 -0.8722  0.1952 -0.4100
   97MOL    H7640588   5.181   0.241   5.069  0.5894  1.1067 -1.2412
   97MOL    H7740589   5.418   0.050   5.005  0.8760  0.7074  0.3726
   97MOL    H7840590   5.356   7.674   5.086 -0.3056 -0.1900  0.3070
   97MOL    H7940591   5.242   0.003   4.999 -0.2192  0.6988  1.5140
   97MOL    H8040592   5.465   7.757   5.308 -0.8661  0.3543  0.5224
   97MOL    H8140593   5.423   0.147   5.362  1.1757  1.3103 -0.9870
   97MOL    H8240594   5.527   0.128   5.220 -0.2253  1.0808  0.5534
   97MOL    H8340595   5.088   0.044   5.209 -0.0084 -3.1790 -1.5534
   97MOL    H8440596   5.174   0.076   5.365 -2.3613  0.4659 -0.2862
   97MOL    H8540597   5.193   7.690   5.277  0.5071  0.1055 -1.4728
   97MOL    C8640598   5.098   0.348   5.284  0.4302 -0.5715  0.0771
   97MOL    C8740599   5.053   0.437   5.409  0.6946  0.6701  0.3630
   97MOL    C8840600   5.123   0.388   5.537  0.0064  0.0954 -0.0212
   97MOL    C8940601   5.185   0.502   5.622  0.6460  0.5931  0.6407
   97MOL    C9040602   5.086   0.622   5.643  0.9790 -0.4699  0.4748
   97MOL    C9140603   5.316   0.548   5.560  0.3098 -0.3788  0.6285
   97MOL    C9240604   5.223   0.435   5.761  0.0590 -0.6050  0.1211
   97MOL    H9340605   5.072   0.248   5.319 -1.5628 -0.4945 -1.1285
   97MOL    H9440606   5.026   0.345   5.202 -1.5112 -0.5497  1.7396
   97MOL    H9540607   5.083   0.539   5.384 -1.0517  0.3712 -3.3180
   97MOL    H9640608   5.192   0.309   5.506 -0.9469 -0.4936 -0.6940
   97MOL    H9740609   5.048   0.338   5.599  1.1431  2.6692  3.5863
   97MOL    H9840610   5.143   0.693   5.701 -2.0561  1.4808  1.1779
   97MOL    H9940611   4.988   0.594   5.681  0.5648 -0.6193 -0.6750
   97MOL   H10040612   5.061   0.669   5.548 -1.0730 -1.1125  0.6761
   97MOL   H10140613   5.376   0.611   5.625  2.7058 -0.0419 -1.7985
   97MOL   H10240614   5.373   0.457   5.536  2.0941  1.3330 -1.9659
   97MOL   H10340615   5.292   0.609   5.473 -1.7067 -0.0653  1.3796
   97MOL   H10440616   5.285   0.348   5.739 -0.5448 -0.7970 -0.8343
   97MOL   H10540617   5.270   0.506   5.829 -1.1092 -1.0947  1.4682
   97MOL   H10640618   5.129   0.405   5.807 -1.5083  0.6847 -2.1772
   97MOL   C10740619   4.905   0.439   5.437 -0.1848 -0.0188  0.9814
   97MOL   C10840620   4.834   0.567   5.377 -0.3011  0.4343 -0.1124
   97MOL   C10940621   4.853   0.589   5.220  0.0769 -0.4103 -0.1882
   97MOL   C11040622   4.855   0.736   5.168 -0.3636  0.5617 -0.4112
   97MOL   C11140623   4.977   0.810   5.223  0.1913  0.0520 -0.3812
   97MOL   C11240624   4.740   0.825   5.205 -0.0573 -0.6146  0.4004
   97MOL   C11340625   4.876   0.724   5.015  0.4220 -0.0930  0.1939
   97MOL   H11440626   4.884   0.443   5.544  0.2630 -0.1739  1.0722
   97MOL   H11540627   4.854   0.354   5.391 -2.3960  2.2365 -0.9024
   97MOL   H11640628   4.886   0.653   5.418 -1.4924  0.7295  0.7815
   97MOL   H11740629   4.947   0.549   5.182  1.4025  1.6055  0.8623
   97MOL   H11840630   4.767   0.537   5.179  0.8165 -2.2873  0.5653
   97MOL   H11940631   4.975   0.843   5.327 -1.3048  1.3231 -0.7831
   97MOL   H12040632   5.071   0.764   5.193  0.5676  1.2392 -1.0817
   97MOL   H12140633   4.993   0.904   5.170 -1.3363  1.2364  1.1871
   97MOL   H12240634   4.645   0.787   5.167 -1.0518  0.8055  1.4217
   97MOL   H12340635   4.758   0.918   5.152 -2.3047 -0.9116 -0.9518
   97MOL   H12440636   4.715   0.868   5.302 -1.0438 -1.4286  0.5138
   97MOL   H12540637   4.978   0.696   4.989  0.3161 -0.7464  0.4657
   97MOL   H12640638   4.861   0.812   4.952 -0.8383 -1.1391 -0.9966
   97MOL   H12740639   4.795   0.659   4.981 -0.0013  0.7327 -0.4037
   97MOL   C12840640   4.688   0.579   5.429 -0.3154 -0.1908 -0.2722
   97MOL   C12940641   4.678   0.633   5.574 -0.0123 -0.2372 -0.1068
   97MOL   C13040642   4.678   0.787   5.564 -0.8765 -0.2481 -0.1157
   97MOL   C13140643   4.678   0.874   5.699 -0.4061  0.0878  0.8341
   97MOL   C13240644   4.538   0.885   5.760  1.0002  0.5774  0.0183
   97MOL   C13340645   4.726   1.015   5.656  0.1472 -0.3933 -0.2190
   97MOL   C13440646   4.793   0.823   5.796  0.2385 -0.1272 -0.2307
   97MOL   H13540647   4.636   0.485   5.410 -2.3222  0.9857 -0.7311
   97MOL   H13640648   4.625   0.640   5.364  2.1611  0.5451 -2.0265
   97MOL   H13740649   4.765   0.601   5.630 -0.7791  1.1452  1.9560
   97MOL   H13840650   4.775   0.805   5.517  0.2998 -0.1091  2.2936
   97MOL   H13940651   4.600   0.821   5.497 -0.2340 -1.4512 -1.5061
   97MOL   H14040652   4.535   0.963   5.836  1.1268  0.7551 -0.1589
   97MOL   H14140653   4.507   0.792   5.807 -0.0410  1.0903  0.3608
   97MOL   H14240654   4.455   0.922   5.700  0.2360  0.4448  0.9932
   97MOL   H14340655   4.649   1.060   5.593 -0.8435 -1.0432  0.5257
   97MOL   H14440656   4.821   1.010   5.603  2.3414  0.4446  3.3919
   97MOL   H14540657   4.741   1.086   5.738 -1.2434  0.7878 -0.9538
   97MOL   H14640658   4.773   0.732   5.852 -1.1700 -0.4883 -1.2856
   97MOL   H14740659   4.887   0.806   5.743  1.1983 -0.9718  1.6969
   97MOL   H14840660   4.810   0.899   5.872 -0.8103 -0.1724  0.0503
   97MOL   C14940661   4.559   0.561   5.653  0.0487  0.2634  0.0669
   97MOL   C15040662   4.541   0.406   5.639 -0.3562 -0.2563 -0.5789
   97MOL   C15140663   4.540   0.323   5.770 -0.1243  0.3593  0.2101
   97MOL   C15240664   4.669   0.303   5.863 -0.0488 -0.0488  0.0391
   97MOL   C15340665   4.745   0.437   5.911  0.4477  0.6583 -0.7520
   97MOL   C15440666   4.764   0.215   5.780  0.2712  0.1450  0.1181
   97MOL   C15540667   4.624   0.228   5.990 -0.2828  0.6756 -0.4197
   97MOL   H15640668   4.467   0.619   5.642  0.6663  0.9869 -1.3883
   97MOL   H15740669   4.590   0.589   5.754 -1.1024  1.3458  0.1425
   97MOL   H15840670   4.631   0.373   5.587  0.7084  0.5277  0.7337
   97MOL   H15940671   4.492   0.226   5.753 -1.1474  0.1528  3.8633
   97MOL   H16040672   4.464   0.361   5.839 -1.0659 -0.6861 -0.2232
   97MOL   H16140673   4.664   0.492   5.959  1.3356  2.3624 -1.1636
   97MOL   H16240674   4.828   0.418   5.978  0.4355 -1.0340 -1.2079
   97MOL   H16340675   4.783   0.504   5.833  0.0114 -0.1865 -1.7032
   97MOL   H16440676   4.854   0.189   5.835  0.1312  0.6675  0.6027
   97MOL   H16540677   4.804   0.268   5.693 -0.4026  0.5257  0.0347
   97MOL   H16640678   4.716   0.120   5.760  0.0093 -0.3093  2.7136
   97MOL   H16740679   4.711   0.199   6.049  1.3952  0.8093 -2.7866
   97MOL   H16840680   4.554   0.277   6.059 -1.1208 -0.9229 -0.1233
   97MOL   H16940681   4.564   0.143   5.959  0.0445  0.4594 -0.4523
   97MOL   C17040682   4.418   0.374   5.562  0.4073  0.0746  0.0728
   97MOL   C17140683   4.396   0.240   5.495  0.2673 -0.1632 -1.1105
   97MOL   C17240684   4.494   0.215   5.374  0.0759 -0.0648 -0.2776
   97MOL   C17340685   4.552   0.072   5.365  0.2688 -0.3933 -0.2997
   97MOL   C17440686   4.653   0.045   5.478  0.5550  0.7731 -0.7284
   97MOL   C17540687   4.625   0.065   5.224 -0.0454 -0.1119  1.1227
   97MOL   C17640688   4.441   7.729   5.372 -0.3213  0.8185 -0.0735
   97MOL   H17740689   4.406   0.456   5.492 -2.2570 -1.2943 -1.1152
   97MOL   H17840690   4.331   0.400   5.622 -0.4853 -0.5763 -0.9430
   97MOL   H17940691   4.401   0.157   5.566  0.6469  0.4894 -0.3634
   97MOL   H18040692   4.431   0.237   5.287 -0.5901 -0.3717  0.1173
   97MOL   H18140693   4.576   0.286   5.382 -0.6144  0.4105  3.2467
   97MOL   H18240694   4.685   7.707   5.478 -0.3776  0.4768 -0.5229
   97MOL   H18340695   4.746   0.100   5.466  2.8446 -1.5391  4.8226
   97MOL   H18440696   4.610   0.051   5.578 -1.1817 -0.3261 -1.3807
   97MOL   H18540697   4.707   7.760   5.236 -0.5510 -1.4295 -2.7263
   97MOL   H18640698   4.559   0.033   5.144 -0.1120  1.4730  0.5388
   97MOL   H18740699   4.663   0.160   5.186  2.0494 -1.7520 -1.0748
   97MOL   H18840700   4.369   7.719   5.453 -0.6244 -2.6168 -0.7179
   97MOL   H18940701   4.383   7.741   5.280 -0.3633  1.0136 -0.0205
   97MOL   H19040702   4.500   7.638   5.366 -0.6775  0.4901  1.2733
   97MOL   C19140703   4.245   0.241   5.447 -0.1947  0.4118 -0.0727
   97MOL   C19240704   4.125   0.213   5.548 -0.3899 -0.4382  0.4104
   97MOL   C19340705   4.129   0.059   5.583  0.0668 -0.3883  0.4654
   97MOL   C19440706   4.094   0.022   5.731 -0.2087 -0.1365 -0.3505
   97MOL   C19540707   4.077   7.637   5.732 -0.2155  0.0740 -0.4237
   97MOL   C19640708   3.955   0.073   5.771  0.1252 -0.0915 -0.2040
   97MOL   C19740709   4.206   0.058   5.835  0.0157 -0.2276 -0.0404
   97MOL   H19840710   4.236   0.333   5.388  0.4492  0.8016  0.4412
   97MOL   H19940711   4.238   0.165   5.369 -0.3939  0.2552  0.0968
   97MOL   H20040712   4.137   0.271   5.639 -0.6769  1.3209 -0.6418
   97MOL   H20140713   4.231   0.021   5.580 -0.4466 -1.7147 -0.7319
   97MOL   H20240714   4.087   7.760   5.506  0.8422  0.7026 -0.8854
   97MOL   H20340715   4.178   7.599   5.715  0.2601  1.2294 -0.1725
   97MOL   H20440716   4.052   7.579   5.822 -1.2311 -0.1303 -0.8226
   97MOL   H20540717   3.999   7.604   5.663 -0.9438 -0.5830  0.6902
   97MOL   H20640718   3.873   0.046   5.705  0.8990 -1.3814 -0.6485
   97MOL   H20740719   3.931   0.057   5.876  0.1478  0.3749 -0.1255
   97MOL   H20840720   3.956   0.182   5.774  0.0122 -0.1045  0.3953
   97MOL   H20940721   4.242   0.159   5.823 -0.7229 -0.2700 -2.7798
   97MOL   H21040722   4.172   0.056   5.939  0.2535  1.8963  0.0855
   97MOL   H21140723   4.292   7.758   5.825  0.9326  0.7008  1.5976
   97MOL   C21240724   3.995   0.244   5.479  0.8075  0.6893 -0.2405
   97MOL   C21340725   3.974   0.396   5.465 -0.0537 -0.2161 -0.2157
   97MOL   C21440726   3.928   0.450   5.602  0.0607  0.4432 -0.0592
   97MOL   C21540727   3.956   0.601   5.636  0.6045  0.6078 -0.6110
   97MOL   C21640728   3.883   0.706   5.548 -0.4818  0.4603  0.5199
   97MOL   C21740729   3.909   0.617   5.783 -0.2323  0.1515 -0.0287
   97MOL   C21840730   4.108   0.628   5.629  0.4717 -0.4689 -0.0011
   97MOL   H21940731   3.990   0.192   5.383  2.3733  1.1731 -0.5894
   97MOL   H22040732   3.904   0.209   5.527  1.4412  1.9738  1.9612
   97MOL   H22140733   4.070   0.446   5.455  1.3336 -2.1674  2.5920
   97MOL   H22240734   3.961   0.386   5.684  0.2882  1.8699  0.9803
   97MOL   H22340735   3.821   0.439   5.588 -0.1662  4.3507 -2.1526
   97MOL   H22440736   3.918   0.804   5.581  0.8344  0.5785 -1.1309
   97MOL   H22540737   3.775   0.695   5.552 -0.4687  0.0294 -0.1699
   97MOL   H22640738   3.904   0.692   5.442 -0.7138 -0.9567  0.6499
   97MOL   H22740739   3.814   0.567   5.799 -0.1581 -0.5407 -1.6876
   97MOL   H22840740   3.973   0.573   5.859 -0.0786 -0.1879 -0.3562
   97MOL   H22940741   3.890   0.722   5.804  1.9542  0.3172  1.2482
   97MOL   H23040742   4.130   0.725   5.675 -1.6630  0.8664 -1.6782
   97MOL   H23140743   4.148   0.634   5.528 -1.6608 -2.5064 -1.0010
   97MOL   H23240744   4.162   0.549   5.682  0.3381 -0.6240 -0.0972
   97MOL   C23340745   3.872   0.422   5.352  0.5291 -0.2190  0.1146
   97MOL   C23440746   3.924   0.404   5.208 -0.8265 -0.1699 -0.3267
   97MOL   C23540747   3.802   0.378   5.111  0.2518  0.0985 -0.0295
   97MOL   C23640748   3.727   0.240   5.097  0.0149 -0.0566 -0.4391
   97MOL   C23740749   3.632   0.248   4.976  0.7498 -0.0163 -0.1454
   97MOL   C23840750   3.831   0.126   5.079 -0.0209  0.2432  0.1145
   97MOL   C23940751   3.624   0.201   5.208  0.0541 -0.3897  0.2895
   97MOL   H24040752   3.824   0.520   5.360  1.7976  0.2662  2.3507
   97MOL   H24140753   3.779   0.365   5.358  0.9176 -0.8171  0.4663
   97MOL   H24240754   3.982   0.313   5.191  0.1244 -0.0482  2.0690
   97MOL   H24340755   3.733   0.457   5.138  2.3531  1.6745  0.8437
   97MOL   H24440756   3.835   0.408   5.011  1.2153 -1.3637 -0.1734
   97MOL   H24540757   3.584   0.345   4.985 -0.7415 -0.7758  0.1421
   97MOL   H24640758   3.554   0.173   4.968  0.9446 -0.1967 -0.3390
   97MOL   H24740759   3.683   0.259   4.880  0.4285  0.3968 -0.2696
   97MOL   H24840760   3.916   0.159   5.018 -0.2370 -0.4599 -0.5634
   97MOL   H24940761   3.869   0.123   5.181 -1.1536 -1.5316  0.4909
   97MOL   H25040762   3.795   0.026   5.058 -0.5399  0.1416  1.4413
   97MOL   H25140763   3.549   0.279   5.209 -0.4564 -0.8845  1.3426
   97MOL   H25240764   3.572   0.105   5.207  0.6123 -0.6952  0.3391
   97MOL   H25340765   3.672   0.195   5.306  0.1763  0.5630  0.2944
   97MOL   C25440766   3.996   0.541   5.171 -0.0336 -0.3366 -0.6454
   97MOL   C25540767   4.053   0.559   5.029 -0.0986  0.8431  0.0284
   97MOL   C25640768   4.175   0.455   5.010 -0.1726 -0.4483 -0.1985
   97MOL   C25740769   4.198   0.395   4.867  0.4514 -0.3859  0.6131
   97MOL   C25840770   4.211   0.493   4.750  0.2582  0.1363  0.3474
   97MOL   C25940771   4.084   0.305   4.829  0.3674 -0.3728 -0.4020
   97MOL   C26040772   4.330   0.308   4.869  0.2073  0.1465 -0.0207
   97MOL   H26140773   4.078   0.554   5.241 -0.2251 -1.6497 -0.1521
   97MOL   H26240774   3.925   0.623   5.187  1.5656  1.0456 -0.5717
   97MOL   H26340775   3.983   0.543   4.948 -0.5164  0.9855  0.3603
   97MOL   H26440776   4.263   0.504   5.049 -0.1192 -0.0325 -0.8295
   97MOL   H26540777   4.158   0.372   5.079  1.6208 -0.4775  0.2174
   97MOL   H26640778   4.230   0.435   4.660  0.4631  1.8067 -0.7102
   97MOL   H26740779   4.294   0.560   4.772  0.0859  0.3161  0.4480
   97MOL   H26840780   4.125   0.557   4.729  1.7516  1.5548 -1.6227
   97MOL   H26940781   4.103   0.255   4.734 -0.7384 -0.1361 -0.7623
   97MOL   H27040782   3.989   0.358   4.822  0.1693 -0.8382 -1.2720
   97MOL   H27140783   4.069   0.235   4.911 -1.6927 -0.7603 -1.0894
   97MOL   H27240784   4.415   0.373   4.890  1.4086 -0.4808 -2.7618
   97MOL   H27340785   4.322   0.222   4.935  0.5359 -0.4242 -0.7179
   97MOL   H27440786   4.352   0.284   4.765  3.7130  1.3477  0.3750
   97MOL   C27540787   4.118   0.699   5.025  0.1539  0.6232 -0.3536
   97MOL   C27640788   4.005   0.815   5.026 -0.6034  0.1162  0.2660
   97MOL   C27740789   4.061   0.945   5.070  0.1248 -0.0353 -0.3713
   97MOL   C27840790   4.090   0.985   5.221  0.0837 -0.5088  0.5020
   97MOL   C27940791   4.142   1.129   5.228 -0.4765  0.2557 -0.6256
   97MOL   C28040792   3.953   0.972   5.297  0.8280 -0.1925 -0.1545
   97MOL   C28140793   4.190   0.890   5.293  0.1513  0.5342 -0.2430
   97MOL   H28240794   4.190   0.701   5.106 -1.2303  0.0392  0.9288
   97MOL   H28340795   4.184   0.713   4.939 -1.8724 -0.7547 -2.2208
   97MOL   H28440796   3.922   0.789   5.091 -0.1464 -1.5528  0.2205
   97MOL   H28540797   3.988   1.018   5.035 -0.6612  0.4719  2.2056
   97MOL   H28640798   4.152   0.957   5.011  1.9883 -1.5486  2.0899
   97MOL   H28740799   4.061   1.202   5.225 -1.8144 -1.1033  1.3094
   97MOL   H28840800   4.200   1.149   5.318 -0.8182 -0.1839 -0.3030
   97MOL   H28940801   4.212   1.156   5.150 -0.4482 -2.1389 -1.4650
   97MOL   H29040802   3.933   0.865   5.311 -0.1213  0.0136  0.1190
   97MOL   H29140803   3.871   1.018   5.243  0.7586  1.2100  1.1068
   97MOL   H29240804   3.956   1.012   5.399 -1.5181  2.5278 -1.0917
   97MOL   H29340805   4.286   0.888   5.242  1.4553  3.3969  1.9769
   97MOL   H29440806   4.155   0.786   5.290  0.5190  0.4430 -2.0725
   97MOL   H29540807   4.217   0.919   5.395  0.6430 -0.4628 -0.0787
   97MOL   C29640808   3.948   0.819   4.877 -0.3943 -0.4940  0.6891
   97MOL   C29740809   3.803   0.867   4.861  0.1743 -0.1682 -0.5172
   97MOL   C29840810   3.689   0.777   4.937  0.2417 -0.2130 -0.6985
   97MOL   C29940811   3.566   0.841   4.990 -0.1417  0.4429  0.5818
   97MOL   C30040812   3.605   0.971   5.075  0.2013 -0.3108 -0.1402
   97MOL   C30140813   3.457   0.888   4.893 -0.2395  0.2333 -0.2985
   97MOL   C30240814   3.495   0.741   5.081  0.5602 -0.4811 -0.2590
   97MOL   H30340815   3.951   0.716   4.842  2.2850 -0.4793  0.7869
   97MOL   H30440816   4.021   0.877   4.821 -1.6023  2.6899  2.3037
   97MOL   H30540817   3.804   0.973   4.884  0.3370  0.3200 -2.6125
   97MOL   H30640818   3.732   0.744   5.032 -2.1698 -0.0845  0.4676
   97MOL   H30740819   3.665   0.684   4.886  0.5467 -1.7269  1.8128
   97MOL   H30840820   3.685   0.945   5.144  0.7618  0.8722 -0.3402
   97MOL   H30940821   3.636   1.050   5.006  0.3165  0.6940  1.0415
   97MOL   H31040822   3.523   1.012   5.134  1.1217  2.0593 -0.4512
   97MOL   H31140823   3.414   0.806   4.835 -2.8405  0.7679  0.8170
   97MOL   H31240824   3.369   0.931   4.940 -0.3418 -1.2645  0.9062
   97MOL   H31340825   3.507   0.950   4.819  2.0539 -3.1372 -1.7296
   97MOL   H31440826   3.572   0.701   5.147  0.6491  1.3395  0.7620
   97MOL   H31540827   3.420   0.771   5.155  1.7215  0.7422  0.4364
   97MOL   H31640828   3.458   0.655   5.026  2.6971 -1.5361 -0.1079
   97MOL   C31740829   3.759   0.854   4.713 -0.1329 -0.2755  0.2693
   97MOL   C31840830   3.837   0.958   4.627 -0.4444  0.4373 -0.0762
   97MOL   C31940831   3.850   0.913   4.476 -0.2490 -0.3002  0.6542
   97MOL   C32040832   3.959   0.807   4.427 -0.1965 -0.3650 -0.4095
   97MOL   C32140833   4.098   0.856   4.458  0.1029 -0.4660 -0.8299
   97MOL   C32240834   3.945   0.810   4.276 -0.0778 -0.4070  0.5904
   97MOL   C32340835   3.927   0.662   4.470  0.2516 -0.0216  0.1488
   97MOL   H32440836   3.795   0.754   4.688  2.2578  0.3247  1.1187
   97MOL   H32540837   3.652   0.862   4.695 -0.5479 -3.2206  1.1948
   97MOL   H32640838   3.940   0.974   4.661 -0.1543 -1.4648  0.0003
   97MOL   H32740839   3.861   1.003   4.416  1.1484  0.2847  1.7579
   97MOL   H32840840   3.753   0.870   4.450 -1.0275  1.5309  0.4395
   97MOL   H32940841   4.181   0.799   4.417  0.6100 -0.7893  0.6264
   97MOL   H33040842   4.111   0.842   4.565  0.6605  0.3538 -0.7824
   97MOL   H33140843   4.118   0.963   4.443  1.3422 -0.4309  0.9586
   97MOL   H33240844   3.843   0.791   4.240  0.1644  0.1668 -0.4296
   97MOL   H33340845   3.990   0.904   4.244  1.1342 -0.8842  0.8741
   97MOL   H33440846   4.012   0.741   4.225  0.6718  0.4933  0.3407
   97MOL   H33540847   3.826   0.633   4.440 -1.1423  3.8931  0.7318
   97MOL   H33640848   3.950   0.657   4.577  0.6082 -0.8841  0.0319
   97MOL   H33740849   3.987   0.585   4.421 -2.7463 -2.4044  0.1207
   97MOL   C33840850   3.765   1.093   4.627 -0.1377 -0.4504  0.3341
   97MOL   C33940851   3.858   1.218   4.609  0.4618  0.4410  0.8551
   97MOL   C34040852   3.935   1.242   4.732  0.0308  0.1377  0.0617
   97MOL   C34140853   4.084   1.256   4.726  0.0258  0.2214  0.5460
   97MOL   C34240854   4.156   1.129   4.680  0.6478  0.0955 -0.6414
   97MOL   C34340855   4.124   1.375   4.637 -0.1364  0.1794 -0.7192
   97MOL   C34440856   4.136   1.286   4.860  0.0399 -0.1020  0.1403
   97MOL   H34540857   3.721   1.121   4.723 -1.7972  1.5966 -0.9951
   97MOL   H34640858   3.680   1.096   4.560 -0.2131  0.5815  0.4777
   97MOL   H34740859   3.925   1.185   4.529  0.2694 -1.8956  1.6128
   97MOL   H34840860   3.914   1.161   4.802 -0.6640 -1.1561 -1.6147
   97MOL   H34940861   3.901   1.325   4.794 -0.9597  1.7359 -2.5409
   97MOL   H35040862   4.129   1.041   4.738 -0.2274  0.6364 -0.2055
   97MOL   H35140863   4.135   1.119   4.573  1.4283  0.8208 -0.8680
   97MOL   H35240864   4.265   1.127   4.682  0.6331 -2.8085 -0.3863
   97MOL   H35340865   4.222   1.419   4.651 -0.4181  0.4447  0.5588
   97MOL   H35440866   4.117   1.348   4.532 -2.1051 -2.1117 -0.0761
   97MOL   H35540867   4.047   1.450   4.653  0.7808  0.6689  1.5697
   97MOL   H35640868   4.243   1.298   4.845 -0.1673 -0.5048 -1.6924
   97MOL   H35740869   4.101   1.383   4.895  0.4156 -0.8643  2.7546
   97MOL   H35840870   4.124   1.218   4.944  0.2711  1.4464  1.4634
   97MOL   C35940871   3.760   1.336   4.574  0.4618 -0.5145 -0.8539
   97MOL   C36040872   3.724   1.354   4.423  0.4775  0.3569 -0.0955
   97MOL   C36140873   3.850   1.388   4.337  0.1574  0.8388 -0.3255
   97MOL   C36240874   3.855   1.332   4.191  0.2085  0.4578  0.2942
   97MOL   C36340875   3.729   1.380   4.115  0.0320 -0.2385 -0.9080
   97MOL   C36440876   3.862   1.179   4.181 -0.6308  0.3062 -0.3965
   97MOL   C36540877   3.980   1.399   4.127  0.3137  0.1817 -0.0876
   97MOL   H36640878   3.811   1.423   4.614 -1.1219  0.5248 -1.0634
   97MOL   H36740879   3.669   1.321   4.632 -0.1474 -0.1487 -1.6999
   97MOL   H36840880   3.699   1.254   4.386  1.7032  0.5485 -1.4604
   97MOL   H36940881   3.862   1.496   4.346  2.6907  0.6533 -1.0181
   97MOL   H37040882   3.937   1.353   4.393  0.3508  0.3901 -0.8994
   97MOL   H37140883   3.702   1.481   4.148 -1.6530 -0.6822 -0.8941
   97MOL   H37240884   3.743   1.387   4.007 -2.7402 -0.8299 -1.3217
   97MOL   H37340885   3.650   1.306   4.127 -0.5459  0.0683 -2.5942
   97MOL   H37440886   3.936   1.142   4.252  0.1206  2.6427  0.0736
   97MOL   H37540887   3.893   1.140   4.084 -0.0114  0.1284 -0.1320
   97MOL   H37640888   3.776   1.130   4.228  0.1311  0.0448  0.7509
   97MOL   H37740889   3.985   1.373   4.021 -1.7518 -1.0803  0.1001
   97MOL   H37840890   4.066   1.357   4.178  1.2559  0.5913 -1.3305
   97MOL   H37940891   3.979   1.506   4.149 -1.0477 -0.1690  1.6624
   97MOL   C38040892   3.611   1.453   4.415 -0.3506  0.4282 -0.0700
   97MOL   C38140893   3.478   1.392   4.376  0.7591 -0.2818  0.0887
   97MOL   C38240894   3.373   1.495   4.334 -0.1077  0.2264  0.1782
   97MOL   C38340895   3.274   1.475   4.218 -0.9768 -0.0354 -0.3515
   97MOL   C38440896   3.174   1.362   4.252  0.3552  0.1633 -0.3344
   97MOL   C38540897   3.342   1.451   4.086 -0.2800  0.5249 -0.0617
   97MOL   C38640898   3.201   1.607   4.187 -0.8056 -0.1229  0.5645
   97MOL   H38740899   3.642   1.524   4.338 -0.6856 -0.0773 -0.6709
   97MOL   H38840900   3.605   1.510   4.508 -2.6212 -1.4717  0.9940
   97MOL   H38940901   3.495   1.320   4.297  0.1561 -1.6160  1.1468
   97MOL   H39040902   3.311   1.519   4.420  0.2119 -0.8634  0.7155
   97MOL   H39140903   3.420   1.590   4.312 -0.7348  0.5055  0.0253
   97MOL   H39240904   3.083   1.366   4.192  0.5261 -1.2460 -0.7094
   97MOL   H39340905   3.229   1.269   4.240  1.6890  0.6899  1.5289
   97MOL   H39440906   3.156   1.369   4.359  1.4260 -1.3515 -0.0346
   97MOL   H39540907   3.282   1.488   4.002  0.8122 -0.2389 -1.1984
   97MOL   H39640908   3.365   1.348   4.057  0.2842  1.1611 -1.9908
   97MOL   H39740909   3.440   1.500   4.082 -0.1769  0.3074 -0.2131
   97MOL   H39840910   3.157   1.659   4.272  0.0625 -0.3371  1.1514
   97MOL   H39940911   3.128   1.598   4.107 -0.7311  0.9399  0.3665
   97MOL   H40040912   3.270   1.683   4.151 -1.7235  0.2845 -0.3629
   97MOL   C40140913   3.432   1.294   4.490 -0.3214  0.0165 -0.0927
   97MOL   C40240914   3.388   1.360   4.624  0.0975  0.3960  0.2081
   97MOL   C40340915   3.364   1.254   4.733 -0.0931 -0.3313  0.4962
   97MOL   C40440916   3.310   1.309   4.868  0.3131 -0.2275 -0.2318
   97MOL   C40540917   3.296   1.209   4.980 -0.6623  0.0878 -0.7652
   97MOL   C40640918   3.169   1.362   4.858 -0.4222  0.4016  0.2228
   97MOL   C40740919   3.400   1.423   4.912 -0.2759  0.0502 -0.8193
   97MOL   H40840920   3.344   1.236   4.462 -1.5357  1.8862 -0.2199
   97MOL   H40940921   3.508   1.216   4.503  0.7050  0.7920 -1.3414
   97MOL   H41040922   3.470   1.425   4.653 -2.0145  3.0793  0.3315
   97MOL   H41140923   3.469   1.227   4.746 -0.6226 -2.3513  0.7460
   97MOL   H41240924   3.325   1.158   4.698  0.6145  0.3563 -2.2362
   97MOL   H41340925   3.385   1.151   5.005 -2.5166 -2.4951  0.1141
   97MOL   H41440926   3.217   1.138   4.953 -2.2300  1.7672 -0.6806
   97MOL   H41540927   3.264   1.246   5.077  0.5499 -1.1901  0.1487
   97MOL   H41640928   3.104   1.298   4.798 -1.9663 -1.1681  3.4301
   97MOL   H41740929   3.156   1.461   4.816 -0.7814  0.5652  0.7148
   97MOL   H41840930   3.118   1.384   4.952  0.5985  1.6913  0.4959
   97MOL   H41940931   3.384   1.511   4.851 -3.9678 -0.8687 -1.3147
   97MOL   H42040932   3.379   1.457   5.013 -0.7580 -0.1232 -0.8605
   97MOL   H42140933   3.507   1.405   4.914 -0.0483  1.3329 -1.0818
   97MOL   H42240934   3.290   1.408   4.617 -0.1584  0.0659  1.3066
   98MOL     C140935   5.552   1.837   2.237  0.4685  0.8556  0.1621
   98MOL     C240936   5.653   1.872   2.351  0.0332 -0.6996  0.2865
   98MOL     C340937   5.711   2.018   2.330  0.0927  0.0368  0.7353
   98MOL     C440938   5.682   2.107   2.449  0.6894  0.6522 -0.0866
   98MOL     C540939   5.529   2.119   2.471  0.1509 -0.8165 -0.6522
   98MOL     C640940   5.756   2.054   2.574  0.0770 -0.0174  0.1098
   98MOL     C740941   5.733   2.249   2.425 -0.6129  0.6485 -0.7545
   98MOL     H840942   5.452   1.879   2.253 -0.1866 -0.3557 -0.7231
   98MOL     H940943   5.577   1.875   2.138 -0.2461  2.9304  0.7308
   98MOL    H1040944   5.601   1.860   2.447 -0.0593 -3.0244 -0.0259
   98MOL    H1140945   5.661   2.065   2.245  2.0837 -0.0669 -0.5044
   98MOL    H1240946   5.816   2.027   2.304  0.2533 -0.0652  1.3400
   98MOL    H1340947   5.528   2.204   2.539 -0.2170 -1.2613 -0.1012
   98MOL    H1440948   5.478   2.035   2.518  1.7544 -0.2398  2.2459
   98MOL    H1540949   5.480   2.149   2.378 -0.0897 -0.1301 -0.3090
   98MOL    H1640950   5.864   2.053   2.561  0.1134  1.3103  0.2420
   98MOL    H1740951   5.741   2.129   2.652  0.1399  0.3063 -0.1896
   98MOL    H1840952   5.719   1.958   2.610  3.4517 -1.6235 -0.4951
   98MOL    H1940953   5.832   2.262   2.382  0.9943  0.5350  2.7773
   98MOL    H2040954   5.730   2.309   2.516 -2.4439  0.8262 -0.8998
   98MOL    H2140955   5.665   2.289   2.349  0.1450  1.6018 -0.9346
   98MOL    H2240956   5.525   1.732   2.234 -0.5468  1.1553 -2.0386
   98MOL    C2340957   5.775   1.778   2.366 -0.3890 -0.5831 -0.0539
   98MOL    C2440958   5.734   1.636   2.412  0.4709  0.0915 -0.6530
   98MOL    C2540959   5.713   1.624   2.566 -0.0975 -0.0565  0.4114
   98MOL    C2640960   5.576   1.575   2.619 -0.9112  0.2460 -0.3422
   98MOL    C2740961   5.593   1.574   2.771  0.3661 -0.3172 -0.2959
   98MOL    C2840962   5.454   1.671   2.582 -0.2002  0.2191  0.0706
   98MOL    C2940963   5.554   1.429   2.575  0.3944 -0.2245 -0.4560
   98MOL    H3040964   5.830   1.775   2.272 -0.7225  0.4991 -0.3006
   98MOL    H3140965   5.841   1.830   2.436 -1.2928  2.3369 -1.2773
   98MOL    H3240966   5.635   1.611   2.374  0.2561 -1.5370  0.9147
   98MOL    H3340967   5.725   1.726   2.603 -4.1170  0.5005  0.4324
   98MOL    H3440968   5.799   1.567   2.602  0.3738 -0.2912 -1.0721
   98MOL    H3540969   5.504   1.531   2.816  0.3138  0.6129  0.5047
   98MOL    H3640970   5.686   1.523   2.797 -0.0041  0.0314  1.7997
   98MOL    H3740971   5.599   1.671   2.820 -2.5590 -0.8071  1.1275
   98MOL    H3840972   5.438   1.669   2.475  1.5236  1.8099 -0.2342
   98MOL    H3940973   5.368   1.625   2.631  0.2979  0.1401  0.8974
   98MOL    H4040974   5.469   1.771   2.621 -0.3616  0.2029  0.1739
   98MOL    H4140975   5.558   1.398   2.471  0.3657 -0.9459 -0.2393
   98MOL    H4240976   5.461   1.390   2.616  0.0542  1.5546  0.5280
   98MOL    H4340977   5.631   1.364   2.614  0.2714 -0.0508  0.0877
   98MOL    C4440978   5.821   1.518   2.362 -0.5439 -0.0158 -0.0030
   98MOL    C4540979   5.810   1.487   2.208 -0.5874 -0.6140 -0.7672
   98MOL    C4640980   5.710   1.376   2.174  0.2687  0.7208  0.3668
   98MOL    C4740981   5.674   1.342   2.019  0.2055 -0.6196 -0.4226
   98MOL    C4840982   5.596   1.466   1.962  0.3869  0.6107  0.2928
   98MOL    C4940983   5.580   1.219   2.025 -0.2487  0.4975  0.7862
   98MOL    C5040984   5.793   1.314   1.922 -0.0740  0.2083  0.1003
   98MOL    H5140985   5.923   1.539   2.397 -1.5333  0.8185  2.5264
   98MOL    H5240986   5.794   1.429   2.418  1.7953 -0.1805  0.9243
   98MOL    H5340987   5.775   1.575   2.155 -0.6324  1.0581  1.9251
   98MOL    H5440988   5.622   1.398   2.234 -0.3041 -0.3986 -0.0339
   98MOL    H5540989   5.748   1.282   2.213 -1.9025 -0.7113 -0.7869
   98MOL    H5640990   5.551   1.462   1.863 -1.0843  0.5411  0.9469
   98MOL    H5740991   5.657   1.556   1.961 -0.2907  1.0927  1.2856
   98MOL    H5840992   5.508   1.483   2.025 -1.0939 -0.9985 -1.2841
   98MOL    H5940993   5.633   1.131   2.061  2.1858  1.2567 -0.8189
   98MOL    H6040994   5.484   1.234   2.075 -0.9477  1.0709 -0.6802
   98MOL    H6140995   5.547   1.200   1.922  0.3141 -1.2079  0.9125
   98MOL    H6240996   5.864   1.395   1.908  0.2418 -0.0507  0.1890
   98MOL    H6340997   5.845   1.222   1.950 -0.4447 -0.6936 -2.0529
   98MOL    H6440998   5.749   1.299   1.823 -1.4225  0.9823  0.5674
   98MOL    C6540999   5.962   1.463   2.153 -0.1937 -0.3191  0.6934
   98MOL    C6641000   6.040   1.587   2.094 -0.5856 -0.5983  0.0688
   98MOL    C6741001   5.981   1.632   1.961 -0.6504 -0.0462  0.2376
   98MOL    C6841002   6.000   1.783   1.917 -0.0551 -0.4015 -0.1800
   98MOL    C6941003   5.958   1.885   2.029  0.4807 -0.7830  0.2902
   98MOL    C7041004   6.138   1.808   1.851  0.5038 -0.6725 -0.3358
   98MOL    C7141005   5.899   1.807   1.801  0.3439  0.4695 -0.4752
   98MOL    H7241006   6.025   1.420   2.231 -2.5683 -3.4677  0.9939
   98MOL    H7341007   5.974   1.381   2.082  3.0718 -0.7969  1.7226
   98MOL    H7441008   6.026   1.666   2.167  1.3312  0.2946 -0.4892
   98MOL    H7541009   5.876   1.601   1.962 -0.6627 -0.0761 -1.3411
   98MOL    H7641010   6.029   1.574   1.883 -0.9225  1.2322 -0.9017
   98MOL    H7741011   6.037   1.898   2.104  0.2710  2.0281  0.0762
   98MOL    H7841012   5.957   1.986   1.989  2.6298 -0.5009  0.8427
   98MOL    H7941013   5.861   1.858   2.070  0.7290 -0.3905  1.1533
   98MOL    H8041014   6.177   1.735   1.780  2.5612 -1.9126  2.0125
   98MOL    H8141015   6.213   1.821   1.929 -0.6410  1.0008  0.5252
   98MOL    H8241016   6.134   1.907   1.804 -3.4675 -0.6303 -0.0659
   98MOL    H8341017   5.795   1.783   1.823  0.0728  0.6998 -1.4620
   98MOL    H8441018   5.920   1.756   1.707  0.6034  0.6705 -0.5250
   98MOL    H8541019   5.891   1.911   1.770  0.6624  1.3851  2.4177
   98MOL    C8641020   6.194   1.563   2.079 -0.3872  1.2585 -0.2828
   98MOL    C8741021   6.267   1.586   2.214  0.2627 -0.0013  0.1055
   98MOL    C8841022   6.306   1.735   2.243 -0.3060  0.2870 -0.1186
   98MOL    C8941023   6.280   1.789   2.388  0.4939  0.2731 -0.5444
   98MOL    C9041024   6.377   1.728   2.491  0.3579  0.0623  0.1480
   98MOL    C9141025   6.136   1.771   2.435 -0.2110  0.3318  0.0072
   98MOL    C9241026   6.304   1.940   2.382 -0.2004  0.0341  0.2897
   98MOL    H9341027   6.235   1.624   1.999 -0.4270 -0.6209 -1.7558
   98MOL    H9441028   6.194   1.458   2.048  1.0395  0.5530  1.9297
   98MOL    H9541029   6.193   1.552   2.286  0.7046  0.8194  0.9553
   98MOL    H9641030   6.255   1.794   2.167 -0.4100  1.3123  0.7363
   98MOL    H9741031   6.410   1.744   2.211  0.4489 -1.7820  1.5952
   98MOL    H9841032   6.378   1.769   2.592 -2.1621 -2.1831  1.1508
   98MOL    H9941033   6.477   1.733   2.449 -0.0768  1.1214 -0.7902
   98MOL   H10041034   6.355   1.621   2.502  0.4750 -0.0072 -0.2895
   98MOL   H10141035   6.136   1.798   2.540  0.0593 -4.1245  1.2783
   98MOL   H10241036   6.071   1.839   2.380  0.2428  2.8642  2.5047
   98MOL   H10341037   6.115   1.664   2.433 -0.2466  0.2918  1.7717
   98MOL   H10441038   6.410   1.963   2.370  0.5029 -2.3529  1.5957
   98MOL   H10541039   6.248   2.001   2.311 -1.7200 -0.3874  1.1085
   98MOL   H10641040   6.285   1.993   2.475 -0.8847  0.1958  0.0556
   98MOL   C10741041   6.394   1.495   2.229  0.3415  1.2257  0.1668
   98MOL   C10841042   6.371   1.343   2.199 -0.8724  0.0067  0.1294
   98MOL   C10941043   6.422   1.305   2.057  0.9385 -0.5659  0.0341
   98MOL   C11041044   6.362   1.170   1.988 -0.3285  0.0937 -0.6678
   98MOL   C11141045   6.382   1.172   1.839  0.7059 -0.1706 -0.3351
   98MOL   C11241046   6.214   1.155   2.012 -0.3123 -0.5617 -0.5184
   98MOL   C11341047   6.428   1.040   2.041 -0.3262  0.2868 -0.0317
   98MOL   H11441048   6.411   1.516   2.334 -0.8631 -0.6463  0.7468
   98MOL   H11541049   6.473   1.535   2.165  1.2954 -1.0841 -0.1385
   98MOL   H11641050   6.264   1.329   2.212 -0.7288  0.1865  1.6256
   98MOL   H11741051   6.398   1.390   1.994 -1.1149 -0.8378  0.4070
   98MOL   H11841052   6.529   1.320   2.069  0.6782  1.1269  0.2996
   98MOL   H11941053   6.330   1.257   1.794 -2.5380 -2.3429 -0.8700
   98MOL   H12041054   6.487   1.174   1.812  0.9959 -3.2014  0.3863
   98MOL   H12141055   6.344   1.082   1.791  0.5046 -1.1671  1.6437
   98MOL   H12241056   6.180   1.063   1.965  1.3176 -0.6437 -1.5641
   98MOL   H12341057   6.150   1.231   1.967 -1.0972  0.6719  2.5090
   98MOL   H12441058   6.180   1.139   2.115  0.7289 -1.7854 -0.3624
   98MOL   H12541059   6.537   1.049   2.047 -0.2262 -1.1590  0.6000
   98MOL   H12641060   6.410   0.956   1.974 -1.8265 -0.6108  1.4621
   98MOL   H12741061   6.389   1.012   2.139 -0.6817 -1.0432 -0.5369
   98MOL   C12841062   6.437   1.265   2.314  0.3786 -0.0456  0.3860
   98MOL   C12941063   6.395   1.264   2.464  0.2579 -0.4009  0.4153
   98MOL   C13041064   6.249   1.205   2.476 -0.2104 -0.3022 -0.6054
   98MOL   C13141065   6.152   1.243   2.587  0.5877  0.1113 -1.1360
   98MOL   C13241066   6.004   1.197   2.548  0.1725 -0.0273 -0.8663
   98MOL   C13341067   6.129   1.392   2.595 -0.8024 -0.7101 -0.1292
   98MOL   C13441068   6.188   1.174   2.723  0.3555 -0.7870 -0.0673
   98MOL   H13541069   6.541   1.297   2.316  0.3452  0.0328  1.8412
   98MOL   H13641070   6.441   1.162   2.279 -0.6804  0.4445 -1.2258
   98MOL   H13741071   6.377   1.364   2.504  3.9882  0.5342 -0.0968
   98MOL   H13841072   6.199   1.233   2.384 -0.0937 -1.6822 -1.1018
   98MOL   H13941073   6.258   1.096   2.471 -2.8282 -0.5347 -0.8377
   98MOL   H14041074   5.935   1.213   2.631 -0.5296 -2.0814 -1.0396
   98MOL   H14141075   6.000   1.097   2.506 -1.0386 -0.7934  1.0364
   98MOL   H14241076   5.979   1.263   2.465 -0.4114  2.2732  1.0817
   98MOL   H14341077   6.044   1.408   2.661  0.4168  1.5036  0.9668
   98MOL   H14441078   6.119   1.440   2.497  0.9774 -2.5492 -1.2352
   98MOL   H14541079   6.214   1.452   2.628 -1.2148 -0.4286  0.4328
   98MOL   H14641080   6.271   1.235   2.760 -0.2509  1.0502 -1.6438
   98MOL   H14741081   6.105   1.179   2.792  1.1291  0.4011  0.7977
   98MOL   H14841082   6.224   1.071   2.716  2.1969 -0.3578  2.2744
   98MOL   C14941083   6.490   1.177   2.551  0.1595 -0.7417  0.3466
   98MOL   C15041084   6.581   1.247   2.648 -0.2400 -0.1236  0.1989
   98MOL   C15141085   6.682   1.156   2.710 -0.3038 -0.9183  0.1434
   98MOL   C15241086   6.638   1.061   2.827 -0.5209  0.6169 -0.2023
   98MOL   C15341087   6.603   0.919   2.762  0.1639 -0.2462  0.2291
   98MOL   C15441088   6.536   1.122   2.915  1.2997  0.2305 -0.3835
   98MOL   C15541089   6.764   1.032   2.908  0.1738 -0.5245 -0.4876
   98MOL   H15641090   6.555   1.121   2.484 -0.0337 -2.6320  1.6974
   98MOL   H15741091   6.429   1.095   2.590 -1.8237  1.4867  2.0647
   98MOL   H15841092   6.518   1.292   2.724 -2.4599  1.1738 -2.3142
   98MOL   H15941093   6.763   1.216   2.750 -1.8141  1.1900  0.1472
   98MOL   H16041094   6.734   1.095   2.637 -0.6628 -0.4177 -0.5361
   98MOL   H16141095   6.586   0.839   2.834 -0.5611 -0.6349 -0.3790
   98MOL   H16241096   6.525   0.922   2.686  1.3564  0.1295 -0.9942
   98MOL   H16341097   6.686   0.881   2.702  0.6129 -0.1993  0.8143
   98MOL   H16441098   6.529   1.058   3.003  1.9623  2.8299  1.6227
   98MOL   H16541099   6.439   1.135   2.866  0.0272 -0.4217  1.8768
   98MOL   H16641100   6.572   1.220   2.945  0.8163  0.2475  0.1690
   98MOL   H16741101   6.738   0.964   2.989 -1.2762  2.1760  1.3638
   98MOL   H16841102   6.837   0.985   2.842 -0.7157 -1.0715 -1.0815
   98MOL   H16941103   6.817   1.117   2.951  0.0323 -1.1175  0.9103
   98MOL   C17041104   6.654   1.370   2.595  0.5002 -0.2636 -0.4063
   98MOL   C17141105   6.704   1.482   2.695  0.4070 -0.5950  0.4915
   98MOL   C17241106   6.599   1.591   2.723 -0.3974  0.0728  0.4407
   98MOL   C17341107   6.567   1.620   2.869 -0.7685  0.2807 -0.1587
   98MOL   C17441108   6.509   1.504   2.939  0.0718 -0.2683 -0.3303
   98MOL   C17541109   6.460   1.735   2.864  0.0171 -0.0569 -0.0894
   98MOL   C17641110   6.691   1.681   2.932  0.6895 -0.3083 -0.1938
   98MOL   H17741111   6.588   1.420   2.523 -0.3747  0.5867  0.9738
   98MOL   H17841112   6.735   1.340   2.528 -1.9985 -1.4862 -3.0010
   98MOL   H17941113   6.729   1.434   2.789  0.6346 -0.4785  0.4899
   98MOL   H18041114   6.620   1.682   2.666 -0.7757 -0.4865 -0.5936
   98MOL   H18141115   6.508   1.553   2.677  0.5215 -1.9927  0.2688
   98MOL   H18241116   6.589   1.440   2.977  1.1094  0.5994 -1.0239
   98MOL   H18341117   6.455   1.525   3.032  0.4279 -1.3513  0.1205
   98MOL   H18441118   6.448   1.439   2.878  0.6809 -0.0545 -1.1763
   98MOL   H18541119   6.418   1.746   2.964  2.2046 -1.0884  0.9940
   98MOL   H18641120   6.491   1.828   2.815  1.7248 -0.7054 -0.2573
   98MOL   H18741121   6.383   1.702   2.795  0.4730  0.2848 -0.7731
   98MOL   H18841122   6.776   1.614   2.926  1.7435  0.9177  0.6986
   98MOL   H18941123   6.718   1.774   2.880  0.7690 -0.1465  0.1377
   98MOL   H19041124   6.687   1.695   3.040  1.4196 -3.4361  0.2759
   98MOL   C19141125   6.838   1.541   2.644  0.5688  0.8969 -0.0461
   98MOL   C19241126   6.957   1.448   2.655 -0.1137  0.3543 -0.1126
   98MOL   C19341127   7.034   1.469   2.788 -0.2751  0.5254 -0.1483
   98MOL   C19441128   7.125   1.352   2.846  0.2523  0.1459  1.0242
   98MOL   C19541129   7.272   1.398   2.845  0.3235 -0.9259 -0.0591
   98MOL   C19641130   7.126   1.223   2.767 -0.1993  0.6380 -0.0498
   98MOL   C19741131   7.085   1.314   2.991 -0.2864 -0.2607  0.1361
   98MOL   H19841132   6.825   1.559   2.537  0.6144 -0.3389 -0.2653
   98MOL   H19941133   6.858   1.642   2.678 -1.5487  0.5785  2.2437
   98MOL   H20041134   6.940   1.341   2.648 -2.5191  0.7153 -0.1376
   98MOL   H20141135   6.953   1.489   2.858 -1.0999 -1.1377 -0.5906
   98MOL   H20241136   7.089   1.563   2.782  1.0302 -0.0747  1.8545
   98MOL   H20341137   7.305   1.404   2.742 -0.8824 -0.0948 -0.4149
   98MOL   H20441138   7.295   1.495   2.888  1.7024 -0.6986 -1.2961
   98MOL   H20541139   7.347   1.339   2.898  1.0419 -0.3635 -0.4364
   98MOL   H20641140   7.197   1.150   2.807 -1.0879 -0.6702 -0.7912
   98MOL   H20741141   7.029   1.174   2.772 -0.4241  0.9013 -1.5174
   98MOL   H20841142   7.152   1.221   2.661  1.1554 -1.1585  0.2872
   98MOL   H20941143   7.088   1.402   3.056 -1.1899  1.7669 -2.4582
   98MOL   H21041144   6.984   1.276   3.005  0.6461 -1.9062  2.6281
   98MOL   H21141145   7.147   1.232   3.026  2.4836  1.4791 -0.5913
   98MOL   C21241146   7.058   1.462   2.530 -0.5184 -0.3307  1.0363
   98MOL   C21341147   7.010   1.411   2.389 -0.0525  0.1348 -0.8083
   98MOL   C21441148   7.014   1.258   2.392  0.7731 -0.4344  0.7240
   98MOL   C21541149   6.952   1.183   2.267  0.1968  0.1840 -0.1866
   98MOL   C21641150   6.881   1.060   2.319 -0.2284 -0.4493 -0.2692
   98MOL   C21741151   6.848   1.267   2.193 -0.3295 -0.1538  0.5361
   98MOL   C21841152   7.062   1.137   2.178  0.4585 -0.1532 -0.1219
   98MOL   H21941153   7.073   1.569   2.514 -1.0669 -0.5569 -1.0903
   98MOL   H22041154   7.159   1.423   2.542  0.8330  2.3983 -0.8533
   98MOL   H22141155   6.902   1.427   2.379 -0.5992 -2.8310 -0.2578
   98MOL   H22241156   6.975   1.221   2.486 -1.2890  2.2601  1.0099
   98MOL   H22341157   7.121   1.241   2.400  0.8978  0.7488  1.7765
   98MOL   H22441158   6.856   0.993   2.236  0.9115 -1.0721 -0.1177
   98MOL   H22541159   6.792   1.087   2.374  0.1890 -0.6714  0.5189
   98MOL   H22641160   6.941   1.002   2.389  1.2884  1.7364  0.2845
   98MOL   H22741161   6.900   1.352   2.149 -0.0973 -0.4799  0.1814
   98MOL   H22841162   6.794   1.210   2.117  1.7733 -1.2362 -0.1610
   98MOL   H22941163   6.771   1.306   2.260 -0.0927 -0.1220  0.7893
   98MOL   H23041164   7.018   1.093   2.088 -3.4027  0.3341  1.3965
   98MOL   H23141165   7.113   1.057   2.231  0.2920 -1.1186 -1.3844
   98MOL   H23241166   7.127   1.221   2.158 -0.5211  0.8150  0.7076
   98MOL   C23341167   7.091   1.478   2.271  0.1463  0.4114 -0.7834
   98MOL   C23441168   7.053   1.623   2.236 -0.5323  0.3337  0.4598
   98MOL   C23541169   7.143   1.670   2.120  0.2010  0.1916 -0.0742
   98MOL   C23641170   7.295   1.683   2.152 -1.0229  0.3562  0.0062
   98MOL   C23741171   7.355   1.803   2.072  0.9050 -0.7996 -0.4902
   98MOL   C23841172   7.338   1.708   2.302 -0.5896  0.3923  1.1377
   98MOL   C23941173   7.365   1.556   2.097 -0.4158  0.4767 -0.3474
   98MOL   H24041174   7.082   1.423   2.178 -2.9819 -1.1733  0.3752
   98MOL   H24141175   7.196   1.468   2.302 -1.0222 -1.5607  2.8470
   98MOL   H24241176   7.070   1.680   2.327  0.3439 -2.7397  2.3094
   98MOL   H24341177   7.131   1.617   2.026  2.3170  1.9691 -1.4057
   98MOL   H24441178   7.105   1.768   2.093  1.9827  0.8987 -0.1135
   98MOL   H24541179   7.461   1.804   2.097  0.8748 -1.7644 -0.3217
   98MOL   H24641180   7.313   1.899   2.104  1.0032 -1.1337  0.6763
   98MOL   H24741181   7.346   1.801   1.964 -0.0243  2.0193 -0.5245
   98MOL   H24841182   7.447   1.700   2.307 -0.2841 -0.0591 -3.7759
   98MOL   H24941183   7.302   1.803   2.340 -0.0764  0.8784  0.4367
   98MOL   H25041184   7.304   1.635   2.374  0.7035 -0.9055  0.4638
   98MOL   H25141185   7.473   1.568   2.085 -0.0690 -1.3824  0.7340
   98MOL   H25241186   7.346   1.463   2.151 -0.3367  2.0011  2.4541
   98MOL   H25341187   7.328   1.536   1.997  1.2915  0.9524 -1.1009
   98MOL   C25441188   6.904   1.642   2.202  0.0847  0.5871  0.4874
   98MOL   C25541189   6.847   1.794   2.221 -0.6507  0.0701 -0.3587
   98MOL   C25641190   6.837   1.829   2.369 -0.0977 -0.9612 -0.2271
   98MOL   C25741191   6.867   1.973   2.419  0.2668 -0.3121 -0.7906
   98MOL   C25841192   6.829   1.984   2.565  0.8836 -0.6740  0.0907
   98MOL   C25941193   6.765   2.069   2.356  0.5493  0.3371 -0.4109
   98MOL   C26041194   7.014   2.015   2.390  0.4243 -0.4036  0.1909
   98MOL   H26141195   6.838   1.579   2.261  1.0776  1.3008  2.4045
   98MOL   H26241196   6.892   1.602   2.101 -1.2926 -1.6278  1.4989
   98MOL   H26341197   6.924   1.859   2.178  0.5908 -0.7377  0.6290
   98MOL   H26441198   6.743   1.786   2.406 -0.1315  0.3496  1.2880
   98MOL   H26541199   6.910   1.770   2.424  2.1420  0.4837 -1.6014
   98MOL   H26641200   6.723   1.978   2.589 -0.0851  4.0561 -2.4165
   98MOL   H26741201   6.862   2.077   2.613 -0.1326 -0.2934  0.0779
   98MOL   H26841202   6.871   1.902   2.623  1.6444 -0.7874 -0.6246
   98MOL   H26941203   6.762   2.168   2.401 -1.0162 -1.2009  2.9585
   98MOL   H27041204   6.668   2.021   2.354  0.9985 -0.5853 -0.3956
   98MOL   H27141205   6.795   2.083   2.252 -0.5237 -0.2785 -0.8141
   98MOL   H27241206   7.037   2.026   2.284 -1.1087  0.4950 -0.0666
   98MOL   H27341207   7.042   2.105   2.444 -2.1820  0.5551  0.0155
   98MOL   H27441208   7.074   1.931   2.426 -1.0008 -1.6648 -0.3353
   98MOL   C27541209   6.710   1.815   2.142  0.1454  0.0591 -0.5708
   98MOL   C27641210   6.716   1.797   1.991  0.2268 -0.0501  0.1561
   98MOL   C27741211   6.652   1.662   1.941 -0.5439 -0.2452  0.8087
   98MOL   C27841212   6.707   1.597   1.810  0.4121  0.2639 -1.0108
   98MOL   C27941213   6.860   1.612   1.786  0.5906 -0.3014 -0.1996
   98MOL   C28041214   6.669   1.449   1.818 -0.2769 -0.1836  0.2759
   98MOL   C28141215   6.628   1.666   1.699  0.1342 -0.2393  0.5814
   98MOL   H28241216   6.635   1.753   2.191  0.8732  0.7263  1.4407
   98MOL   H28341217   6.676   1.916   2.165 -0.3201 -0.5969  1.6489
   98MOL   H28441218   6.819   1.804   1.958 -0.0325 -1.8547 -1.1382
   98MOL   H28541219   6.543   1.660   1.936 -0.4488 -0.2189 -2.0406
   98MOL   H28641220   6.679   1.591   2.019  2.0568 -1.0896 -0.7758
   98MOL   H28741221   6.933   1.603   1.867 -2.7312 -3.8145  2.5495
   98MOL   H28841222   6.898   1.549   1.706  2.7282 -0.1208  0.6288
   98MOL   H28941223   6.880   1.716   1.761  0.1375  0.0540  0.8794
   98MOL   H29041224   6.717   1.391   1.897  0.6955  0.6786  0.3157
   98MOL   H29141225   6.690   1.416   1.716  1.7528  1.9112 -0.0303
   98MOL   H29241226   6.562   1.438   1.833 -0.3992  2.0855  1.1722
   98MOL   H29341227   6.525   1.695   1.721  0.5082  0.5353  1.3447
   98MOL   H29441228   6.625   1.611   1.605 -0.2382  1.2894 -0.3217
   98MOL   H29541229   6.674   1.764   1.684  3.2036 -1.5607  1.0339
   98MOL   C29641230   6.637   1.913   1.923 -0.3075 -0.3363  0.4018
   98MOL   C29741231   6.716   2.042   1.902  0.1807  0.3597  0.2829
   98MOL   C29841232   6.629   2.165   1.855 -0.3632  0.5423  0.5953
   98MOL   C29941233   6.510   2.221   1.954 -0.3775  0.4260  0.3051
   98MOL   C30041234   6.369   2.155   1.936  0.2071 -0.1403 -0.7761
   98MOL   C30141235   6.551   2.207   2.104 -0.4747 -0.3477  0.0322
   98MOL   C30241236   6.493   2.370   1.933 -0.7006  0.6609 -0.1706
   98MOL   H30341237   6.547   1.924   1.983 -0.4854 -2.3232  0.5367
   98MOL   H30441238   6.593   1.883   1.828 -0.1233 -0.4466  0.3519
   98MOL   H30541239   6.758   2.067   1.999  0.5735 -0.5122  0.3389
   98MOL   H30641240   6.598   2.160   1.750 -0.4196  1.0364  0.5873
   98MOL   H30741241   6.704   2.244   1.864  0.9026 -0.3419 -1.7022
   98MOL   H30841242   6.301   2.195   2.011 -0.4850  0.6955 -1.8366
   98MOL   H30941243   6.323   2.173   1.839 -0.8580 -0.1967 -0.2891
   98MOL   H31041244   6.379   2.047   1.947  1.2349  0.1640  1.3848
   98MOL   H31141245   6.468   2.240   2.166  0.3778 -0.2777  1.1472
   98MOL   H31241246   6.562   2.103   2.134 -0.5597  0.3254  2.4749
   98MOL   H31341247   6.642   2.263   2.125 -0.0975  0.5402 -3.6434
   98MOL   H31441248   6.465   2.394   1.831  0.4989  2.0851 -0.1873
   98MOL   H31541249   6.412   2.410   1.993 -1.0293  1.2640 -1.0131
   98MOL   H31641250   6.586   2.424   1.950 -0.7006  0.3478  0.8702
   98MOL   C31741251   6.826   2.017   1.794  0.0716  0.3344 -0.1286
   98MOL   C31841252   6.935   2.126   1.769 -1.6344 -0.3811 -0.2742
   98MOL   C31941253   7.023   2.147   1.903 -0.6139 -0.1106  0.3706
   98MOL   C32041254   7.061   2.286   1.943 -0.0503  0.2122 -0.1402
   98MOL   C32141255   6.941   2.378   1.957  0.5602  0.0513 -0.1066
   98MOL   C32241256   7.164   2.347   1.843 -0.1214  0.5833  0.0582
   98MOL   C32341257   7.133   2.284   2.085  0.1210 -0.3649  0.0593
   98MOL   H32441258   6.889   1.928   1.806 -0.6648  0.0757  2.1115
   98MOL   H32541259   6.773   1.986   1.704  0.2719  0.1773 -0.1948
   98MOL   H32641260   6.874   2.214   1.748 -2.2946 -0.7819 -0.0360
   98MOL   H32741261   7.099   2.069   1.903 -1.4839 -0.9667  1.2930
   98MOL   H32841262   6.970   2.104   1.987 -0.3523  1.3162  1.2847
   98MOL   H32941263   6.874   2.329   2.028 -1.4946  1.1519 -1.2261
   98MOL   H33041264   6.882   2.403   1.868 -0.5867  0.4573  0.7518
   98MOL   H33141265   6.975   2.475   1.993 -0.3554  0.4230 -0.2107
   98MOL   H33241266   7.254   2.287   1.829 -2.6048 -3.5863  1.0907
   98MOL   H33341267   7.108   2.363   1.751  0.0915  0.4976 -0.0881
   98MOL   H33441268   7.195   2.441   1.889 -1.5677  2.1716 -2.1140
   98MOL   H33541269   7.090   2.213   2.155  0.5741 -1.4312 -0.7280
   98MOL   H33641270   7.126   2.383   2.129 -0.1800 -0.3805  0.0429
   98MOL   H33741271   7.240   2.269   2.068 -0.2498 -1.2093 -1.6335
   98MOL   C33841272   7.024   2.091   1.645  0.8961  0.2215  0.0370
   98MOL   C33941273   6.962   2.125   1.503  0.5709  0.1111 -0.3010
   98MOL   C34041274   7.027   2.053   1.384 -0.0171 -0.2638 -0.1406
   98MOL   C34141275   6.956   1.927   1.323 -0.0983  0.5913  0.0618
   98MOL   C34241276   6.951   1.811   1.431 -0.1882 -0.4731 -0.6725
   98MOL   C34341277   6.816   1.961   1.261  0.0202 -0.6110 -0.4739
   98MOL   C34441278   7.034   1.868   1.201 -0.6747  0.1084  0.0473
   98MOL   H34541279   7.052   1.985   1.645 -0.0601 -0.0379 -0.5465
   98MOL   H34641280   7.123   2.136   1.649  1.1366 -0.3086  0.1990
   98MOL   H34741281   6.859   2.088   1.509  0.3195  0.7076 -0.9116
   98MOL   H34841282   7.126   2.019   1.412  0.3288  0.0307 -0.9667
   98MOL   H34941283   7.048   2.120   1.300 -0.4845 -0.9104 -0.7877
   98MOL   H35041284   7.054   1.792   1.463 -0.0180  2.7315  0.7881
   98MOL   H35141285   6.894   1.837   1.520  1.2037  0.3332 -0.0064
   98MOL   H35241286   6.919   1.709   1.408 -0.1278 -0.8703  0.9532
   98MOL   H35341287   6.829   2.001   1.160  1.6997  2.5385  0.9209
   98MOL   H35441288   6.773   1.863   1.238  2.9254 -1.6352 -1.7592
   98MOL   H35541289   6.744   2.013   1.324 -1.4958 -0.6926 -2.0875
   98MOL   H35641290   7.021   1.936   1.117  3.7038  0.9179 -0.0694
   98MOL   H35741291   7.139   1.849   1.226  0.3595  2.7904 -2.0717
   98MOL   H35841292   6.998   1.768   1.178 -0.5425 -0.3947  1.9024
   98MOL   C35941293   6.956   2.277   1.479 -0.2015  0.2244 -0.5148
   98MOL   C36041294   6.833   2.325   1.398  0.1224  0.4964 -0.3115
   98MOL   C36141295   6.870   2.467   1.343  0.2072 -0.0516 -0.9185
   98MOL   C36241296   6.916   2.493   1.199 -0.0197  0.6447 -0.2165
   98MOL   C36341297   7.040   2.416   1.176 -0.9206 -0.8174 -0.3372
   98MOL   C36441298   6.940   2.645   1.179 -0.0544  0.3771 -0.0691
   98MOL   C36541299   6.803   2.447   1.097 -0.3006  0.2721 -0.3644
   98MOL   H36641300   7.056   2.296   1.441 -0.2993  0.3836 -0.6910
   98MOL   H36741301   6.952   2.336   1.570 -1.3612 -1.6701  0.7166
   98MOL   H36841302   6.806   2.261   1.315 -0.3668  0.0549  0.1820
   98MOL   H36941303   6.774   2.519   1.342  1.4089  2.2575  0.1206
   98MOL   H37041304   6.931   2.511   1.422 -1.3278 -2.9347  2.0288
   98MOL   H37141305   7.063   2.442   1.073 -4.2535  1.0611 -0.6935
   98MOL   H37241306   7.114   2.455   1.246 -1.0556 -0.0944 -0.5991
   98MOL   H37341307   7.037   2.307   1.173  1.4154 -0.9453  0.6664
   98MOL   H37441308   6.849   2.695   1.214 -0.6619 -0.4032 -0.5369
   98MOL   H37541309   6.960   2.671   1.075 -2.4979  0.2846 -0.5859
   98MOL   H37641310   7.017   2.683   1.246  0.9499 -1.5498 -0.1105
   98MOL   H37741311   6.728   2.524   1.078 -0.4091  0.1260 -0.5257
   98MOL   H37841312   6.764   2.352   1.133  0.1426  0.1747 -0.1343
   98MOL   H37941313   6.856   2.441   1.002  0.1527 -1.7213 -0.0016
   98MOL   C38041314   6.699   2.318   1.487 -0.2658  0.1923 -0.4632
   98MOL   C38141315   6.556   2.365   1.424 -0.8336 -0.0704 -0.1881
   98MOL   C38241316   6.450   2.380   1.545  0.4502 -0.9794 -0.3272
   98MOL   C38341317   6.308   2.436   1.510  0.1431  0.2228  0.2772
   98MOL   C38441318   6.332   2.557   1.431 -0.5249  0.1242 -0.5455
   98MOL   C38541319   6.220   2.458   1.636 -0.4260 -0.1430  0.1022
   98MOL   C38641320   6.224   2.330   1.426 -0.0660 -0.0743 -0.4782
   98MOL   H38741321   6.715   2.381   1.575  0.2748  0.2910 -0.6314
   98MOL   H38841322   6.678   2.218   1.525 -0.2767  0.1154 -0.6702
   98MOL   H38941323   6.579   2.466   1.389  3.1963 -0.5937  0.7045
   98MOL   H39041324   6.454   2.279   1.586 -1.2971 -1.2703 -0.8304
   98MOL   H39141325   6.496   2.451   1.613  0.9159 -0.9766 -0.6443
   98MOL   H39241326   6.375   2.542   1.332  3.0081 -0.3775  0.9951
   98MOL   H39341327   6.234   2.604   1.421 -0.2826  0.4066 -1.6394
   98MOL   H39441328   6.388   2.636   1.481 -0.0193 -0.6934  0.1902
   98MOL   H39541329   6.273   2.535   1.691  0.3536 -0.7456  0.1997
   98MOL   H39641330   6.216   2.378   1.710  2.7618 -0.9637 -0.5632
   98MOL   H39741331   6.120   2.497   1.616  0.3588  0.8109 -2.1813
   98MOL   H39841332   6.246   2.316   1.320 -0.2589 -1.8343 -0.2994
   98MOL   H39941333   6.122   2.369   1.428  0.2944  1.0250 -2.5920
   98MOL   H40041334   6.205   2.238   1.482 -0.7213 -0.3705 -1.1811
   98MOL   C40141335   6.511   2.275   1.303  0.1035  0.6616 -0.3175
   98MOL   C40241336   6.473   2.137   1.347  0.0546  0.1349  0.4007
   98MOL   C40341337   6.403   2.050   1.241  0.6488 -0.2923  0.7753
   98MOL   C40441338   6.344   1.909   1.283 -0.1096  0.0560 -0.1370
   98MOL   C40541339   6.252   1.911   1.407  0.2831 -0.1525  0.4059
   98MOL   C40641340   6.462   1.819   1.297 -0.4019 -0.6422  0.0927
   98MOL   C40741341   6.255   1.852   1.167 -0.1034  0.7410 -0.3177
   98MOL   H40841342   6.434   2.322   1.242  1.6373  1.3442 -1.7604
   98MOL   H40941343   6.593   2.272   1.231 -1.3971 -0.4606 -2.0102
   98MOL   H41041344   6.560   2.083   1.387 -0.0692  0.2050  0.7667
   98MOL   H41141345   6.474   2.027   1.161  1.5195 -2.3299  2.0932
   98MOL   H41241346   6.321   2.111   1.205  0.1903  0.2529  2.6759
   98MOL   H41341347   6.164   1.961   1.367  1.9251  3.6674  1.4167
   98MOL   H41441348   6.288   1.966   1.494  1.0499  0.6046 -0.3824
   98MOL   H41541349   6.220   1.814   1.444 -1.4219 -0.1944 -1.1105
   98MOL   H41641350   6.425   1.733   1.352  1.4148 -1.7402 -0.3505
   98MOL   H41741351   6.537   1.864   1.363 -0.6217 -1.1174  0.6672
   98MOL   H41841352   6.508   1.781   1.206  0.0131 -0.4202  0.2094
   98MOL   H41941353   6.315   1.829   1.080  0.1022 -1.5130  0.3870
   98MOL   H42041354   6.198   1.766   1.200  2.1100 -0.3123  0.8998
   98MOL   H42141355   6.172   1.914   1.133 -2.4816 -1.8216  0.6572
   98MOL   H42241356   6.407   2.137   1.434  1.4111  0.2912  1.4464
   99MOL     C141357   4.929   2.942   3.389  0.1450 -0.9121 -0.1150
   99MOL     C241358   4.802   3.021   3.363  0.4410 -0.2844 -0.1555
   99MOL     C341359   4.835   3.154   3.280  0.1816 -0.6895  0.2550
   99MOL     C441360   4.736   3.199   3.174  0.5259  0.0326  0.1293
   99MOL     C541361   4.742   3.111   3.050  0.0240 -0.2942 -0.4205
   99MOL     C641362   4.595   3.206   3.228 -0.3397  0.3040 -0.1115
   99MOL     C741363   4.783   3.337   3.122 -0.4911 -0.3457 -0.2456
   99MOL     H841364   5.002   3.002   3.444  0.8053  1.1515 -3.1057
   99MOL     H941365   4.900   2.850   3.439 -0.3689 -2.4343 -3.1010
   99MOL    H1041366   4.726   2.971   3.303  1.8900 -0.3788 -1.9564
   99MOL    H1141367   4.930   3.139   3.229 -0.3512 -1.8917 -0.4016
   99MOL    H1241368   4.859   3.230   3.354 -0.6218  1.1311 -1.2920
   99MOL    H1341369   4.847   3.107   3.020  0.3209 -2.6720  0.8589
   99MOL    H1441370   4.673   3.142   2.972  0.0969 -1.6833 -1.0416
   99MOL    H1541371   4.723   3.008   3.078  0.1537 -0.1826  0.0842
   99MOL    H1641372   4.526   3.221   3.145  1.3039  0.2926 -1.5220
   99MOL    H1741373   4.574   3.102   3.252 -0.3309  0.0158 -1.3221
   99MOL    H1841374   4.582   3.278   3.308 -2.5211 -1.1528  0.8830
   99MOL    H1941375   4.798   3.403   3.209  1.7678 -0.8785 -0.1985
   99MOL    H2041376   4.704   3.378   3.060 -0.3309  0.9306  0.3546
   99MOL    H2141377   4.880   3.340   3.073 -1.2931  0.5079 -1.8339
   99MOL    H2241378   4.983   2.913   3.298  0.1841 -0.2321 -0.3109
   99MOL    C2341379   4.737   3.053   3.499 -0.3961 -0.3010  0.1832
   99MOL    C2441380   4.675   2.936   3.590 -0.1101 -0.4398 -0.0355
   99MOL    C2541381   4.571   2.844   3.514  0.0498 -0.0590  0.8239
   99MOL    C2641382   4.570   2.696   3.545  0.3056  0.2007 -0.3002
   99MOL    C2741383   4.707   2.626   3.521 -0.5802 -0.7307 -0.8391
   99MOL    C2841384   4.544   2.662   3.698 -0.0346  0.1958  0.2090
   99MOL    C2941385   4.456   2.630   3.460  0.0943 -0.6699  0.3595
   99MOL    H3041386   4.799   3.112   3.566 -0.9839 -0.8425  1.2151
   99MOL    H3141387   4.653   3.123   3.488 -0.5178 -0.5903 -0.7413
   99MOL    H3241388   4.758   2.871   3.618 -1.1472 -1.2032  1.3103
   99MOL    H3341389   4.597   2.844   3.408  0.1921  1.0591  0.8509
   99MOL    H3441390   4.475   2.894   3.501  0.8152  1.1462 -0.2822
   99MOL    H3541391   4.796   2.675   3.559 -0.0249 -1.2815 -1.4193
   99MOL    H3641392   4.703   2.524   3.561 -1.6673 -1.4335 -2.6792
   99MOL    H3741393   4.730   2.632   3.415  0.0197  3.5379 -0.5593
   99MOL    H3841394   4.459   2.716   3.741  0.1728  0.9114 -0.2655
   99MOL    H3941395   4.507   2.560   3.706 -2.4635  1.0398  0.2218
   99MOL    H4041396   4.627   2.679   3.766 -2.0142 -0.5758  2.9116
   99MOL    H4141397   4.366   2.646   3.519 -0.6887 -1.3863 -0.6298
   99MOL    H4241398   4.458   2.521   3.451 -0.7099 -0.5736 -1.1703
   99MOL    H4341399   4.438   2.682   3.367  2.2202  1.6768  1.2094
   99MOL    C4441400   4.618   2.994   3.716 -0.9639  0.0105 -0.3374
   99MOL    C4541401   4.716   3.046   3.820  0.1600 -0.1212 -0.4415
   99MOL    C4641402   4.824   2.945   3.874 -0.2619 -0.6363  0.6863
   99MOL    C4741403   4.975   2.961   3.872  0.1767 -0.1036 -0.0381
   99MOL    C4841404   5.017   3.095   3.933 -0.2975  0.5456  0.3391
   99MOL    C4941405   5.025   2.963   3.733 -0.5804  0.0607 -0.4231
   99MOL    C5041406   5.042   2.846   3.955  0.0398  0.1821 -0.4671
   99MOL    H5141407   4.546   3.068   3.680  0.7472  1.7880 -0.2255
   99MOL    H5241408   4.557   2.920   3.767 -1.2808 -1.0607 -2.2424
   99MOL    H5341409   4.773   3.122   3.766  0.1356  0.1837 -0.0505
   99MOL    H5441410   4.800   2.848   3.831  0.6940  0.4232 -2.3838
   99MOL    H5541411   4.810   2.930   3.981  0.8232 -0.9232  0.7885
   99MOL    H5641412   4.997   3.175   3.863  2.5465  0.1857 -0.9506
   99MOL    H5741413   5.126   3.088   3.944 -0.2197  1.0383 -0.0776
   99MOL    H5841414   4.973   3.122   4.029 -1.9710  2.4296 -0.9300
   99MOL    H5941415   5.134   2.965   3.721 -0.5622  3.8344 -0.3952
   99MOL    H6041416   4.992   2.866   3.698 -0.0078 -0.1304 -0.4444
   99MOL    H6141417   4.984   3.038   3.665 -1.9034 -0.6498 -0.4234
   99MOL    H6241418   5.147   2.826   3.934 -0.6496 -0.8365 -3.2539
   99MOL    H6341419   5.039   2.864   4.062 -1.3968 -0.4410 -0.3816
   99MOL    H6441420   4.989   2.753   3.933  1.1706  0.0788 -2.9245
   99MOL    C6541421   4.637   3.113   3.937 -0.4982 -0.5119 -0.4889
   99MOL    C6641422   4.520   3.219   3.906 -0.3183  0.3925  0.6839
   99MOL    C6741423   4.568   3.345   3.841  0.3350  0.0268 -0.4789
   99MOL    C6841424   4.478   3.420   3.732 -0.1707  0.0200  0.0477
   99MOL    C6941425   4.445   3.322   3.617 -0.4457 -0.5687 -0.2732
   99MOL    C7041426   4.347   3.461   3.804  0.0381  0.3920  1.2250
   99MOL    C7141427   4.544   3.548   3.674  0.2244 -0.6795  0.3107
   99MOL    H7241428   4.593   3.035   3.999  0.2492  1.3289  2.4830
   99MOL    H7341429   4.705   3.171   4.000  0.0367 -1.0836 -0.5443
   99MOL    H7441430   4.443   3.184   3.837  0.6762  2.3022 -1.4518
   99MOL    H7541431   4.666   3.322   3.799  1.3782  0.8488  1.4462
   99MOL    H7641432   4.589   3.410   3.926 -2.8001 -0.9518  1.1369
   99MOL    H7741433   4.379   3.239   3.641  0.2290 -0.7590  1.0092
   99MOL    H7841434   4.383   3.370   3.542 -0.2207 -0.3311 -0.3107
   99MOL    H7941435   4.537   3.292   3.567  0.3703 -0.9425  1.3883
   99MOL    H8041436   4.364   3.519   3.895 -3.3068  0.2148  2.0480
   99MOL    H8141437   4.293   3.371   3.832 -2.1952  0.7638 -1.6945
   99MOL    H8241438   4.274   3.514   3.743 -0.4280 -0.0174  1.4249
   99MOL    H8341439   4.585   3.599   3.762 -0.4586 -0.8625  0.7374
   99MOL    H8441440   4.480   3.611   3.613  2.0857 -0.0890 -1.0566
   99MOL    H8541441   4.628   3.519   3.611  1.3452  1.3563  0.8275
   99MOL    C8641442   4.449   3.253   4.036 -0.2914  0.3244  0.2564
   99MOL    C8741443   4.370   3.137   4.107  0.4981  0.1409  0.3951
   99MOL    C8841444   4.248   3.086   4.021 -0.2384  0.4061 -0.3059
   99MOL    C8941445   4.216   2.934   4.024 -0.5904 -0.3190  0.0761
   99MOL    C9041446   4.209   2.877   4.166 -0.7621 -0.4418 -0.6441
   99MOL    C9141447   4.318   2.845   3.944 -0.4740 -0.2233  0.8038
   99MOL    C9241448   4.071   2.919   3.970 -0.7329  0.2614  0.5218
   99MOL    H9341449   4.386   3.341   4.023 -2.0317 -0.5266  2.5765
   99MOL    H9441450   4.527   3.291   4.102  0.8110  1.0925 -1.4602
   99MOL    H9541451   4.436   3.051   4.123 -0.7919 -0.9048  0.1887
   99MOL    H9641452   4.271   3.111   3.917 -0.1191 -1.1442 -0.6641
   99MOL    H9741453   4.160   3.149   4.033 -0.0977  0.7583 -1.0375
   99MOL    H9841454   4.192   2.770   4.172 -0.2804 -0.5294 -0.8678
   99MOL    H9941455   4.115   2.907   4.213  1.1472  0.0945  2.9554
   99MOL   H10041456   4.299   2.884   4.227 -2.0549 -0.2225  1.3123
   99MOL   H10141457   4.293   2.739   3.951  0.1393 -0.4484 -0.2647
   99MOL   H10241458   4.305   2.876   3.840 -0.2022 -0.4606  0.7010
   99MOL   H10341459   4.418   2.863   3.983 -1.1593  1.1901  1.9894
   99MOL   H10441460   4.005   2.970   4.040 -0.4637  1.2655  0.0556
   99MOL   H10541461   4.062   2.957   3.868  2.7262 -0.9427 -0.2946
   99MOL   H10641462   4.048   2.813   3.971  0.1137  0.0483 -1.4846
   99MOL   C10741463   4.326   3.171   4.251 -0.2374  0.2777  0.6011
   99MOL   C10841464   4.439   3.197   4.359  0.9136  0.5741  0.2095
   99MOL   C10941465   4.374   3.271   4.479 -0.2769  0.6863 -1.0011
   99MOL   C11041466   4.387   3.426   4.494  0.3878  0.0221  0.5168
   99MOL   C11141467   4.284   3.476   4.595 -0.0896  0.1879  0.0747
   99MOL   C11241468   4.354   3.505   4.362 -0.2893  0.4692 -0.2688
   99MOL   C11341469   4.517   3.458   4.563  0.3586 -0.2856  0.6935
   99MOL   H11441470   4.272   3.081   4.282  1.0083 -1.6740 -2.5663
   99MOL   H11541471   4.259   3.255   4.240  0.2730  0.8320  1.6868
   99MOL   H11641472   4.523   3.252   4.319  1.7808 -1.8326 -1.3746
   99MOL   H11741473   4.271   3.239   4.495  0.7959 -2.2392  0.5464
   99MOL   H11841474   4.431   3.227   4.561 -0.0574 -3.4295 -3.2404
   99MOL   H11941475   4.302   3.435   4.695 -1.7407 -1.2761 -0.2045
   99MOL   H12041476   4.283   3.585   4.597 -2.8969  0.2823 -2.8389
   99MOL   H12141477   4.183   3.436   4.582 -0.3150  0.3388  1.3365
   99MOL   H12241478   4.386   3.443   4.278 -3.0787 -0.9586 -0.3466
   99MOL   H12341479   4.408   3.597   4.342 -0.6388  0.4681 -1.2663
   99MOL   H12441480   4.248   3.529   4.353 -0.6840 -1.5713 -1.4939
   99MOL   H12541481   4.534   3.405   4.657  1.7405 -0.9141  0.1057
   99MOL   H12641482   4.521   3.565   4.582 -0.9661  0.0392 -0.7027
   99MOL   H12741483   4.597   3.436   4.492  1.6024 -2.4314  2.7060
   99MOL   C12841484   4.496   3.063   4.403 -0.8508 -0.0738 -0.1645
   99MOL   C12941485   4.643   3.043   4.379  0.1010  0.3471  0.2301
   99MOL   C13041486   4.732   3.145   4.462  0.5225 -0.9399  0.8360
   99MOL   C13141487   4.853   3.225   4.400 -0.6107  0.1565  0.1474
   99MOL   C13241488   4.818   3.313   4.280  0.1682  1.1247  0.8520
   99MOL   C13341489   4.955   3.123   4.355  0.3566  0.1152  0.1847
   99MOL   C13441490   4.924   3.308   4.512  0.2272  0.1893 -0.0583
   99MOL   H13541491   4.448   2.984   4.345  0.5822 -0.7222 -0.5073
   99MOL   H13641492   4.470   3.035   4.505  1.8785 -2.2319  0.0082
   99MOL   H13741493   4.654   3.074   4.275  4.1772  0.0473  0.4761
   99MOL   H13841494   4.665   3.223   4.499  0.3122  0.2252 -1.8121
   99MOL   H13941495   4.764   3.095   4.553  4.5647  0.8216  0.4969
   99MOL   H14041496   4.785   3.250   4.198 -1.5008  1.1148  1.5161
   99MOL   H14141497   4.900   3.377   4.249  0.0963  1.7923  2.0147
   99MOL   H14241498   4.724   3.366   4.299  0.7049  2.2916  0.2913
   99MOL   H14341499   4.984   3.059   4.439  2.9798  2.7239  1.3503
   99MOL   H14441500   5.038   3.165   4.298 -0.0783  0.5982 -0.0937
   99MOL   H14541501   4.903   3.052   4.290 -2.8611 -0.4158  3.1663
   99MOL   H14641502   4.985   3.383   4.463 -0.8589 -0.4293 -2.4167
   99MOL   H14741503   4.846   3.363   4.566  0.9346  2.8862 -1.7224
   99MOL   H14841504   4.986   3.244   4.575  1.8421  1.9711  0.1918
   99MOL   C14941505   4.696   2.900   4.380 -0.1573  0.0079  0.1520
   99MOL   C15041506   4.621   2.802   4.470 -0.2141  0.4861 -0.7182
   99MOL   C15141507   4.646   2.652   4.438 -0.1722 -0.3496  0.0380
   99MOL   C15241508   4.624   2.601   4.299  0.3629  0.0484  0.4322
   99MOL   C15341509   4.494   2.656   4.232 -1.0163 -0.1045  0.0251
   99MOL   C15441510   4.607   2.448   4.317  0.4122 -0.0385 -0.1169
   99MOL   C15541511   4.753   2.607   4.200 -0.2614  0.1797  0.3126
   99MOL   H15641512   4.801   2.899   4.410  0.0985  0.4827 -0.7056
   99MOL   H15741513   4.694   2.873   4.274 -0.8343  0.7967 -0.0443
   99MOL   H15841514   4.517   2.819   4.444 -0.2433  0.0961 -0.8478
   99MOL   H15941515   4.596   2.590   4.512 -1.1514 -0.9074 -1.0645
   99MOL   H16041516   4.749   2.630   4.466 -0.4729 -0.0213  1.4219
   99MOL   H16141517   4.499   2.760   4.201 -0.1037 -1.1565 -3.5847
   99MOL   H16241518   4.473   2.594   4.145  3.5996 -0.0810 -1.2661
   99MOL   H16341519   4.407   2.663   4.297 -2.6978 -0.2035 -2.1899
   99MOL   H16441520   4.521   2.423   4.379  1.8172  0.1061  1.9156
   99MOL   H16541521   4.691   2.389   4.352 -0.2405  0.0652  1.6949
   99MOL   H16641522   4.588   2.400   4.221 -1.1346 -0.1500  0.2169
   99MOL   H16741523   4.791   2.709   4.187 -0.9222  0.4541  0.4878
   99MOL   H16841524   4.831   2.543   4.241 -2.1413 -1.3458  1.6262
   99MOL   H16941525   4.729   2.557   4.107 -1.6501  0.5441  0.4674
   99MOL   C17041526   4.636   2.838   4.627  0.3637  0.0962  0.7256
   99MOL   C17141527   4.532   2.794   4.729  0.0880  0.5510 -0.4686
   99MOL   C17241528   4.389   2.844   4.697 -0.0325  0.0304 -0.2243
   99MOL   C17341529   4.265   2.744   4.711  0.2937 -0.5858 -0.1017
   99MOL   C17441530   4.136   2.828   4.703  0.0451 -0.8997 -0.4344
   99MOL   C17541531   4.271   2.682   4.847  0.0716  0.3315  0.3426
   99MOL   C17641532   4.262   2.636   4.604 -0.4678  0.2044 -0.1573
   99MOL   H17741533   4.641   2.945   4.645  2.9936  1.0247 -4.5439
   99MOL   H17841534   4.736   2.808   4.658  0.3313 -1.7931 -0.8623
   99MOL   H17941535   4.533   2.685   4.717  1.9010  0.6302 -1.1145
   99MOL   H18041536   4.381   2.929   4.765  2.4456 -0.4202  0.6851
   99MOL   H18141537   4.383   2.889   4.598 -0.8026  2.1641  0.7624
   99MOL   H18241538   4.048   2.772   4.734  1.2030 -2.0180  0.8951
   99MOL   H18341539   4.148   2.914   4.768  0.9270  0.1074 -1.8951
   99MOL   H18441540   4.134   2.866   4.601  2.2346  0.6476  0.0639
   99MOL   H18541541   4.356   2.614   4.847 -0.8667 -0.9607 -3.4102
   99MOL   H18641542   4.295   2.752   4.927  0.9043  1.2827 -0.7309
   99MOL   H18741543   4.183   2.620   4.864  2.0697 -2.1997  1.8210
   99MOL   H18841544   4.251   2.661   4.498 -0.3590 -0.2758 -0.2852
   99MOL   H18941545   4.352   2.576   4.615  0.3172  1.3015 -0.5774
   99MOL   H19041546   4.177   2.569   4.621 -0.7081  1.2213  2.8575
   99MOL   C19141547   4.566   2.828   4.882  0.1597 -0.5721  0.4570
   99MOL   C19241548   4.694   2.759   4.955 -0.0847  0.0109 -0.6981
   99MOL   C19341549   4.674   2.604   4.976  0.5097 -0.0710 -0.6099
   99MOL   C19441550   4.769   2.497   4.908  0.6204 -0.0174  1.0419
   99MOL   C19541551   4.917   2.538   4.939 -0.0615  0.0572 -0.0936
   99MOL   C19641552   4.748   2.502   4.748 -0.4245  0.1647 -0.0848
   99MOL   C19741553   4.746   2.358   4.965  0.4858  0.5116  0.1876
   99MOL   H19841554   4.580   2.937   4.884  2.0428 -0.7906  0.0085
   99MOL   H19941555   4.479   2.809   4.945  0.0934 -0.8245  0.2866
   99MOL   H20041556   4.772   2.753   4.879  0.8507 -0.7601  0.2949
   99MOL   H20141557   4.572   2.590   4.940  0.4474  0.2612 -0.5696
   99MOL   H20241558   4.665   2.578   5.081  0.7474 -0.7824 -0.7637
   99MOL   H20341559   4.937   2.629   4.883  0.6519 -0.6799 -1.0353
   99MOL   H20441560   4.936   2.546   5.046 -0.4633 -0.8295  0.0443
   99MOL   H20541561   4.982   2.460   4.901 -0.0261 -0.6640  1.4299
   99MOL   H20641562   4.656   2.448   4.726 -0.1557 -0.1498 -0.4410
   99MOL   H20741563   4.760   2.600   4.701 -0.4698  0.7558  1.1245
   99MOL   H20841564   4.826   2.447   4.695 -0.6016  0.7342 -0.9466
   99MOL   H20941565   4.646   2.319   4.945  0.3580  1.3787 -0.9123
   99MOL   H21041566   4.824   2.293   4.926  0.5499  0.5202  0.3035
   99MOL   H21141567   4.758   2.363   5.073 -1.1088 -1.1426  0.4798
   99MOL   C21241568   4.731   2.832   5.088 -0.2467  0.2908 -0.0688
   99MOL   C21341569   4.819   2.967   5.067 -0.6701 -0.5025 -0.4336
   99MOL   C21441570   4.964   2.924   5.022  0.6096  0.1392  0.5431
   99MOL   C21541571   5.032   3.012   4.904 -0.0090 -0.6626  0.4503
   99MOL   C21641572   5.024   3.168   4.928 -1.2305  0.1464  0.2250
   99MOL   C21741573   5.180   2.984   4.889  0.5524  0.7696  0.1553
   99MOL   C21841574   4.958   2.970   4.775  0.1969 -0.2898 -0.1819
   99MOL   H21941575   4.637   2.848   5.141 -0.1130  0.8887 -0.0074
   99MOL   H22041576   4.783   2.765   5.156  2.4798  2.3594 -0.0486
   99MOL   H22141577   4.785   3.024   4.980 -1.5879  1.0576  0.9212
   99MOL   H22241578   4.954   2.819   4.994 -0.2573 -0.6717  3.7781
   99MOL   H22341579   5.028   2.931   5.110  1.2457  0.0469  0.0921
   99MOL   H22441580   5.075   3.197   5.020  0.9361 -1.1805 -0.5235
   99MOL   H22541581   4.917   3.182   4.939 -1.5345 -1.9136  0.0928
   99MOL   H22641582   5.055   3.231   4.845 -0.0879 -0.5560  0.0984
   99MOL   H22741583   5.190   2.875   4.888  0.4439  0.7643 -0.6694
   99MOL   H22841584   5.224   3.041   4.807  0.6037 -1.0332 -1.1123
   99MOL   H22941585   5.232   3.017   4.979 -0.5299  0.8863  0.7441
   99MOL   H23041586   4.854   3.001   4.782  0.2732 -0.4877  1.9290
   99MOL   H23141587   4.965   2.862   4.773  0.8695 -0.2930  1.5440
   99MOL   H23241588   5.019   3.010   4.694  1.2410  0.6364  1.0561
   99MOL   C23341589   4.825   3.071   5.186 -0.3142 -1.1616 -0.8812
   99MOL   C23441590   4.692   3.131   5.229 -0.3759  0.2980  0.2426
   99MOL   C23541591   4.693   3.170   5.376 -0.4728 -0.4193  0.4252
   99MOL   C23641592   4.636   3.068   5.482 -0.1442 -0.4438 -0.3951
   99MOL   C23741593   4.490   3.030   5.441 -0.4297  0.0059  0.1234
   99MOL   C23841594   4.731   2.946   5.482 -0.0416 -0.8196  0.3279
   99MOL   C23941595   4.638   3.127   5.622  0.2010  0.1771  0.2594
   99MOL   H24041596   4.883   3.158   5.155 -0.5558  0.5784  3.2523
   99MOL   H24141597   4.889   3.038   5.268 -1.0438 -1.5193 -0.4527
   99MOL   H24241598   4.609   3.063   5.214  1.6181 -2.0770 -0.4034
   99MOL   H24341599   4.794   3.206   5.390 -0.7004  0.9513 -1.3779
   99MOL   H24441600   4.629   3.256   5.395  1.4836  1.0474  0.4919
   99MOL   H24541601   4.452   2.968   5.522  1.3342  0.2923  1.2066
   99MOL   H24641602   4.478   2.968   5.352 -1.0214  0.3625 -0.0472
   99MOL   H24741603   4.426   3.116   5.423  1.6820  0.8566 -3.9848
   99MOL   H24841604   4.704   2.870   5.554  0.9690 -0.9186  0.6118
   99MOL   H24941605   4.731   2.894   5.386 -1.3792 -2.5056  1.2264
   99MOL   H25041606   4.833   2.971   5.512 -0.5988  3.4288 -0.9758
   99MOL   H25141607   4.599   3.226   5.644 -3.2565 -0.4030 -2.7283
   99MOL   H25241608   4.588   3.061   5.692 -1.2569 -1.7556 -2.4907
   99MOL   H25341609   4.745   3.117   5.643  0.3434  0.7995 -0.1295
   99MOL   C25441610   4.663   3.254   5.138 -0.5065  0.6953  0.4349
   99MOL   C25541611   4.527   3.318   5.126  0.0714 -0.1430 -0.1137
   99MOL   C25641612   4.448   3.231   5.021  0.0417  0.2109 -0.5530
   99MOL   C25741613   4.295   3.216   5.046  0.5091  0.3645 -0.0895
   99MOL   C25841614   4.280   3.103   5.154 -0.0606  0.8774 -0.0933
   99MOL   C25941615   4.233   3.168   4.911  0.0778 -0.1430 -0.1569
   99MOL   C26041616   4.221   3.345   5.083 -0.1123  1.2823  0.3668
   99MOL   H26141617   4.698   3.225   5.039 -1.7415 -0.7511  0.4184
   99MOL   H26241618   4.733   3.332   5.169  0.9289 -0.8384  1.1412
   99MOL   H26341619   4.487   3.309   5.227  0.3979  1.5503  0.1750
   99MOL   H26441620   4.465   3.273   4.922 -2.6773  0.4465 -0.9386
   99MOL   H26541621   4.490   3.132   5.002  0.8901  0.0698  1.8047
   99MOL   H26641622   4.328   3.137   5.245  0.9915 -1.0535  0.0820
   99MOL   H26741623   4.328   3.011   5.121 -0.2717  0.3542  1.0462
   99MOL   H26841624   4.176   3.075   5.171  0.4944 -0.4959  1.0976
   99MOL   H26941625   4.257   3.242   4.835 -3.7605 -0.0005 -1.3187
   99MOL   H27041626   4.125   3.157   4.914  0.2404 -1.7432  0.5288
   99MOL   H27141627   4.269   3.070   4.879  0.3865 -1.2486  3.3445
   99MOL   H27241628   4.252   3.433   5.027  0.4471  0.5572 -0.4849
   99MOL   H27341629   4.114   3.335   5.060  0.3164 -0.1708 -1.1570
   99MOL   H27441630   4.229   3.357   5.191  0.2558 -0.9271  0.6207
   99MOL   C27541631   4.524   3.473   5.087 -0.0176  1.0642 -0.5582
   99MOL   C27641632   4.623   3.573   5.152  0.1868  0.1300 -0.1696
   99MOL   C27741633   4.601   3.715   5.104  0.2016 -0.3587  0.4923
   99MOL   C27841634   4.690   3.778   4.997  0.1762 -0.0948 -0.0407
   99MOL   C27941635   4.676   3.933   4.995  0.3299 -0.4781  0.3498
   99MOL   C28041636   4.844   3.759   5.029  0.0098  0.2358 -0.1002
   99MOL   C28141637   4.668   3.722   4.857 -0.5468  0.3333  0.5465
   99MOL   H28241638   4.524   3.479   4.978 -0.8127  0.8899 -0.5667
   99MOL   H28341639   4.428   3.514   5.116 -0.0085  1.2289 -0.7597
   99MOL   H28441640   4.721   3.535   5.122  0.1910  0.2588 -0.3176
   99MOL   H28541641   4.600   3.789   5.184  2.9340  0.3688 -0.0915
   99MOL   H28641642   4.497   3.722   5.070  0.7837  1.9896 -0.9422
   99MOL   H28741643   4.568   3.949   5.000  0.4648  0.2295  1.0841
   99MOL   H28841644   4.710   3.978   5.088 -0.3304 -0.9479  0.8297
   99MOL   H28941645   4.729   3.985   4.916 -0.8847  1.2841  0.6639
   99MOL   H29041646   4.859   3.651   5.033 -2.4468 -0.0808  1.5655
   99MOL   H29141647   4.871   3.796   5.128 -1.1123 -0.8611  0.6319
   99MOL   H29241648   4.913   3.801   4.956  1.4637 -1.5255  0.2104
   99MOL   H29341649   4.576   3.742   4.802 -0.3807  0.2473  0.2382
   99MOL   H29441650   4.680   3.614   4.855  1.4804  0.4415  3.0203
   99MOL   H29541651   4.741   3.762   4.786 -0.9944  1.6627  0.8133
   99MOL   C29641652   4.616   3.567   5.307 -0.7537  0.1313 -0.5066
   99MOL   C29741653   4.740   3.617   5.380 -0.9277  0.3241  0.1350
   99MOL   C29841654   4.864   3.516   5.375 -0.0413  0.7237  0.1599
   99MOL   C29941655   5.015   3.559   5.381 -0.5123 -0.6818 -0.3449
   99MOL   C30041656   5.114   3.444   5.344 -0.1923 -0.2474 -0.0118
   99MOL   C30141657   5.050   3.676   5.278  0.2775 -0.3365  0.1764
   99MOL   C30241658   5.050   3.612   5.519  0.1229 -0.8499 -0.1278
   99MOL   H30341659   4.594   3.468   5.348  0.5046 -0.1516 -0.5065
   99MOL   H30441660   4.531   3.628   5.340 -2.6516 -2.2162 -0.9061
   99MOL   H30541661   4.758   3.712   5.329 -1.1842  0.0699 -0.4274
   99MOL   H30641662   4.851   3.442   5.296 -0.6044 -0.3090  1.1879
   99MOL   H30741663   4.857   3.452   5.464  1.3645  2.0155  1.2154
   99MOL   H30841664   5.088   3.344   5.380  1.3561 -0.8979 -0.6620
   99MOL   H30941665   5.113   3.439   5.235  3.3591 -0.4019 -0.0762
   99MOL   H31041666   5.213   3.465   5.383  0.1711  0.0367 -1.0856
   99MOL   H31141667   5.023   3.646   5.177  2.5879 -0.0949 -0.5418
   99MOL   H31241668   4.985   3.760   5.304  0.8555 -0.1021  0.8625
   99MOL   H31341669   5.151   3.717   5.281  0.6172 -1.0625 -1.1574
   99MOL   H31441670   5.033   3.530   5.588  1.8051 -1.1203 -0.0153
   99MOL   H31541671   5.154   3.645   5.520 -0.5845  1.4518  0.0218
   99MOL   H31641672   4.984   3.694   5.545 -0.6879 -1.2761 -0.8371
   99MOL   C31741673   4.713   3.643   5.531 -0.1338 -0.1132  0.0959
   99MOL   C31841674   4.658   3.787   5.570  0.0121 -0.2124  0.1842
   99MOL   C31941675   4.606   3.782   5.715  0.8244  0.0612 -0.0413
   99MOL   C32041676   4.458   3.786   5.737 -0.2147 -0.5713 -0.1028
   99MOL   C32141677   4.397   3.911   5.667 -0.1165  0.4129 -0.1497
   99MOL   C32241678   4.417   3.785   5.889  0.8561 -0.4269 -0.7496
   99MOL   C32341679   4.395   3.662   5.680  0.4363  0.3525  0.3741
   99MOL   H32441680   4.644   3.570   5.574 -0.0285  0.3052  0.9824
   99MOL   H32541681   4.804   3.622   5.587  1.5012 -1.4652 -2.9644
   99MOL   H32641682   4.583   3.824   5.500 -0.9265 -0.3462  1.1146
   99MOL   H32741683   4.641   3.869   5.770  0.2064  1.0296 -1.1626
   99MOL   H32841684   4.647   3.698   5.772 -2.2250 -1.7651 -0.4239
   99MOL   H32941685   4.380   3.893   5.561 -0.1769 -0.2470 -0.0266
   99MOL   H33041686   4.444   4.007   5.687  2.4624 -0.9689  0.6242
   99MOL   H33141687   4.302   3.927   5.720 -0.0519  1.6919 -0.3931
   99MOL   H33241688   4.446   3.707   5.958  3.5317 -0.0338 -1.3584
   99MOL   H33341689   4.449   3.878   5.936  0.3357 -1.0442  0.8445
   99MOL   H33441690   4.309   3.780   5.905  1.0000  1.1256  0.8767
   99MOL   H33541691   4.286   3.665   5.674  0.3523  1.1610  1.9687
   99MOL   H33641692   4.414   3.574   5.742  0.3526 -0.7684 -1.1657
   99MOL   H33741693   4.434   3.649   5.580 -1.1209  1.6933 -0.4243
   99MOL   C33841694   4.780   3.878   5.556  0.1666 -0.9569 -0.0566
   99MOL   C33941695   4.758   4.030   5.562 -0.2661 -0.1776 -0.4520
   99MOL   C34041696   4.711   4.103   5.429 -0.3039  0.1040  0.5428
   99MOL   C34141697   4.629   4.233   5.428  0.1577  0.1715 -0.0525
   99MOL   C34241698   4.600   4.273   5.278 -0.1519 -0.5028  0.6707
   99MOL   C34341699   4.496   4.231   5.505 -0.3542 -0.1225  0.4914
   99MOL   C34441700   4.716   4.352   5.487  0.4416 -0.1680 -0.0865
   99MOL   H34541701   4.848   3.873   5.471  0.4540  3.9638 -0.2977
   99MOL   H34641702   4.844   3.839   5.635  1.2518 -3.0042 -1.9001
   99MOL   H34741703   4.674   4.055   5.627  0.4669 -0.1589  0.4790
   99MOL   H34841704   4.653   4.025   5.380  1.3284  0.3424 -1.8869
   99MOL   H34941705   4.805   4.115   5.375 -1.3553  0.0590 -1.3105
   99MOL   H35041706   4.696   4.291   5.231  0.5697 -1.2436  1.8537
   99MOL   H35141707   4.554   4.192   5.221 -1.3233 -0.2092  1.1693
   99MOL   H35241708   4.535   4.359   5.260 -1.1057 -0.6918  2.9965
   99MOL   H35341709   4.431   4.147   5.481  0.6512 -1.1485  1.2904
   99MOL   H35441710   4.518   4.226   5.612  0.7553  1.7504  0.3751
   99MOL   H35541711   4.434   4.316   5.477  0.3540  0.6764  1.3039
   99MOL   H35641712   4.810   4.361   5.433  0.2213 -0.3666 -0.5055
   99MOL   H35741713   4.669   4.451   5.486 -1.6798 -1.0757  2.6174
   99MOL   H35841714   4.741   4.337   5.592 -1.9243  1.2020  0.7240
   99MOL   C35941715   4.897   4.089   5.613 -0.2486 -0.1205 -0.3758
   99MOL   C36041716   4.937   4.051   5.763 -0.4931 -0.5536  0.6134
   99MOL   C36141717   4.925   4.175   5.857  0.3901 -0.1720  0.2647
   99MOL   C36241718   4.807   4.198   5.957 -0.4548  0.1107 -0.7416
   99MOL   C36341719   4.814   4.340   6.022  1.0424  0.0545  0.9824
   99MOL   C36441720   4.803   4.082   6.061 -0.5228 -0.1406 -0.2287
   99MOL   C36541721   4.670   4.198   5.880 -0.0780 -0.6771 -0.6396
   99MOL   H36641722   4.908   4.196   5.595  1.7506 -0.1212  0.7076
   99MOL   H36741723   4.967   4.051   5.539 -1.2470 -2.4493 -0.1820
   99MOL   H36841724   4.864   3.982   5.807  0.2798 -0.9061  1.3546
   99MOL   H36941725   5.019   4.179   5.912  0.7771 -1.9565 -0.2444
   99MOL   H37041726   4.941   4.259   5.789  1.0158  0.2407  0.9053
   99MOL   H37141727   4.718   4.366   6.068 -0.5831  2.2374 -3.3560
   99MOL   H37241728   4.897   4.352   6.091  0.8635 -2.2801  1.6535
   99MOL   H37341729   4.829   4.410   5.940  0.6205  0.0313  0.8845
   99MOL   H37441730   4.793   3.981   6.023 -2.0037 -0.2816  0.5146
   99MOL   H37541731   4.718   4.094   6.129  1.8305  0.6877  2.7041
   99MOL   H37641732   4.898   4.090   6.115  1.0030  2.8211 -3.1532
   99MOL   H37741733   4.630   4.099   5.856 -0.2988 -0.9696  0.9120
   99MOL   H37841734   4.668   4.249   5.784  1.4197  1.1523  0.2713
   99MOL   H37941735   4.599   4.251   5.942 -0.2371 -0.5452 -0.9341
   99MOL   C38041736   5.074   3.994   5.761 -0.0946 -0.0627  0.2423
   99MOL   C38141737   5.116   3.909   5.885 -0.1130  0.7675 -0.0332
   99MOL   C38241738   5.268   3.869   5.869  0.3411  0.0347  0.0022
   99MOL   C38341739   5.377   3.956   5.950 -0.3152  0.0144  0.2262
   99MOL   C38441740   5.349   3.961   6.105  0.3580 -0.3804 -0.0333
   99MOL   C38541741   5.375   4.098   5.892  0.0500  0.3450 -0.6360
   99MOL   C38641742   5.513   3.895   5.925  0.2222  0.6782 -0.3252
   99MOL   H38741743   5.149   4.073   5.755 -0.1952 -0.0729 -1.2906
   99MOL   H38841744   5.068   3.920   5.682 -2.5489  0.1214  0.2091
   99MOL   H38941745   5.095   3.968   5.974  0.1065  0.2764  0.3462
   99MOL   H39041746   5.285   3.771   5.915 -0.3326 -0.6296 -1.1532
   99MOL   H39141747   5.289   3.868   5.763  1.9531  0.5270  0.2999
   99MOL   H39241748   5.429   4.003   6.166  0.7173  1.5575 -1.7858
   99MOL   H39341749   5.250   4.006   6.117 -0.0255 -0.8983 -1.1752
   99MOL   H39441750   5.339   3.859   6.142 -2.3399 -0.0760  0.1944
   99MOL   H39541751   5.387   4.099   5.784  0.1020  2.0665 -0.6265
   99MOL   H39641752   5.449   4.162   5.941  0.3320  0.0253 -0.6439
   99MOL   H39741753   5.284   4.158   5.898  0.9427  1.6165  0.8454
   99MOL   H39841754   5.593   3.959   5.963 -0.5408  2.0904 -1.0366
   99MOL   H39941755   5.526   3.893   5.817 -0.1155  2.8611 -0.4454
   99MOL   H40041756   5.519   3.796   5.969 -0.9133 -0.9605 -3.7058
   99MOL   C40141757   5.039   3.782   5.899 -0.0214  0.0290 -0.1588
   99MOL   C40241758   5.047   3.728   6.043  0.0778 -0.1589 -0.7708
   99MOL   C40341759   4.946   3.612   6.059  0.8064 -0.2255  0.2972
   99MOL   C40441760   4.903   3.588   6.199 -0.5581 -0.8195 -0.1585
   99MOL   C40541761   4.811   3.467   6.211 -0.3063  0.1100 -0.1774
   99MOL   C40641762   4.830   3.705   6.268  0.1599 -0.3417  0.2486
   99MOL   C40741763   5.029   3.539   6.283 -0.1846  0.0012  0.8316
   99MOL   H40841764   4.933   3.790   5.877 -0.5140 -0.9322  1.7645
   99MOL   H40941765   5.078   3.708   5.830 -1.4709  1.4239 -2.5343
   99MOL   H41041766   5.141   3.685   6.078  1.6216  1.9246 -2.2215
   99MOL   H41141767   4.998   3.519   6.035 -0.1409 -0.3922 -1.1961
   99MOL   H41241768   4.863   3.613   5.988 -1.5458  0.7452  2.9508
   99MOL   H41341769   4.790   3.439   6.314  2.2865  1.3333  0.7327
   99MOL   H41441770   4.858   3.383   6.159 -0.3589  0.7302 -1.2598
   99MOL   H41541771   4.711   3.485   6.170 -0.7608 -1.8595  0.0263
   99MOL   H41641772   4.743   3.734   6.210 -0.1127 -0.4586  0.5928
   99MOL   H41741773   4.888   3.792   6.297  1.8378 -1.2008 -0.5026
   99MOL   H41841774   4.787   3.678   6.365 -0.9844 -0.7902 -0.3671
   99MOL   H41941775   5.096   3.623   6.302 -0.9037  1.0387 -1.0536
   99MOL   H42041776   4.996   3.499   6.379 -0.7776  0.3805  0.7908
   99MOL   H42141777   5.087   3.458   6.241 -0.4172 -0.9345  2.2695
   99MOL   H42241778   5.031   3.813   6.109 -2.0807 -0.6883 -0.5630
  100MOL     C141779   3.900   6.230   3.772  0.2446  0.3837 -0.0620
  100MOL     C241780   3.859   6.108   3.861  1.0620  0.1645 -0.4337
  100MOL     C341781   3.824   5.984   3.774 -0.2293  0.0797 -0.2404
  100MOL     C441782   3.908   5.851   3.800 -0.4883  0.2671 -0.3936
  100MOL     C541783   3.898   5.819   3.954  0.1158 -0.0406 -0.2182
  100MOL     C641784   3.834   5.742   3.718  0.1900 -0.1665  0.0356
  100MOL     C741785   4.053   5.861   3.754 -0.1125  0.8093 -0.2485
  100MOL     H841786   3.820   6.278   3.716  1.4092  0.3998 -1.7595
  100MOL     H941787   3.946   6.312   3.826 -0.1510  1.2548 -1.0181
  100MOL    H1041788   3.945   6.088   3.925  0.1821 -0.5644  0.5384
  100MOL    H1141789   3.848   6.006   3.670  0.1530  0.5760 -0.0487
  100MOL    H1241790   3.717   5.964   3.768 -0.0458 -1.0006 -0.0210
  100MOL    H1341791   3.796   5.783   3.967  0.5748 -2.0260 -1.9020
  100MOL    H1441792   3.921   5.903   4.020 -0.6727  0.1875 -0.2196
  100MOL    H1541793   3.961   5.733   3.974  0.0331 -0.3794 -1.3783
  100MOL    H1641794   3.830   5.748   3.609 -2.7208  1.3936  0.1660
  100MOL    H1741795   3.877   5.645   3.742  1.9433  0.2229 -1.4372
  100MOL    H1841796   3.734   5.731   3.759  2.0894 -0.5780  4.8621
  100MOL    H1941797   4.102   5.943   3.807 -0.8137 -0.3264  2.2813
  100MOL    H2041798   4.074   5.876   3.649 -2.2108 -1.5935 -1.0540
  100MOL    H2141799   4.095   5.771   3.799 -1.3380  0.7155  0.7426
  100MOL    H2241800   3.982   6.199   3.708  0.8840 -2.1558  1.8972
  100MOL    C2341801   3.746   6.152   3.954  0.2219  0.3781  0.4072
  100MOL    C2441802   3.771   6.239   4.075  1.1588 -0.1472 -0.5748
  100MOL    C2541803   3.875   6.185   4.174 -0.5258 -0.3021 -0.0119
  100MOL    C2641804   3.992   6.273   4.223 -0.3227 -0.0126  0.4235
  100MOL    C2741805   4.081   6.298   4.099  0.6754  0.3733  0.3618
  100MOL    C2841806   3.936   6.397   4.290 -0.0773 -0.3934 -0.8410
  100MOL    C2941807   4.075   6.203   4.321  0.3361  0.0849  0.3897
  100MOL    H3041808   3.675   6.207   3.892  0.2724 -0.6460 -0.5587
  100MOL    H3141809   3.695   6.066   3.998 -0.6234  0.0941 -1.0990
  100MOL    H3241810   3.813   6.328   4.028  1.8859 -0.1495  0.0662
  100MOL    H3341811   3.915   6.091   4.135 -1.4854 -0.1792 -1.3270
  100MOL    H3441812   3.828   6.148   4.265 -0.4038 -1.9068 -0.5786
  100MOL    H3541813   4.038   6.371   4.031 -0.4296 -3.0421 -2.7358
  100MOL    H3641814   4.182   6.334   4.116  1.1422 -0.2277 -1.0349
  100MOL    H3741815   4.090   6.205   4.043  1.2252 -0.3570  1.6286
  100MOL    H3841816   4.012   6.471   4.315  1.0971 -2.0371  0.5985
  100MOL    H3941817   3.853   6.447   4.240 -0.7978 -0.7480 -0.0225
  100MOL    H4041818   3.893   6.372   4.388  0.6138  3.0875  0.4302
  100MOL    H4141819   4.155   6.272   4.345  1.9610 -1.0860 -1.4591
  100MOL    H4241820   4.105   6.109   4.274 -3.4877 -0.4123 -1.2250
  100MOL    H4341821   4.011   6.188   4.408 -0.0600 -1.0723 -0.0870
  100MOL    C4441822   3.632   6.292   4.132  0.3223 -0.0026 -0.0688
  100MOL    C4541823   3.511   6.199   4.114  0.5972 -0.6383  0.0360
  100MOL    C4641824   3.379   6.284   4.140 -1.0977 -1.3667 -0.4053
  100MOL    C4741825   3.298   6.338   4.024  0.3703  0.2778 -0.6762
  100MOL    C4841826   3.238   6.221   3.948  0.2619  0.3368 -0.0750
  100MOL    C4941827   3.387   6.412   3.924 -0.0094 -0.5399 -0.5289
  100MOL    C5041828   3.184   6.429   4.084 -0.4983 -0.1635  0.2853
  100MOL    H5141829   3.652   6.319   4.236 -0.1906 -0.8064  0.2370
  100MOL    H5241830   3.620   6.387   4.079 -0.3292 -1.1669 -2.0662
  100MOL    H5341831   3.506   6.152   4.016  2.5714  0.5352 -0.6708
  100MOL    H5441832   3.409   6.369   4.202  0.4650 -1.2061 -1.3468
  100MOL    H5541833   3.311   6.225   4.200 -0.6319 -2.7706 -1.2447
  100MOL    H5641834   3.178   6.148   4.003 -2.7751  2.1973 -0.8076
  100MOL    H5741835   3.315   6.174   3.887 -1.4884 -2.3509 -0.3213
  100MOL    H5841836   3.173   6.255   3.867 -0.0436  1.5167  0.6582
  100MOL    H5941837   3.473   6.365   3.876  1.5535 -1.1779  2.7651
  100MOL    H6041838   3.331   6.465   3.847  1.5478  1.9173 -0.0351
  100MOL    H6141839   3.448   6.480   3.983 -0.2275  0.2301 -1.1828
  100MOL    H6241840   3.129   6.378   4.163  0.8893 -1.1835  0.6019
  100MOL    H6341841   3.229   6.515   4.132  1.8637 -0.6779 -0.9444
  100MOL    H6441842   3.119   6.466   4.004 -0.1196  2.2103  1.0255
  100MOL    C6541843   3.520   6.084   4.217 -0.0092  0.3055  0.0017
  100MOL    C6641844   3.409   5.975   4.205  0.2370 -0.4319 -0.3160
  100MOL    C6741845   3.383   5.887   4.338  0.1514 -0.4745  0.5064
  100MOL    C6841846   3.332   5.965   4.469 -0.2898 -0.1419  0.3983
  100MOL    C6941847   3.245   6.087   4.440  0.0629  0.4566 -0.2263
  100MOL    C7041848   3.235   5.859   4.543  0.1233 -0.0144 -0.0578
  100MOL    C7141849   3.447   5.990   4.562 -0.6040  0.5334  0.7601
  100MOL    H7241850   3.619   6.040   4.210 -1.0551 -2.4426  1.8916
  100MOL    H7341851   3.529   6.119   4.319  2.5692 -2.0112  0.6230
  100MOL    H7441852   3.315   6.020   4.174  0.1781  0.2536  0.8315
  100MOL    H7541853   3.471   5.825   4.351 -1.2193 -2.8369 -1.2899
  100MOL    H7641854   3.306   5.815   4.313  3.0316 -2.8380 -1.9521
  100MOL    H7741855   3.191   6.111   4.532  2.7106 -0.4709  1.6293
  100MOL    H7841856   3.310   6.168   4.408  3.1906 -1.5110  0.9947
  100MOL    H7941857   3.166   6.073   4.366  0.4242 -2.2455 -0.1567
  100MOL    H8041858   3.138   5.849   4.494  0.5025  0.5645 -0.9226
  100MOL    H8141859   3.225   5.872   4.651  2.5698  0.0230  0.1871
  100MOL    H8241860   3.274   5.758   4.528  1.6625 -0.0434  3.7095
  100MOL    H8341861   3.531   6.039   4.513 -1.8169  1.2775 -0.5852
  100MOL    H8441862   3.477   5.890   4.596 -1.8175  0.4985  1.7569
  100MOL    H8541863   3.415   6.044   4.651 -0.0995  0.6689  0.8583
  100MOL    C8641864   3.449   5.881   4.083 -0.1782  0.2137 -0.1890
  100MOL    C8741865   3.340   5.787   4.019 -0.0896 -0.0280  0.2864
  100MOL    C8841866   3.410   5.669   3.943 -0.1426  0.0558 -0.3794
  100MOL    C8941867   3.449   5.537   4.026  0.3402  0.3101  0.5179
  100MOL    C9041868   3.547   5.569   4.129  0.0735 -0.3497  0.7079
  100MOL    C9141869   3.520   5.442   3.922  0.1536 -0.5138  0.3895
  100MOL    C9241870   3.323   5.461   4.080 -0.0676  0.0200 -0.1538
  100MOL    H9341871   3.536   5.824   4.115 -0.1476  1.0545  1.3324
  100MOL    H9441872   3.497   5.944   4.009 -0.5167  1.2391  0.4452
  100MOL    H9541873   3.280   5.748   4.101  2.0719 -2.4576  0.7930
  100MOL    H9641874   3.500   5.711   3.900  1.2678 -0.4797  1.9681
  100MOL    H9741875   3.338   5.650   3.864 -1.9008 -0.2398  1.2349
  100MOL    H9841876   3.587   5.483   4.184 -0.5571  0.4968  2.5192
  100MOL    H9941877   3.501   5.629   4.207 -1.3125  1.5351 -1.4970
  100MOL   H10041878   3.627   5.620   4.075 -0.8665 -0.9173 -1.2888
  100MOL   H10141879   3.616   5.485   3.892  0.2788 -1.7695 -1.1059
  100MOL   H10241880   3.557   5.350   3.968  2.1140  0.9384  1.8304
  100MOL   H10341881   3.461   5.422   3.832 -1.2276 -2.0945  1.6196
  100MOL   H10441882   3.277   5.502   4.170  0.4615 -0.8658  0.5369
  100MOL   H10541883   3.248   5.457   4.002 -0.1886  0.2746 -0.0508
  100MOL   H10641884   3.343   5.355   4.096  2.1552  0.7117  1.9974
  100MOL   C10741885   3.249   5.864   3.924  0.1978  0.2664  0.3022
  100MOL   C10841886   3.098   5.817   3.932  0.7113 -0.1337  0.6304
  100MOL   C10941887   3.028   5.893   4.050 -0.4343 -0.5236 -0.5719
  100MOL   C11041888   2.934   5.808   4.144  0.3362  0.0177 -0.6014
  100MOL   C11141889   2.826   5.741   4.064  0.2871 -0.9250  1.2147
  100MOL   C11241890   2.849   5.897   4.245 -0.4388 -0.1856 -0.4191
  100MOL   C11341891   3.007   5.700   4.223 -0.0852  0.5166  0.1765
  100MOL   H11441892   3.286   5.857   3.822 -0.4640  1.1288 -0.0030
  100MOL   H11541893   3.264   5.971   3.937  0.7679  0.1912  0.2464
  100MOL   H11641894   3.092   5.709   3.946  1.8220 -0.7606 -3.0978
  100MOL   H11741895   3.102   5.947   4.108 -2.1328 -0.3804  1.5407
  100MOL   H11841896   2.964   5.972   4.009 -0.7744 -0.2055  0.5479
  100MOL   H11941897   2.865   5.652   4.016  1.6162  1.4331 -2.2220
  100MOL   H12041898   2.738   5.705   4.118  2.0503 -1.1822  4.0476
  100MOL   H12141899   2.794   5.808   3.985  2.8016 -2.3745 -1.1140
  100MOL   H12241900   2.769   5.836   4.287 -0.8366  0.0535 -0.8331
  100MOL   H12341901   2.822   5.996   4.210  2.4425  1.6006  2.0651
  100MOL   H12441902   2.907   5.921   4.335 -1.4915 -1.8104  0.7117
  100MOL   H12541903   2.938   5.660   4.297  1.7913  0.6550  2.0557
  100MOL   H12641904   3.076   5.754   4.289 -0.4707  1.0346  0.1604
  100MOL   H12741905   3.053   5.619   4.166 -0.7475 -0.8667  1.5761
  100MOL   C12841906   3.036   5.846   3.790  0.6010  0.7813  0.0641
  100MOL   C12941907   3.089   5.758   3.674 -0.6586  0.2024  0.3980
  100MOL   C13041908   2.992   5.639   3.659  0.3183  0.1686  0.6607
  100MOL   C13141909   3.037   5.498   3.610  0.0699  0.5545  0.5754
  100MOL   C13241910   3.173   5.454   3.653 -0.1043  0.7353 -0.4098
  100MOL   C13341911   3.034   5.489   3.451 -0.6198 -0.1247 -0.1489
  100MOL   C13441912   2.929   5.397   3.666 -0.2555  0.6915 -0.4875
  100MOL   H13541913   3.055   5.948   3.758  0.9854 -0.2749 -3.2485
  100MOL   H13641914   2.928   5.833   3.788  0.7798 -0.6559 -2.1071
  100MOL   H13741915   3.188   5.721   3.703 -1.4088 -2.6865 -0.6098
  100MOL   H13841916   2.936   5.621   3.750  0.2697  1.0733  0.8110
  100MOL   H13941917   2.907   5.667   3.597  1.6607 -1.2800 -1.9646
  100MOL   H14041918   3.184   5.355   3.608 -1.1983  1.1582 -1.6403
  100MOL   H14141919   3.178   5.451   3.762 -1.0770  0.5086 -0.3639
  100MOL   H14241920   3.253   5.517   3.616 -1.3948  1.9011 -1.2344
  100MOL   H14341921   3.098   5.572   3.423  0.9365 -0.9462  0.9422
  100MOL   H14441922   2.934   5.482   3.408 -0.3757 -4.6896 -0.2735
  100MOL   H14541923   3.081   5.400   3.408  3.8290  1.5771  0.9844
  100MOL   H14641924   2.915   5.392   3.774  1.0106 -0.7705 -0.3675
  100MOL   H14741925   2.831   5.415   3.623  0.1600 -0.5205 -1.9970
  100MOL   H14841926   2.961   5.298   3.632 -0.1594  0.4408  0.3139
  100MOL   C14941927   3.095   5.845   3.542 -0.6149  0.3297 -0.5571
  100MOL   C15041928   3.196   5.961   3.521  0.9043 -0.3248  0.2238
  100MOL   C15141929   3.330   5.896   3.503  0.5918 -0.2916  0.5251
  100MOL   C15241930   3.456   5.985   3.512 -0.1191  0.0788  0.2642
  100MOL   C15341931   3.570   5.892   3.550 -0.1269  1.4109  0.0642
  100MOL   C15441932   3.444   6.098   3.620 -0.1657  0.4699 -0.3665
  100MOL   C15541933   3.501   6.051   3.379 -0.4021  0.2723 -0.2071
  100MOL   H15641934   2.995   5.881   3.519 -0.1272  2.2110  0.2045
  100MOL   H15741935   3.106   5.780   3.455  0.6598 -0.1408 -0.0631
  100MOL   H15841936   3.190   6.027   3.607  0.6292  0.0033 -0.0451
  100MOL   H15941937   3.333   5.848   3.405 -1.9239 -1.7830  1.1133
  100MOL   H16041938   3.340   5.829   3.588  0.4586  0.7816  1.3998
  100MOL   H16141939   3.548   5.852   3.649 -0.7142 -0.8031 -0.9192
  100MOL   H16241940   3.568   5.808   3.481 -2.2367  1.2372  0.2977
  100MOL   H16341941   3.666   5.940   3.534  0.0719  0.9699 -0.0715
  100MOL   H16441942   3.543   6.141   3.612  0.2599 -0.0605  1.7254
  100MOL   H16541943   3.420   6.053   3.716 -1.2517  0.6744 -0.5313
  100MOL   H16641944   3.367   6.174   3.603 -0.8977 -0.2686 -0.3999
  100MOL   H16741945   3.605   6.084   3.378 -0.5476  0.7395 -2.4556
  100MOL   H16841946   3.484   5.981   3.297  0.0432 -0.2184  0.1200
  100MOL   H16941947   3.437   6.135   3.352  1.2570  1.6332 -0.0304
  100MOL   C17041948   3.152   6.040   3.391 -0.2954  0.0930  0.9291
  100MOL   C17141949   3.022   6.128   3.402 -0.3538 -0.3135  0.4636
  100MOL   C17241950   2.977   6.197   3.268  0.3078 -0.5560 -0.2279
  100MOL   C17341951   2.926   6.121   3.143  0.4030 -0.6725  0.1466
  100MOL   C17441952   3.055   6.055   3.075 -1.1528 -0.2490  0.2357
  100MOL   C17541953   2.871   6.226   3.045 -0.2885 -0.9666 -0.1690
  100MOL   C17641954   2.824   6.007   3.159  0.9307  0.2720  0.2262
  100MOL   H17741955   3.126   5.961   3.320  0.0678  0.7462  0.0680
  100MOL   H17841956   3.229   6.103   3.348 -0.3869 -2.1739 -2.7343
  100MOL   H17941957   2.945   6.053   3.418 -2.5931  1.7436 -0.2813
  100MOL   H18041958   2.889   6.257   3.289 -0.6650 -1.8601 -0.5384
  100MOL   H18141959   3.057   6.266   3.243  1.7856 -1.6337  1.3773
  100MOL   H18241960   3.088   5.958   3.111 -0.8867  0.1240  1.0181
  100MOL   H18341961   3.035   6.024   2.973 -0.1976  2.2922 -0.7869
  100MOL   H18441962   3.141   6.122   3.074 -0.0821 -1.5938  0.9721
  100MOL   H18541963   2.840   6.180   2.951 -0.3566 -0.1790 -0.5324
  100MOL   H18641964   2.787   6.268   3.100 -1.8087 -5.2049  0.9819
  100MOL   H18741965   2.944   6.304   3.023 -0.2865 -0.6333  0.9807
  100MOL   H18841966   2.849   5.932   3.235  1.4087 -0.6275 -0.8111
  100MOL   H18941967   2.728   6.053   3.181  0.4671 -0.7901  0.4516
  100MOL   H19041968   2.810   5.944   3.071 -1.7347  1.9126 -0.5652
  100MOL   C19141969   3.021   6.240   3.518 -0.7746  0.3442 -0.1540
  100MOL   C19241970   2.875   6.270   3.576  0.2878  0.0280  0.2071
  100MOL   C19341971   2.873   6.403   3.660  0.1757  0.0761  0.2977
  100MOL   C19441972   2.805   6.533   3.603  0.2539 -0.0545  0.3406
  100MOL   C19541973   2.653   6.506   3.582  0.4184 -0.0489  0.0403
  100MOL   C19641974   2.875   6.570   3.466 -0.1936 -0.0994 -0.2012
  100MOL   C19741975   2.822   6.652   3.695  0.1540 -0.3276  0.5454
  100MOL   H19841976   3.083   6.212   3.603 -2.4918  0.2026  1.0937
  100MOL   H19941977   3.068   6.333   3.486 -0.5566 -0.6129 -2.7139
  100MOL   H20041978   2.813   6.281   3.487 -0.4619 -2.0519  0.4453
  100MOL   H20141979   2.977   6.429   3.678 -0.3442  1.7670  0.9348
  100MOL   H20241980   2.822   6.391   3.756 -1.3132  1.1997 -0.3242
  100MOL   H20341981   2.625   6.485   3.685  1.4236 -0.2637  0.2801
  100MOL   H20441982   2.599   6.594   3.548 -0.4188 -0.6052 -0.0897
  100MOL   H20541983   2.635   6.426   3.510 -0.9736  0.3311 -0.0535
  100MOL   H20641984   2.868   6.489   3.393 -0.0291 -1.1226  0.9076
  100MOL   H20741985   2.818   6.644   3.409  0.2371  0.3091 -0.1025
  100MOL   H20841986   2.971   6.618   3.485 -1.4910  3.2295 -1.5080
  100MOL   H20941987   2.795   6.622   3.796  0.0046  0.2112  0.6687
  100MOL   H21041988   2.922   6.695   3.695 -0.5024  1.2403  0.1718
  100MOL   H21141989   2.752   6.735   3.681  0.4157 -0.6517 -3.2837
  100MOL   C21241990   2.840   6.147   3.658 -0.1404 -0.4361 -0.3747
  100MOL   C21341991   2.688   6.113   3.649 -0.4541  0.7861 -0.0953
  100MOL   C21441992   2.636   6.038   3.775  0.3638 -1.0697  0.8122
  100MOL   C21541993   2.579   6.107   3.900 -0.0160  0.3268  0.1816
  100MOL   C21641994   2.518   6.001   3.993 -0.0699 -0.0908  0.2387
  100MOL   C21741995   2.691   6.182   3.970  0.3194  0.2835  1.2652
  100MOL   C21841996   2.464   6.209   3.860  0.1296 -0.5942 -0.5281
  100MOL   H21941997   2.908   6.064   3.641  2.3968  1.1749  1.5885
  100MOL   H22041998   2.854   6.165   3.765  1.1161 -0.6659 -0.4948
  100MOL   H22141999   2.623   6.200   3.645 -0.0410  1.0623 -1.0933
  100MOL   H22242000   2.699   5.953   3.801  0.9522 -0.8539  0.0815
  100MOL   H22342001   2.551   5.983   3.734 -0.1116 -1.2748  2.0457
  100MOL   H22442002   2.588   5.917   3.998  0.6200  0.4547 -0.0730
  100MOL   H22542003   2.424   5.956   3.962  0.8942 -1.0135 -1.4455
  100MOL   H22642004   2.494   6.036   4.093 -0.3229 -1.2694  0.5944
  100MOL   H22742005   2.667   6.210   4.072  1.9344 -0.7103  1.9503
  100MOL   H22842006   2.783   6.122   3.969 -0.1430 -0.4638 -1.4592
  100MOL   H22942007   2.712   6.268   3.906 -1.4525 -0.4595 -0.3436
  100MOL   H23042008   2.493   6.301   3.810 -1.3659 -0.6719 -1.5536
  100MOL   H23142009   2.405   6.245   3.944  2.8321 -0.2174  1.2987
  100MOL   H23242010   2.397   6.151   3.796 -0.0753  0.4704 -1.2806
  100MOL   C23342011   2.657   6.038   3.514  0.0968  0.0654  0.3014
  100MOL   C23442012   2.514   6.045   3.462 -0.0780 -0.2529 -0.2568
  100MOL   C23542013   2.505   6.179   3.385 -1.1765  0.2824 -0.9619
  100MOL   C23642014   2.377   6.260   3.375 -0.0064  0.3865  0.2153
  100MOL   C23742015   2.332   6.300   3.514 -0.1710 -0.2246  0.7514
  100MOL   C23842016   2.397   6.380   3.284  0.3412 -1.2943 -0.1516
  100MOL   C23942017   2.261   6.174   3.309 -0.2436  0.2871 -0.6014
  100MOL   H24042018   2.691   5.935   3.529  2.6958  0.6956 -0.9534
  100MOL   H24142019   2.720   6.074   3.432  1.5782 -0.9529  0.9579
  100MOL   H24242020   2.446   6.067   3.545 -0.7280  3.7516 -1.7360
  100MOL   H24342021   2.590   6.241   3.415  0.8499 -2.1930 -1.3450
  100MOL   H24442022   2.542   6.160   3.283  0.5998 -1.6813 -0.0077
  100MOL   H24542023   2.268   6.389   3.520 -0.1430 -0.0369 -1.4699
  100MOL   H24642024   2.419   6.332   3.572  0.9734 -2.0468  0.0562
  100MOL   H24742025   2.272   6.225   3.566 -3.8085  0.4735 -2.2004
  100MOL   H24842026   2.460   6.461   3.321  0.9670 -1.2647 -1.2647
  100MOL   H24942027   2.426   6.346   3.185  2.8224  0.2440 -0.0041
  100MOL   H25042028   2.305   6.436   3.265  1.7327  1.7704  1.8040
  100MOL   H25142029   2.293   6.135   3.212  2.7668  4.0295 -1.2236
  100MOL   H25242030   2.235   6.093   3.377 -0.1846  1.4985  0.8872
  100MOL   H25342031   2.176   6.238   3.287 -0.2709 -0.3800 -2.5754
  100MOL   C25442032   2.484   5.922   3.373  0.7918 -0.0109 -0.0598
  100MOL   C25542033   2.458   5.789   3.438  0.1708 -0.0949 -0.5546
  100MOL   C25642034   2.450   5.662   3.345  0.0956  0.3537 -1.0232
  100MOL   C25742035   2.584   5.623   3.269 -0.3847 -0.3147  0.7572
  100MOL   C25842036   2.716   5.666   3.344 -0.0895 -0.0760 -0.2306
  100MOL   C25942037   2.585   5.686   3.130 -0.2425 -0.0131  0.2495
  100MOL   C26042038   2.592   5.474   3.238  0.0178 -0.1624  0.5471
  100MOL   H26142039   2.584   5.926   3.330  0.4969  1.3254 -0.6661
  100MOL   H26242040   2.415   5.939   3.290  0.7201 -2.1448 -0.4591
  100MOL   H26342041   2.516   5.782   3.530 -0.7740  2.3672  0.2586
  100MOL   H26442042   2.408   5.572   3.391  0.9841 -0.2643 -1.4270
  100MOL   H26542043   2.372   5.682   3.272  0.6435  2.7889 -0.9893
  100MOL   H26642044   2.800   5.653   3.277  0.2153  3.7022 -0.6527
  100MOL   H26742045   2.738   5.597   3.426 -1.0540 -1.7620 -1.3516
  100MOL   H26842046   2.715   5.769   3.379 -1.2316  0.4345 -1.7407
  100MOL   H26942047   2.674   5.657   3.074 -0.0561  0.7489  0.1587
  100MOL   H27042048   2.581   5.794   3.132  3.3381  0.2018 -0.6590
  100MOL   H27142049   2.499   5.644   3.077 -0.5523 -1.9614  2.1943
  100MOL   H27242050   2.596   5.426   3.335 -3.3163  0.0771  0.8645
  100MOL   H27342051   2.497   5.439   3.197 -0.0176 -1.2021  1.4774
  100MOL   H27442052   2.676   5.433   3.181 -0.6932 -2.5902  1.1883
  100MOL   C27542053   2.313   5.802   3.500  0.1314 -0.2435 -0.0878
  100MOL   C27642054   2.269   5.706   3.620  0.1318  0.5875  0.2802
  100MOL   C27742055   2.352   5.719   3.748  0.6142  0.1612 -0.4517
  100MOL   C27842056   2.425   5.584   3.800 -0.0257 -0.7548 -0.0901
  100MOL   C27942057   2.321   5.473   3.812  0.3306 -0.1444 -0.9700
  100MOL   C28042058   2.545   5.541   3.703 -0.0760 -0.2209  0.4929
  100MOL   C28142059   2.482   5.624   3.934  0.7983 -0.4282 -0.1297
  100MOL   H28242060   2.290   5.900   3.542 -2.3966 -0.7297 -0.2706
  100MOL   H28342061   2.238   5.791   3.422 -0.9597  0.3770  0.8663
  100MOL   H28442062   2.276   5.601   3.590 -0.2904  0.2691  1.2905
  100MOL   H28542063   2.286   5.740   3.833  1.5147  1.2367  0.0036
  100MOL   H28642064   2.429   5.796   3.738  0.5175  0.1333 -1.4585
  100MOL   H28742065   2.229   5.505   3.861  0.7859  0.8460 -0.7571
  100MOL   H28842066   2.300   5.436   3.712 -0.4100  1.7513 -1.5431
  100MOL   H28942067   2.353   5.383   3.866 -3.1994 -1.0954 -0.3490
  100MOL   H29042068   2.631   5.605   3.723  0.8248 -1.0229 -0.7729
  100MOL   H29142069   2.524   5.545   3.597  0.7109  1.7954  0.3796
  100MOL   H29242070   2.567   5.438   3.732 -0.6083  0.1250  2.1960
  100MOL   H29342071   2.543   5.714   3.947 -2.0746  1.3424  1.7296
  100MOL   H29442072   2.541   5.549   3.988 -1.5322 -1.9135  0.4294
  100MOL   H29542073   2.401   5.633   4.007 -0.1916 -0.1327 -1.2528
  100MOL   C29642074   2.118   5.731   3.644  0.2483 -0.3351 -0.2357
  100MOL   C29742075   2.013   5.651   3.565 -1.0162 -0.0107 -0.1171
  100MOL   C29842076   1.877   5.718   3.594 -0.2982  0.2173 -0.6917
  100MOL   C29942077   1.831   5.833   3.493 -0.8032  0.0857 -0.9349
  100MOL   C30042078   1.700   5.884   3.548 -0.4609  0.1334  0.5347
  100MOL   C30142079   1.929   5.949   3.481 -0.4368 -0.3757 -0.4036
  100MOL   C30242080   1.807   5.774   3.356  0.4134  0.1689 -0.3062
  100MOL   H30342081   2.102   5.839   3.634  0.6705 -0.4224 -2.0522
  100MOL   H30442082   2.093   5.715   3.749  0.0068 -2.0711 -0.5557
  100MOL   H30542083   2.038   5.652   3.459  1.3084 -0.2075  0.3963
  100MOL   H30642084   1.881   5.755   3.697 -1.0630 -1.8080  0.0849
  100MOL   H30742085   1.794   5.648   3.596 -0.0738 -0.1100 -2.3530
  100MOL   H30842086   1.616   5.814   3.550 -1.5663  1.4164  0.1550
  100MOL   H30942087   1.698   5.930   3.647  0.1559  1.2224  0.0587
  100MOL   H31042088   1.669   5.964   3.480 -0.4799 -0.5863 -0.3109
  100MOL   H31142089   1.941   6.009   3.572  1.1669  0.7633 -1.3434
  100MOL   H31242090   2.023   5.907   3.447 -0.9364 -1.7066 -0.1853
  100MOL   H31342091   1.893   6.021   3.408  0.6467  1.3885  0.7520
  100MOL   H31442092   1.764   5.852   3.294 -1.4464  0.1681  0.9583
  100MOL   H31542093   1.903   5.751   3.309  0.8502  2.7363 -0.7155
  100MOL   H31642094   1.745   5.685   3.345  1.1342 -0.1467 -1.8874
  100MOL   C31742095   2.000   5.495   3.610  0.2838  0.5246  0.5795
  100MOL   C31842096   2.002   5.385   3.505  0.4295 -0.0060  0.6069
  100MOL   C31942097   1.873   5.391   3.415  0.3828  0.2993 -0.7748
  100MOL   C32042098   1.741   5.329   3.469 -0.9611 -0.8228  0.1233
  100MOL   C32142099   1.645   5.301   3.352  0.4522  0.2982 -0.3319
  100MOL   C32242100   1.657   5.418   3.563  0.2941 -0.1151 -0.2602
  100MOL   C32342101   1.773   5.188   3.533 -0.0505  0.5079 -0.0798
  100MOL   H32442102   2.074   5.468   3.685 -0.6013 -1.9875  0.5975
  100MOL   H32542103   1.906   5.486   3.665 -0.2443 -2.5612 -0.6923
  100MOL   H32642104   2.002   5.291   3.560  1.2629 -0.9754 -1.0445
  100MOL   H32742105   1.887   5.339   3.321 -2.1274  1.3964 -1.8055
  100MOL   H32842106   1.845   5.488   3.373  2.5912  0.5382 -1.7709
  100MOL   H32942107   1.609   5.394   3.308 -1.3469  0.4915  1.4939
  100MOL   H33042108   1.559   5.243   3.387 -0.8722  0.8108 -2.5977
  100MOL   H33142109   1.688   5.242   3.271  0.4498  0.1613 -0.2335
  100MOL   H33242110   1.641   5.520   3.530  0.4413 -0.1479 -0.4402
  100MOL   H33342111   1.558   5.374   3.566  0.0362  0.4513 -0.6377
  100MOL   H33442112   1.697   5.414   3.665  0.4486 -1.2082 -0.3477
  100MOL   H33542113   1.833   5.132   3.462 -1.4004 -0.0817 -0.7642
  100MOL   H33642114   1.680   5.133   3.542 -0.5076  1.5696  2.0789
  100MOL   H33742115   1.830   5.197   3.626 -0.2674 -0.0030  0.1023
  100MOL   C33842116   2.130   5.387   3.417 -0.0787 -0.4085 -0.4041
  100MOL   C33942117   2.143   5.268   3.326 -0.1813  0.5207  0.4711
  100MOL   C34042118   2.279   5.192   3.338 -0.5590 -0.9839  0.0841
  100MOL   C34142119   2.293   5.105   3.463  0.0322 -0.5934  0.4389
  100MOL   C34242120   2.426   5.028   3.431  0.3960 -0.3236  0.2452
  100MOL   C34342121   2.318   5.178   3.590 -0.4692 -0.5317  0.2063
  100MOL   C34442122   2.185   5.003   3.492  0.2510  0.0021  0.0257
  100MOL   H34542123   2.216   5.389   3.484 -0.3037 -0.2220 -0.1184
  100MOL   H34642124   2.128   5.476   3.355  0.3452  0.9068  1.4249
  100MOL   H34742125   2.076   5.193   3.368 -0.1415  0.8975  1.2124
  100MOL   H34842126   2.355   5.269   3.326 -0.5480 -0.9589  0.3084
  100MOL   H34942127   2.297   5.132   3.249  1.1711 -1.7591  0.9183
  100MOL   H35042128   2.454   4.958   3.510 -0.2855 -0.5724  0.2773
  100MOL   H35142129   2.405   4.958   3.351 -1.0372  0.6703 -0.2779
  100MOL   H35242130   2.510   5.089   3.401 -0.9096  2.5817  2.2099
  100MOL   H35342131   2.371   5.272   3.575 -0.5281 -0.5201  0.0785
  100MOL   H35442132   2.221   5.207   3.631 -0.0938 -1.0079  1.4704
  100MOL   H35542133   2.371   5.123   3.668  0.5737 -1.0672 -0.8769
  100MOL   H35642134   2.096   5.039   3.544  2.4660  3.2634  1.7297
  100MOL   H35742135   2.151   4.954   3.401 -0.8075  0.0117  0.4047
  100MOL   H35842136   2.227   4.918   3.547  0.1918 -1.4035 -2.0456
  100MOL   C35942137   2.112   5.302   3.184 -0.8851  0.4804 -0.1255
  100MOL   C36042138   2.071   5.191   3.083 -0.1219  0.2399 -0.2962
  100MOL   C36142139   2.073   5.255   2.939 -0.3380  0.1340  0.3247
  100MOL   C36242140   2.213   5.248   2.857  0.3526  0.4058  0.1796
  100MOL   C36342141   2.337   5.264   2.948 -0.2748 -0.3589 -0.4794
  100MOL   C36442142   2.204   5.348   2.740 -1.0768 -0.4621  0.3367
  100MOL   C36542143   2.210   5.108   2.789 -0.0803  0.5232  0.6749
  100MOL   H36642144   2.198   5.361   3.156  1.1749 -0.6522  3.4583
  100MOL   H36742145   2.033   5.375   3.170 -1.0942  0.1974 -0.4523
  100MOL   H36842146   2.143   5.110   3.096  0.4911  1.0495  1.5859
  100MOL   H36942147   1.998   5.210   2.874 -1.0316 -0.7719  1.7281
  100MOL   H37042148   2.048   5.360   2.955  2.0313  0.7964  0.0044
  100MOL   H37142149   2.344   5.365   2.988 -0.8852 -1.4511  2.4685
  100MOL   H37242150   2.347   5.193   3.029 -1.0085 -0.0399 -0.1097
  100MOL   H37342151   2.425   5.251   2.884  0.4748  0.4872  0.3666
  100MOL   H37442152   2.283   5.345   2.664 -1.1203 -1.3590  0.3264
  100MOL   H37542153   2.223   5.450   2.774 -2.0363  0.7375 -2.5480
  100MOL   H37642154   2.105   5.359   2.694 -1.3461  0.2205  1.0731
  100MOL   H37742155   2.111   5.086   2.750 -0.0244  0.8437  0.3471
  100MOL   H37842156   2.241   5.023   2.850 -0.0423 -1.2885 -1.8256
  100MOL   H37942157   2.280   5.108   2.705 -0.2187 -2.1160  0.5213
  100MOL   C38042158   1.931   5.131   3.118  0.5836  0.5088 -0.7220
  100MOL   C38142159   1.914   4.990   3.063  0.4304 -0.0188  0.7216
  100MOL   C38242160   1.766   4.947   3.065 -0.1450 -0.2444 -0.2582
  100MOL   C38342161   1.677   4.960   2.934  0.4791  0.1863  0.1501
  100MOL   C38442162   1.730   4.866   2.833 -0.0235  0.2168  0.0750
  100MOL   C38542163   1.664   5.114   2.886 -0.1020  0.5938  0.4825
  100MOL   C38642164   1.540   4.911   2.973 -0.5393  1.0695 -0.6209
  100MOL   H38742165   1.857   5.200   3.078 -0.9380 -1.9034 -2.2505
  100MOL   H38842166   1.919   5.133   3.226  0.7289 -0.5432 -0.6829
  100MOL   H38942167   1.948   4.994   2.960 -0.1897  2.8972  0.5971
  100MOL   H39042168   1.754   4.846   3.103 -2.7772  1.0090  2.5207
  100MOL   H39142169   1.720   5.007   3.144  1.8831 -1.5639  1.9684
  100MOL   H39242170   1.823   4.900   2.789 -0.7553  2.6021  0.3017
  100MOL   H39342171   1.730   4.766   2.877 -0.0432 -0.7522 -2.1006
  100MOL   H39442172   1.663   4.864   2.747  1.8533  0.1191 -1.4029
  100MOL   H39542173   1.594   5.139   2.807  0.4172 -0.1080 -0.2114
  100MOL   H39642174   1.760   5.157   2.858  0.4136 -1.0832 -0.4299
  100MOL   H39742175   1.638   5.188   2.962  0.8727  2.0266 -0.5610
  100MOL   H39842176   1.465   4.911   2.894 -2.3191 -1.0117  1.0020
  100MOL   H39942177   1.490   4.967   3.051 -1.3835 -1.2741  0.5906
  100MOL   H40042178   1.540   4.806   3.003 -1.0110  0.0041 -4.1245
  100MOL   C40142179   1.991   4.889   3.149 -0.2078  0.5213  0.4079
  100MOL   C40242180   2.055   4.789   3.059 -0.9043  0.5277  0.3208
  100MOL   C40342181   2.160   4.706   3.135  0.2115 -0.3510  0.0295
  100MOL   C40442182   2.214   4.584   3.050 -0.8029  0.2990  0.7040
  100MOL   C40542183   2.104   4.503   2.977  0.2528 -0.0029  0.6001
  100MOL   C40642184   2.288   4.490   3.142  0.0908  0.0804 -0.2940
  100MOL   C40742185   2.324   4.638   2.954  0.4468 -0.0336 -0.3193
  100MOL   H40842186   2.068   4.939   3.208  1.2472 -1.0277 -0.1450
  100MOL   H40942187   1.931   4.833   3.221  0.9132 -1.4554 -0.1574
  100MOL   H41042188   1.980   4.726   3.012  0.0847 -0.0154 -0.5684
  100MOL   H41142189   2.115   4.676   3.229 -2.5654 -2.3265 -1.8412
  100MOL   H41242190   2.241   4.759   3.185  1.2289 -1.2058 -0.6948
  100MOL   H41342191   2.140   4.407   2.943 -1.6723 -0.4256 -0.3367
  100MOL   H41442192   2.064   4.555   2.890 -0.2037  0.6101  1.1726
  100MOL   H41542193   2.029   4.491   3.056 -0.5336 -1.0652 -0.2961
  100MOL   H41642194   2.342   4.415   3.084  0.5105 -1.5542  2.1427
  100MOL   H41742195   2.216   4.440   3.207 -1.8914  1.8754 -1.0517
  100MOL   H41842196   2.373   4.538   3.191  0.1121  1.1136 -1.3091
  100MOL   H41942197   2.391   4.711   2.999 -0.1705  1.3439 -1.5949
  100MOL   H42042198   2.390   4.566   2.904  2.9858  2.7514 -1.1390
  100MOL   H42142199   2.281   4.703   2.877 -0.8386 -0.2903  0.1733
  100MOL   H42242200   2.109   4.834   2.976 -0.0413  1.7447  1.5284
  101MOL     C142201   5.220   2.277   7.133 -0.4055  0.6511 -0.5720
  101MOL     C242202   5.232   2.134   7.074 -0.3586  0.3506 -0.0865
  101MOL     C342203   5.370   2.126   6.987  0.8073 -0.0081  0.0896
  101MOL     C442204   5.478   2.033   7.040  0.4258  0.4851  0.7218
  101MOL     C542205   5.521   2.061   7.183  0.1551  0.1743  0.4923
  101MOL     C642206   5.443   1.885   7.027  0.3906  0.0504  0.0452
  101MOL     C742207   5.598   2.053   6.944 -0.5228  0.8338 -0.5152
  101MOL     H842208   5.153   2.282   7.219 -0.5334 -0.3919 -0.6022
  101MOL     H942209   5.319   2.309   7.167 -0.9849 -1.2929  3.1764
  101MOL    H1042210   5.230   2.051   7.145  0.8822 -1.0332 -1.6207
  101MOL    H1142211   5.408   2.227   6.973  0.7689 -0.4900 -3.8379
  101MOL    H1242212   5.342   2.104   6.884  2.2388  2.2574 -0.8148
  101MOL    H1342213   5.525   2.168   7.201  0.3306  0.5703 -1.7909
  101MOL    H1442214   5.617   2.016   7.208  2.5521  2.0824 -4.5835
  101MOL    H1542215   5.451   2.025   7.259 -0.4939  0.9241  0.2554
  101MOL    H1642216   5.434   1.856   6.922 -3.1234 -0.7783  0.5065
  101MOL    H1742217   5.522   1.828   7.077  0.4239 -1.1545 -1.3348
  101MOL    H1842218   5.343   1.862   7.064  0.9380 -2.5279  0.0695
  101MOL    H1942219   5.680   1.983   6.963 -0.9033  1.1158  2.3318
  101MOL    H2042220   5.634   2.154   6.962  0.0101  0.4623  0.5637
  101MOL    H2142221   5.575   2.036   6.839  0.2579 -0.3563 -0.5105
  101MOL    H2242222   5.192   2.360   7.068  1.7356  0.7198 -1.4509
  101MOL    C2342223   5.107   2.102   6.978 -0.2671  0.1099  0.2658
  101MOL    C2442224   4.971   2.097   7.066  0.1735  0.4339  0.0905
  101MOL    C2542225   4.971   1.960   7.143 -0.1827  0.3618  0.2994
  101MOL    C2642226   4.909   1.949   7.282 -0.2547 -0.4452 -0.0513
  101MOL    C2742227   4.766   1.993   7.280 -0.4676  0.8545  0.4695
  101MOL    C2842228   4.928   1.804   7.328  0.1260  0.2621  0.5765
  101MOL    C2942229   4.987   2.033   7.388 -0.1047 -0.0692  0.4613
  101MOL    H3042230   5.093   2.179   6.902 -1.3053 -0.5639 -0.2329
  101MOL    H3142231   5.127   2.004   6.937 -0.4778  0.2344 -0.1399
  101MOL    H3242232   4.970   2.177   7.140 -0.1925 -0.1855  0.7503
  101MOL    H3342233   5.072   1.918   7.148 -1.2862 -2.2918  1.4696
  101MOL    H3442234   4.920   1.896   7.071  1.0187 -0.6596  0.3130
  101MOL    H3542235   4.724   1.935   7.198 -2.0571 -1.0701  2.5848
  101MOL    H3642236   4.720   1.965   7.375 -0.3050 -0.9234  0.0346
  101MOL    H3742237   4.755   2.096   7.246 -2.2093  0.4184 -0.3280
  101MOL    H3842238   4.871   1.732   7.268  0.0640 -1.6812  2.8651
  101MOL    H3942239   5.035   1.785   7.328  0.3610  1.4210 -2.0716
  101MOL    H4042240   4.883   1.788   7.426  0.2903 -1.9339  0.3304
  101MOL    H4142241   5.096   2.020   7.390 -0.1057 -0.2577 -0.5751
  101MOL    H4242242   4.961   2.014   7.492  0.2912 -3.1417  0.0717
  101MOL    H4342243   4.969   2.138   7.368  0.7025  0.4810  2.5366
  101MOL    C4442244   4.852   2.121   6.971 -0.2260  0.6064  0.9935
  101MOL    C4542245   4.834   2.269   6.924  0.9212  0.3700  0.2868
  101MOL    C4642246   4.739   2.340   7.020  0.4503  0.2184 -0.6539
  101MOL    C4742247   4.745   2.493   7.038  0.3866 -0.5000 -0.1218
  101MOL    C4842248   4.690   2.525   7.186 -0.4748 -0.0569  0.0827
  101MOL    C4942249   4.643   2.572   6.952 -0.1908 -0.4954  0.0178
  101MOL    C5042250   4.889   2.546   7.030 -0.2308 -0.0585 -0.2488
  101MOL    H5142251   4.871   2.058   6.884  1.1830  2.3675 -0.0161
  101MOL    H5242252   4.754   2.090   7.008 -0.7501  0.7621 -0.2348
  101MOL    H5342253   4.936   2.303   6.940  1.0947 -0.1574  0.3261
  101MOL    H5442254   4.753   2.295   7.118  2.2268 -0.2015 -1.0947
  101MOL    H5542255   4.637   2.311   6.993 -0.2910 -0.4940  2.6782
  101MOL    H5642256   4.752   2.467   7.255 -1.8018  0.5883  1.8563
  101MOL    H5742257   4.588   2.487   7.182  0.0535 -1.4716 -0.3644
  101MOL    H5842258   4.684   2.629   7.216  2.5436  0.0582  0.3660
  101MOL    H5942259   4.540   2.534   6.960 -0.7368  1.2944  1.8779
  101MOL    H6042260   4.650   2.678   6.973  0.6327 -0.3602 -0.9493
  101MOL    H6142261   4.666   2.561   6.846  0.4957 -1.3935  0.2542
  101MOL    H6242262   4.938   2.543   6.933 -0.2867  0.5882 -0.2991
  101MOL    H6342263   4.876   2.651   7.056 -0.7683  0.0294 -0.8603
  101MOL    H6442264   4.949   2.488   7.100 -1.2281 -1.3598 -0.4606
  101MOL    C6542265   4.774   2.282   6.783  0.2750  0.0760  0.2325
  101MOL    C6642266   4.853   2.221   6.659  0.3069  0.7025  0.1186
  101MOL    C6742267   4.894   2.311   6.551  1.1427 -0.7445  0.2498
  101MOL    C6842268   4.995   2.429   6.574 -0.2026 -0.2547  0.4786
  101MOL    C6942269   5.118   2.391   6.661  0.3068  0.7342 -0.2960
  101MOL    C7042270   5.043   2.468   6.433  0.1744  0.3895  0.6744
  101MOL    C7142271   4.921   2.563   6.623 -0.0572  0.2968  0.3524
  101MOL    H7242272   4.670   2.248   6.777  0.4605 -1.1964  3.3554
  101MOL    H7342273   4.759   2.388   6.762 -0.4148 -0.1215 -0.3058
  101MOL    H7442274   4.941   2.172   6.700  0.0360 -0.2018 -0.3674
  101MOL    H7542275   4.806   2.346   6.497  1.7711  0.2922 -0.1089
  101MOL    H7642276   4.943   2.251   6.474  4.3830  0.7078  1.0809
  101MOL    H7742277   5.207   2.453   6.655  1.4724 -0.9821 -1.2782
  101MOL    H7842278   5.093   2.409   6.766 -0.5008 -2.5111  0.1405
  101MOL    H7942279   5.157   2.290   6.648  1.4200  0.7595  2.4942
  101MOL    H8042280   5.094   2.384   6.387  1.4265  0.8451  1.2113
  101MOL    H8142281   5.119   2.546   6.431  0.6331 -0.0740 -1.5524
  101MOL    H8242282   4.967   2.491   6.358  1.7356  0.6350 -0.8588
  101MOL    H8342283   4.985   2.651   6.615  0.9904 -0.5975 -1.4880
  101MOL    H8442284   4.874   2.562   6.721  0.5494 -0.5416  0.6388
  101MOL    H8542285   4.844   2.592   6.552 -1.8988  0.4463  2.3653
  101MOL    C8642286   4.766   2.103   6.604 -0.3416  0.8043 -0.2087
  101MOL    C8742287   4.837   2.000   6.523 -0.0379 -0.3122  0.5516
  101MOL    C8842288   4.736   1.923   6.430 -0.6368 -0.3506 -0.3707
  101MOL    C8942289   4.719   1.983   6.285  1.2629  0.3252 -0.1820
  101MOL    C9042290   4.613   1.900   6.214 -0.7214  0.2099  0.6573
  101MOL    C9142291   4.844   1.976   6.207  0.2825  0.3107  0.1890
  101MOL    C9242292   4.664   2.123   6.291 -0.5783 -0.5724 -0.5257
  101MOL    H9342293   4.676   2.140   6.554  0.5377  0.8601 -1.7671
  101MOL    H9442294   4.720   2.048   6.686 -0.1762 -0.0847 -0.7046
  101MOL    H9542295   4.904   2.048   6.451 -0.3772  0.7752  0.9616
  101MOL    H9642296   4.637   1.923   6.475  0.1507 -2.2013  1.4411
  101MOL    H9742297   4.767   1.820   6.413 -0.0745 -0.3257  0.4653
  101MOL    H9842298   4.634   1.795   6.196  1.2960  0.9378 -1.4711
  101MOL    H9942299   4.592   1.943   6.116  1.8165 -1.0155 -0.4882
  101MOL   H10042300   4.521   1.913   6.272 -0.3708 -1.5625  1.6595
  101MOL   H10142301   4.890   1.877   6.215  0.0969  0.3892  2.7059
  101MOL   H10242302   4.825   2.006   6.104  1.3982 -1.3430 -0.5183
  101MOL   H10342303   4.920   2.043   6.246 -0.1566 -0.0676  1.7593
  101MOL   H10442304   4.651   2.176   6.196  0.9219  2.2579  0.7661
  101MOL   H10542305   4.568   2.123   6.343  0.6441  0.6747  1.7933
  101MOL   H10642306   4.738   2.181   6.346 -1.6587  0.1085  0.2330
  101MOL   C10742307   4.908   1.902   6.611  0.5191  0.7350 -0.1212
  101MOL   C10842308   5.045   1.849   6.558  0.1701  0.2304 -0.0292
  101MOL   C10942309   5.162   1.953   6.577  0.6668 -0.5531  0.2920
  101MOL   C11042310   5.257   1.993   6.462  0.2135  0.5428  0.1139
  101MOL   C11142311   5.171   2.050   6.347  0.0673 -0.5131 -0.5620
  101MOL   C11242312   5.329   1.865   6.411 -0.1542  0.4642  0.0315
  101MOL   C11342313   5.348   2.109   6.502  0.5040 -0.4159 -0.7109
  101MOL   H11442314   4.848   1.813   6.630 -0.1854  1.4530  1.0750
  101MOL   H11542315   4.924   1.946   6.709  1.4942  2.1010 -0.8775
  101MOL   H11642316   5.053   1.827   6.452 -0.7276  0.4783 -0.1507
  101MOL   H11742317   5.107   2.041   6.610 -2.0277 -2.4707  1.0450
  101MOL   H11842318   5.223   1.929   6.664  0.4054  0.6446  0.8163
  101MOL   H11942319   5.114   1.976   6.290 -0.8625 -2.0734  2.3041
  101MOL   H12042320   5.102   2.128   6.380  0.6754 -0.5286  0.7512
  101MOL   H12142321   5.235   2.096   6.272  1.1565  1.0152  1.2814
  101MOL   H12242322   5.407   1.899   6.342  0.6233  0.8359  1.0786
  101MOL   H12342323   5.260   1.803   6.355  0.5335 -3.4356  3.2314
  101MOL   H12442324   5.378   1.811   6.492  1.6923  1.5479 -0.3342
  101MOL   H12542325   5.297   2.204   6.517 -0.1072 -0.5234 -2.0012
  101MOL   H12642326   5.424   2.133   6.427 -0.2452  0.6212 -1.1452
  101MOL   H12742327   5.398   2.088   6.597 -2.1741 -2.2355  0.3585
  101MOL   C12842328   5.087   1.703   6.624  0.1428 -0.5383  0.6045
  101MOL   C12942329   5.016   1.584   6.551  0.4475  0.1472  0.0083
  101MOL   C13042330   5.124   1.530   6.466  0.0463 -0.2990 -0.6221
  101MOL   C13142331   5.094   1.445   6.343 -0.2677  0.0183  0.2600
  101MOL   C13242332   5.010   1.536   6.240 -0.0502 -0.1333 -0.1477
  101MOL   C13342333   5.032   1.310   6.379  0.0407 -0.4503 -0.1849
  101MOL   C13442334   5.225   1.408   6.279 -0.3607 -0.3217 -0.2088
  101MOL   H13542335   5.048   1.710   6.725 -0.8518 -3.0058  0.4472
  101MOL   H13642336   5.195   1.701   6.640 -0.0424  0.3096  1.9931
  101MOL   H13742337   4.932   1.626   6.494 -1.3790 -0.8929  1.8751
  101MOL   H13842338   5.184   1.612   6.428  0.3167 -0.1716  0.0706
  101MOL   H13942339   5.197   1.479   6.528  0.9942  1.7492 -0.0168
  101MOL   H14042340   4.919   1.577   6.283 -0.6635  0.7649 -2.2470
  101MOL   H14142341   4.964   1.477   6.161 -3.4528  0.0382  1.5931
  101MOL   H14242342   5.069   1.620   6.203  0.8820 -0.2945  0.9711
  101MOL   H14342343   4.932   1.329   6.417  0.1849  2.3248 -1.1291
  101MOL   H14442344   5.100   1.266   6.452 -1.4688  0.0376  1.5629
  101MOL   H14542345   5.025   1.257   6.284 -1.7600  0.5631 -0.6381
  101MOL   H14642346   5.288   1.493   6.253 -1.6022  0.5314 -0.4484
  101MOL   H14742347   5.282   1.340   6.343  0.2050 -0.8387 -1.2567
  101MOL   H14842348   5.205   1.351   6.189  1.6808  0.1910 -1.0108
  101MOL   C14942349   4.954   1.478   6.647  0.1757  0.1333  0.0881
  101MOL   C15042350   4.849   1.531   6.751  0.1958  0.3826 -0.1096
  101MOL   C15142351   4.718   1.549   6.671  0.1820  0.0073 -0.0381
  101MOL   C15242352   4.592   1.617   6.736 -0.2668 -0.3534  0.0189
  101MOL   C15342353   4.519   1.522   6.832  0.2618  0.2221 -0.0928
  101MOL   C15442354   4.499   1.655   6.620 -0.9139 -0.6496  0.2116
  101MOL   C15542355   4.631   1.746   6.805 -0.3466 -0.3737  0.4305
  101MOL   H15642356   5.042   1.433   6.693  0.3952 -0.2205 -0.6875
  101MOL   H15742357   4.902   1.405   6.586 -1.9499  0.6690  1.1967
  101MOL   H15842358   4.881   1.622   6.803 -0.3652  0.0285  0.8694
  101MOL   H15942359   4.692   1.457   6.619  2.6794 -0.9060  0.2589
  101MOL   H16042360   4.737   1.625   6.595  0.5564  0.8070  0.8470
  101MOL   H16142361   4.427   1.576   6.856  0.7630  1.0834 -0.0833
  101MOL   H16242362   4.495   1.421   6.800 -2.0845  1.2857 -1.9154
  101MOL   H16342363   4.578   1.511   6.923  2.6564  2.3387 -1.3269
  101MOL   H16442364   4.479   1.576   6.549  0.8373 -0.0075 -1.0333
  101MOL   H16542365   4.528   1.737   6.555  1.1648 -0.2814  1.5253
  101MOL   H16642366   4.404   1.692   6.658 -1.4097 -1.1451 -0.5387
  101MOL   H16742367   4.556   1.795   6.868 -1.0223 -2.0776  0.9874
  101MOL   H16842368   4.711   1.717   6.873 -0.0382  2.5531  1.3959
  101MOL   H16942369   4.650   1.826   6.734  1.4847 -0.8361  0.3724
  101MOL   C17042370   4.833   1.429   6.856  1.2852  0.1477 -0.5707
  101MOL   C17142371   4.949   1.353   6.927 -0.0604 -0.0345 -0.1857
  101MOL   C17242372   4.900   1.263   7.043 -0.0869  0.6386  0.1522
  101MOL   C17342373   4.873   1.115   7.015  0.4504  0.1268  0.4321
  101MOL   C17442374   4.804   1.063   7.138  0.0834 -0.5344 -0.3441
  101MOL   C17542375   5.010   1.044   6.991  0.7218  0.2674 -0.3087
  101MOL   C17642376   4.789   1.097   6.885  0.0331 -0.6910 -0.1334
  101MOL   H17742377   4.759   1.356   6.823  1.8726 -0.5888 -0.2686
  101MOL   H17842378   4.781   1.480   6.937  2.7371  1.1388 -0.2421
  101MOL   H17942379   5.000   1.292   6.853 -1.2922 -0.0473 -1.0407
  101MOL   H18042380   4.971   1.267   7.126  0.7032  1.0448 -0.5394
  101MOL   H18142381   4.809   1.303   7.086  0.0213  2.5510 -1.3451
  101MOL   H18242382   4.702   1.101   7.149 -0.5793 -2.8582  2.0482
  101MOL   H18342383   4.769   0.962   7.118 -1.1272 -0.1118 -0.4446
  101MOL   H18442384   4.852   1.066   7.236  1.5531  0.9100 -1.0904
  101MOL   H18542385   5.058   1.064   6.896  2.5001 -1.2151  0.2489
  101MOL   H18642386   5.085   1.064   7.068  2.6203  2.9016 -2.7513
  101MOL   H18742387   4.995   0.936   6.993  1.7619  0.1362  0.9857
  101MOL   H18842388   4.776   0.998   6.841 -2.6587 -0.4954  0.1266
  101MOL   H18942389   4.688   1.132   6.904  0.2532  0.6721 -1.4492
  101MOL   H19042390   4.848   1.142   6.805 -0.8298 -1.5287 -1.2557
  101MOL   C19142391   5.054   1.447   6.974  0.1316 -0.1360 -0.7815
  101MOL   C19242392   5.201   1.382   6.999  0.2258 -0.6975 -0.5285
  101MOL   C19342393   5.278   1.478   7.084 -0.6598 -0.3653  0.4734
  101MOL   C19442394   5.294   1.455   7.239 -0.2441 -0.5619 -0.4760
  101MOL   C19542395   5.367   1.325   7.259 -0.0531  0.0198  1.0232
  101MOL   C19642396   5.156   1.450   7.313 -0.1527  0.9049 -0.2098
  101MOL   C19742397   5.378   1.571   7.293  0.0540 -0.6643  0.6699
  101MOL   H19842398   5.069   1.532   6.907  0.2131 -0.2109 -0.8571
  101MOL   H19942399   5.014   1.496   7.063  0.0886 -0.1077 -0.8169
  101MOL   H20042400   5.188   1.284   7.046  0.4609  0.5902  2.3199
  101MOL   H20142401   5.236   1.576   7.066 -1.8998 -1.4291 -2.7956
  101MOL   H20242402   5.380   1.492   7.049 -1.0502 -0.8437 -0.9022
  101MOL   H20342403   5.307   1.238   7.232  0.8641 -0.3527  0.1443
  101MOL   H20442404   5.460   1.328   7.202  0.5288 -0.1886  1.9501
  101MOL   H20542405   5.385   1.320   7.367  1.0435  1.4547  0.9161
  101MOL   H20642406   5.171   1.450   7.421 -1.7889  0.3659  0.0203
  101MOL   H20742407   5.092   1.536   7.295 -0.0737  1.5481  2.3537
  101MOL   H20842408   5.105   1.355   7.301 -0.4874  1.0892 -0.2586
  101MOL   H20942409   5.347   1.675   7.283  2.2416 -0.0517 -0.0969
  101MOL   H21042410   5.394   1.564   7.401  1.8833  1.3835  0.5608
  101MOL   H21142411   5.474   1.577   7.241 -0.2004  1.2824  0.3999
  101MOL   C21242412   5.266   1.357   6.859 -0.0507  0.2082  0.0527
  101MOL   C21342413   5.396   1.270   6.863  0.3496  0.1944 -0.2718
  101MOL   C21442414   5.486   1.296   6.739  0.2678  0.2267  0.5981
  101MOL   C21542415   5.589   1.419   6.738  0.1771  0.2829 -0.2002
  101MOL   C21642416   5.672   1.400   6.610  0.2024 -0.3524  0.2877
  101MOL   C21742417   5.514   1.552   6.729  0.5280  0.1667  0.5718
  101MOL   C21842418   5.686   1.424   6.857  0.2760 -0.0598  0.1314
  101MOL   H21942419   5.196   1.312   6.789  0.6413  1.0953 -1.2316
  101MOL   H22042420   5.288   1.453   6.813 -1.2406 -0.0663 -1.1367
  101MOL   H22142421   5.455   1.285   6.953 -0.9483  0.4669  0.5490
  101MOL   H22242422   5.424   1.290   6.649  2.5660  3.3763 -1.3135
  101MOL   H22342423   5.547   1.207   6.722  0.8242  0.4793  1.2294
  101MOL   H22442424   5.740   1.316   6.625  0.7509  0.1742  0.7973
  101MOL   H22542425   5.740   1.484   6.596  2.1229 -2.1954 -2.1048
  101MOL   H22642426   5.615   1.392   6.518  0.1122 -2.7815  0.5073
  101MOL   H22742427   5.585   1.630   6.701  1.5680 -0.1534  2.2056
  101MOL   H22842428   5.425   1.548   6.667  0.4421 -0.4659  0.7318
  101MOL   H22942429   5.473   1.571   6.828  1.7497  0.4687  1.0280
  101MOL   H23042430   5.727   1.324   6.864  0.4403 -0.2803 -2.9838
  101MOL   H23142431   5.630   1.449   6.947 -0.6236 -1.0941 -0.1389
  101MOL   H23242432   5.766   1.491   6.826  1.5415 -2.0719 -1.0340
  101MOL   C23342433   5.356   1.122   6.856  0.3807 -0.1934  0.1569
  101MOL   C23442434   5.457   1.008   6.884 -0.4264 -0.2626  0.4782
  101MOL   C23542435   5.462   0.987   7.043 -0.1739 -0.3251  0.3440
  101MOL   C23642436   5.607   0.977   7.102  0.0072 -0.3053 -0.0258
  101MOL   C23742437   5.652   0.835   7.074 -0.4267  0.7178 -0.0327
  101MOL   C23842438   5.711   1.092   7.070 -0.2497 -0.1369 -0.0605
  101MOL   C23942439   5.594   0.973   7.250 -0.2698  0.7239 -0.2487
  101MOL   H24042440   5.301   1.116   6.762 -2.0134 -0.3794  1.5133
  101MOL   H24142441   5.279   1.105   6.932  2.7991  1.0246  2.9758
  101MOL   H24242442   5.558   1.039   6.854  0.2814 -2.2687  0.7377
  101MOL   H24342443   5.414   1.069   7.095 -1.7811 -1.3616  0.5144
  101MOL   H24442444   5.403   0.901   7.074  1.1894 -1.2265  0.5273
  101MOL   H24542445   5.743   0.809   7.128  0.7829  0.7159 -2.0400
  101MOL   H24642446   5.674   0.828   6.968 -1.9451 -0.5320 -0.2787
  101MOL   H24742447   5.583   0.752   7.085  0.2680  0.0096 -0.9916
  101MOL   H24842448   5.752   1.087   6.969 -2.1635  0.0581 -0.8600
  101MOL   H24942449   5.674   1.194   7.077 -1.3469 -0.5708  0.4996
  101MOL   H25042450   5.801   1.088   7.132 -0.0686 -0.1326 -0.3239
  101MOL   H25142451   5.516   0.901   7.274 -0.2933  1.8998  3.5338
  101MOL   H25242452   5.677   0.941   7.313 -1.0858 -0.2391  0.3498
  101MOL   H25342453   5.568   1.072   7.288  2.2657  2.0708 -1.9155
  101MOL   C25442454   5.414   0.881   6.804 -0.2580  0.7372  0.1384
  101MOL   C25542455   5.445   0.880   6.653 -0.4607  0.1522  1.0180
  101MOL   C25642456   5.355   0.770   6.587  0.0045 -0.0910 -0.2454
  101MOL   C25742457   5.209   0.810   6.535  0.7322 -0.5592 -0.4767
  101MOL   C25842458   5.138   0.691   6.475  0.9481  0.1707 -0.0305
  101MOL   C25942459   5.212   0.930   6.438 -0.4844 -0.2596 -0.3966
  101MOL   C26042460   5.114   0.855   6.650  0.5727 -0.2289  0.5258
  101MOL   H26142461   5.306   0.874   6.818 -0.4712 -1.1475 -2.1874
  101MOL   H26242462   5.456   0.794   6.853 -0.1972  0.0381 -1.1531
  101MOL   H26342463   5.418   0.979   6.616  1.1610  1.1476  2.3846
  101MOL   H26442464   5.409   0.740   6.497 -0.2193  1.6836 -0.9987
  101MOL   H26542465   5.347   0.681   6.649  1.6090 -2.0583 -2.7345
  101MOL   H26642466   5.143   0.623   6.559 -2.0453 -0.7917 -0.5457
  101MOL   H26742467   5.195   0.658   6.388  1.0914 -0.0498  0.1483
  101MOL   H26842468   5.041   0.719   6.432  0.0838 -1.7387  0.6264
  101MOL   H26942469   5.115   0.958   6.397  0.2837  2.1089 -0.6636
  101MOL   H27042470   5.262   0.894   6.348  2.3872  1.4202  0.4386
  101MOL   H27142471   5.254   1.022   6.479  3.6011 -1.0765 -2.4781
  101MOL   H27242472   5.012   0.863   6.613  1.5058  0.5786 -1.9606
  101MOL   H27342473   5.122   0.779   6.728  1.9715  0.9052  1.4980
  101MOL   H27442474   5.132   0.946   6.706 -1.0588  0.4570 -0.0239
  101MOL   C27542475   5.601   0.845   6.635  0.3586  0.6697 -0.0391
  101MOL   C27642476   5.655   0.857   6.491  0.2623 -0.0805 -0.0393
  101MOL   C27742477   5.718   1.002   6.460  0.3543  0.4542 -0.8404
  101MOL   C27842478   5.701   1.071   6.328  0.4974 -1.1312 -0.1468
  101MOL   C27942479   5.734   0.999   6.200  0.0319 -0.1812  0.0019
  101MOL   C28042480   5.557   1.116   6.322  0.2015 -0.2305  0.1233
  101MOL   C28142481   5.801   1.189   6.338 -0.3938 -0.4271  0.5385
  101MOL   H28242482   5.658   0.904   6.706 -1.1325  1.9874  0.0878
  101MOL   H28342483   5.608   0.741   6.668  1.0953  0.1599 -1.7142
  101MOL   H28442484   5.571   0.849   6.423 -0.8240  2.0938  1.0013
  101MOL   H28542485   5.823   1.002   6.488  0.7182 -1.1950 -2.1595
  101MOL   H28642486   5.680   1.073   6.534  1.5501 -0.0615  0.2792
  101MOL   H28742487   5.651   0.929   6.189  1.9061 -2.5557  0.5144
  101MOL   H28842488   5.734   1.063   6.111  1.3524 -0.6717 -0.3521
  101MOL   H28942489   5.821   0.935   6.192  1.2960  1.7865 -2.6711
  101MOL   H29042490   5.524   1.173   6.235  1.4853  0.3103 -0.0151
  101MOL   H29142491   5.528   1.168   6.414 -1.9237 -0.9991 -0.0835
  101MOL   H29242492   5.489   1.031   6.329  0.6123 -0.6536 -0.9997
  101MOL   H29342493   5.908   1.166   6.337  0.0143  1.4037 -0.2451
  101MOL   H29442494   5.790   1.256   6.423 -0.6482  2.1958 -1.4909
  101MOL   H29542495   5.780   1.253   6.253 -0.0956  0.6581  1.2627
  101MOL   C29642496   5.759   0.752   6.448  0.1393 -0.2397 -0.1461
  101MOL   C29742497   5.711   0.605   6.413 -0.2216  0.0414 -0.0170
  101MOL   C29842498   5.834   0.512   6.411  0.2848  0.3757  0.3927
  101MOL   C29942499   5.852   0.412   6.523 -0.1958 -0.4928 -0.0926
  101MOL   C30042500   5.877   0.493   6.654 -0.5762 -0.2813  0.2867
  101MOL   C30142501   5.739   0.306   6.532 -0.8342  0.6089  0.9278
  101MOL   C30242502   5.987   0.332   6.495 -0.5404 -0.4150  0.3670
  101MOL   H30342503   5.823   0.753   6.536  3.2867 -1.8554 -2.2754
  101MOL   H30442504   5.815   0.795   6.364  0.6021  0.9472  0.7586
  101MOL   H30542505   5.646   0.568   6.492 -0.1679  3.2139  1.6066
  101MOL   H30642506   5.919   0.577   6.393  0.0769  1.1544  2.1515
  101MOL   H30742507   5.819   0.450   6.323 -1.1480  0.7211  0.3721
  101MOL   H30842508   5.960   0.562   6.637 -0.9160  0.0003 -0.2219
  101MOL   H30942509   5.785   0.548   6.673  0.0676  0.9778 -0.1955
  101MOL   H31042510   5.908   0.422   6.730 -3.0202 -0.4458  1.1603
  101MOL   H31142511   5.643   0.343   6.498  0.8195  1.3228 -3.2045
  101MOL   H31242512   5.767   0.218   6.474 -1.8492 -0.6922  2.3485
  101MOL   H31342513   5.735   0.257   6.630  3.0301 -2.8085 -0.4866
  101MOL   H31442514   5.992   0.257   6.574 -0.9693 -0.4000  0.4083
  101MOL   H31542515   5.982   0.264   6.411 -1.1818 -0.2207  0.2454
  101MOL   H31642516   6.078   0.393   6.506 -0.4029 -0.4613 -0.4780
  101MOL   C31742517   5.633   0.607   6.275  0.1724  0.3799 -0.0167
  101MOL   C31842518   5.550   0.480   6.240 -0.6053 -0.0877  0.3582
  101MOL   C31942519   5.424   0.466   6.327  1.0098 -0.3038 -0.0162
  101MOL   C32042520   5.349   0.327   6.337 -0.3999 -0.3229  0.1911
  101MOL   C32142521   5.282   0.283   6.208 -0.1482  0.2911 -0.2145
  101MOL   C32242522   5.242   0.330   6.445  0.3686 -0.8286 -0.0839
  101MOL   C32342523   5.442   0.212   6.395 -0.4861 -0.3572  0.5952
  101MOL   H32442524   5.564   0.691   6.282  1.3821  1.4027 -0.0637
  101MOL   H32542525   5.700   0.630   6.191 -1.6261  1.7931 -1.0995
  101MOL   H32642526   5.608   0.387   6.242 -0.5738 -0.0390  1.8794
  101MOL   H32742527   5.356   0.544   6.293  0.4521 -0.7950 -0.0563
  101MOL   H32842528   5.456   0.491   6.428  0.4251  0.1235  0.0669
  101MOL   H32942529   5.202   0.210   6.220  0.5444 -0.3730  0.3595
  101MOL   H33042530   5.350   0.262   6.126  1.9177  0.5005  1.3973
  101MOL   H33142531   5.233   0.371   6.165 -1.6422 -1.0597 -1.3311
  101MOL   H33242532   5.173   0.404   6.405  1.7868  0.5520 -0.0131
  101MOL   H33342533   5.188   0.235   6.453 -1.8545  0.4785  0.9812
  101MOL   H33442534   5.282   0.354   6.544 -1.0114  0.3630  0.1957
  101MOL   H33542535   5.534   0.200   6.337 -0.6346 -0.1669  0.3185
  101MOL   H33642536   5.392   0.117   6.373 -0.1339 -0.6680  1.1156
  101MOL   H33742537   5.473   0.222   6.499 -0.1379 -2.1814  0.6922
  101MOL   C33842538   5.503   0.512   6.090  0.5334  0.6048 -0.4750
  101MOL   C33942539   5.609   0.469   5.987 -0.1450  0.0544 -0.0045
  101MOL   C34042540   5.604   0.552   5.855 -0.2071 -0.1552 -0.5298
  101MOL   C34142541   5.674   0.692   5.859  0.9076 -0.6835  0.0493
  101MOL   C34242542   5.663   0.748   5.717  0.5703  0.4742  0.1917
  101MOL   C34342543   5.595   0.795   5.949  0.4778  0.9418  0.1360
  101MOL   C34442544   5.817   0.692   5.910 -0.7988  0.2605  0.4152
  101MOL   H34542545   5.475   0.617   6.086  2.1876  1.1258  0.7451
  101MOL   H34642546   5.406   0.467   6.066  0.9951 -0.7365  0.1196
  101MOL   H34742547   5.703   0.498   6.033 -0.4328  1.0323 -0.0131
  101MOL   H34842548   5.518   0.545   5.787 -0.7809 -1.1882  0.2968
  101MOL   H34942549   5.668   0.497   5.785 -1.4706 -0.1744 -1.6992
  101MOL   H35042550   5.728   0.681   5.660 -0.0271 -1.5298  1.8013
  101MOL   H35142551   5.560   0.749   5.680  0.3367 -1.2125  0.7632
  101MOL   H35242552   5.711   0.846   5.710  3.2681 -0.8053  0.1574
  101MOL   H35342553   5.610   0.777   6.056 -1.6786 -0.3417  0.2386
  101MOL   H35442554   5.625   0.897   5.925  3.3814 -0.5531 -2.9542
  101MOL   H35542555   5.488   0.813   5.946  0.5872  2.0077  1.7736
  101MOL   H35642556   5.832   0.666   6.015 -0.3959 -0.3534  0.2000
  101MOL   H35742557   5.867   0.628   5.838  1.7687  4.8655 -2.1792
  101MOL   H35842558   5.866   0.789   5.898 -0.0357 -0.1570  0.1315
  101MOL   C35942559   5.602   0.313   5.953  0.1148  0.9628  0.1322
  101MOL   C36042560   5.736   0.253   5.891 -0.0076 -0.7435  0.1816
  101MOL   C36142561   5.734   0.096   5.867 -0.0318 -0.3731  0.0433
  101MOL   C36242562   5.678   0.064   5.723 -0.0367  0.2709 -0.2419
  101MOL   C36342563   5.535   0.113   5.702  0.7652  0.0190 -0.2037
  101MOL   C36442564   5.675   7.677   5.723  0.5033 -0.6000  0.2357
  101MOL   C36542565   5.769   0.117   5.606 -0.0043 -0.2530  0.5627
  101MOL   H36642566   5.514   0.290   5.894  0.3840 -0.1397  0.1568
  101MOL   H36742567   5.577   0.255   6.042 -1.0372  0.2052 -0.6766
  101MOL   H36842568   5.758   0.312   5.802  3.1555  1.3805  2.2451
  101MOL   H36942569   5.831   0.047   5.861 -0.2726 -0.8105 -0.2418
  101MOL   H37042570   5.678   0.048   5.947 -0.6189  2.1547  1.1986
  101MOL   H37142571   5.471   0.093   5.789  0.2934 -0.3045 -0.6205
  101MOL   H37242572   5.539   0.219   5.678 -0.1612  0.7631  2.7284
  101MOL   H37342573   5.501   0.055   5.617 -1.1452  1.3027 -0.3537
  101MOL   H37442574   5.639   7.629   5.631 -0.0891 -0.4442  0.3870
  101MOL   H37542575   5.617   7.629   5.801  0.3261  0.0055  0.4764
  101MOL   H37642576   5.778   7.641   5.729  0.9644  0.7803  0.8002
  101MOL   H37742577   5.811   0.216   5.624  0.3640 -0.1483 -0.8241
  101MOL   H37842578   5.728   0.116   5.505  0.9656 -1.7099  0.1710
  101MOL   H37942579   5.863   0.063   5.610  0.1482  0.0589  1.3485
  101MOL   C38042580   5.868   0.274   5.980  0.4811 -0.3431 -0.0469
  101MOL   C38142581   6.008   0.252   5.922 -0.5296  0.6639  0.1945
  101MOL   C38242582   6.122   0.225   6.027  0.4541  0.0719 -0.6040
  101MOL   C38342583   6.141   0.080   6.076 -0.8414 -0.3790  0.6396
  101MOL   C38442584   6.247   0.097   6.183 -0.6176 -0.7619 -0.1122
  101MOL   C38542585   6.206   7.764   5.960 -0.3682  0.4473  0.2841
  101MOL   C38642586   6.023   7.765   6.146 -0.3164  0.8700 -0.6857
  101MOL   H38742587   5.853   0.207   6.065  1.2839 -0.3541  0.0960
  101MOL   H38842588   5.855   0.372   6.026 -2.1686 -0.9363  0.5638
  101MOL   H38942589   6.004   0.159   5.865  0.1503  1.4978 -1.2465
  101MOL   H39042590   6.217   0.267   5.992  1.7412 -0.1319  2.4949
  101MOL   H39142591   6.081   0.277   6.113 -1.3601  0.1666 -1.4962
  101MOL   H39242592   6.223   0.168   6.263  1.2748 -1.4789  1.1181
  101MOL   H39342593   6.256   0.002   6.237  1.8124 -1.1784 -1.2275
  101MOL   H39442594   6.343   0.124   6.140  0.7429 -0.5671  2.9330
  101MOL   H39542595   6.237   7.663   5.986  0.4198  0.6369  0.1026
  101MOL   H39642596   6.296   0.045   5.922  0.1635  1.4207  2.6565
  101MOL   H39742597   6.137   7.740   5.879  0.9749  0.9603 -1.0480
  101MOL   H39842598   5.953   7.765   6.063 -0.9029  0.5225 -0.1961
  101MOL   H39942599   5.982   0.064   6.224 -0.3207 -0.8139  0.7657
  101MOL   H40042600   6.043   7.663   6.177  0.0208  1.1182 -0.0710
  101MOL   C40142601   6.034   0.364   5.820  0.7361  0.3655 -0.0003
  101MOL   C40242602   6.166   0.369   5.743 -0.3972  0.5459 -0.0893
  101MOL   C40342603   6.192   0.236   5.665 -0.2713 -0.7774 -0.4131
  101MOL   C40442604   6.288   0.229   5.550 -0.2397 -0.2790  0.4038
  101MOL   C40542605   6.243   0.319   5.435  0.1423  0.4681 -0.3990
  101MOL   C40642606   6.286   0.082   5.500 -0.1169 -0.2701 -0.5968
  101MOL   C40742607   6.434   0.256   5.584 -0.0404  0.0287  0.0885
  101MOL   H40842608   5.947   0.369   5.755  1.3442  3.0537 -0.6801
  101MOL   H40942609   6.035   0.452   5.885 -0.3102  1.0805 -0.9333
  101MOL   H41042610   6.150   0.454   5.677 -2.0763 -0.5885 -1.1871
  101MOL   H41142611   6.095   0.200   5.631 -0.2066 -1.4976  0.1503
  101MOL   H41242612   6.229   0.160   5.735 -2.2216 -1.1342  0.2488
  101MOL   H41342613   6.292   0.290   5.343  1.8154  2.3529 -0.1344
  101MOL   H41442614   6.266   0.425   5.446  1.0466  0.1504  0.8800
  101MOL   H41542615   6.135   0.319   5.416  0.1295  1.8744 -0.4158
  101MOL   H41642616   6.311   0.065   5.395 -0.8449 -0.6257 -0.7200
  101MOL   H41742617   6.184   0.043   5.496 -0.5244  0.8944 -1.8608
  101MOL   H41842618   6.338   0.005   5.558  1.7640  0.2825 -1.5256
  101MOL   H41942619   6.467   0.175   5.648 -0.5129 -0.3570 -0.1598
  101MOL   H42042620   6.511   0.266   5.506  1.3622  1.0800  1.5678
  101MOL   H42142621   6.447   0.342   5.649 -0.2451 -0.0457  0.2243
  101MOL   H42242622   6.263   0.380   5.792  1.5224 -3.9852 -2.4989
  102MOL     C142623   3.588   6.105   0.376 -0.1591  0.2916 -0.3847
  102MOL     C242624   3.679   6.139   0.487  0.0152  0.8679 -0.0558
  102MOL     C342625   3.810   6.064   0.471  0.1217  0.7606  0.4514
  102MOL     C442626   3.922   6.138   0.384  0.4565 -0.3278  0.4765
  102MOL     C542627   3.950   6.281   0.432 -0.5077  0.0144  0.0347
  102MOL     C642628   4.055   6.059   0.397  0.3785 -0.0814 -0.1734
  102MOL     C742629   3.899   6.145   0.229 -0.1577 -0.0266  0.0671
  102MOL     H842630   3.630   6.136   0.281  2.6973 -2.2984 -0.0636
  102MOL     H942631   3.560   6.001   0.359 -1.8318  0.3876  1.5345
  102MOL    H1042632   3.687   6.248   0.492  0.2265  0.9914 -2.5321
  102MOL    H1142633   3.800   5.962   0.434  0.9824  0.9986 -0.4714
  102MOL    H1242634   3.849   6.056   0.573 -4.2633  0.5566  2.2104
  102MOL    H1342635   3.940   6.294   0.540  0.1868  0.3930  0.0591
  102MOL    H1442636   3.872   6.342   0.387  0.3956  0.8155 -0.4623
  102MOL    H1542637   4.049   6.317   0.404 -1.1584  0.8736 -1.1747
  102MOL    H1642638   4.106   6.081   0.491 -0.6913 -4.6723  1.6046
  102MOL    H1742639   4.029   5.954   0.406  0.2495 -0.1421 -1.1975
  102MOL    H1842640   4.122   6.075   0.313  0.5560 -0.8656 -0.1853
  102MOL    H1942641   3.977   6.195   0.171  1.1065 -0.1642  1.6228
  102MOL    H2042642   3.805   6.196   0.207 -0.4910 -0.2175  1.0034
  102MOL    H2142643   3.895   6.044   0.187  2.8372 -0.6496  1.0996
  102MOL    H2242644   3.500   6.168   0.390  0.3307  0.7019  0.9892
  102MOL    C2342645   3.616   6.104   0.625 -0.4579  0.2252  0.2043
  102MOL    C2442646   3.498   6.191   0.672  0.0091  0.0325  0.1019
  102MOL    C2542647   3.545   6.333   0.715  0.4146  0.1404  0.0707
  102MOL    C2642648   3.460   6.456   0.665  0.1012  0.1236  0.2142
  102MOL    C2742649   3.314   6.459   0.703  0.5562 -0.1733 -0.2458
  102MOL    C2842650   3.521   6.575   0.738 -0.2291  0.3913  0.6492
  102MOL    C2942651   3.466   6.464   0.513  0.0358 -0.4359  0.2797
  102MOL    H3042652   3.582   6.000   0.628 -1.1678  0.4397 -0.1943
  102MOL    H3142653   3.687   6.099   0.708  1.0557 -0.8243 -1.1308
  102MOL    H3242654   3.428   6.200   0.590  1.4928 -0.7387 -1.2734
  102MOL    H3342655   3.643   6.356   0.672 -0.6985  0.0165 -2.6295
  102MOL    H3442656   3.566   6.330   0.822 -1.3689  1.8808  0.5145
  102MOL    H3542657   3.301   6.405   0.797  3.3890 -1.8707 -0.7859
  102MOL    H3642658   3.284   6.561   0.726 -0.4211 -0.4861 -0.1117
  102MOL    H3742659   3.240   6.410   0.640 -1.2406  1.4158  0.5692
  102MOL    H3842660   3.627   6.591   0.716 -1.1975  3.2326 -2.2736
  102MOL    H3942661   3.478   6.670   0.706 -0.1939  0.2948  0.3160
  102MOL    H4042662   3.514   6.561   0.846  2.5357 -0.1874  0.7962
  102MOL    H4142663   3.413   6.549   0.471  1.8267  0.8387  0.5463
  102MOL    H4242664   3.418   6.382   0.459 -1.8960  2.2883 -2.2838
  102MOL    H4342665   3.570   6.470   0.482  0.2161  1.8378  1.1899
  102MOL    C4442666   3.430   6.109   0.786  0.1442 -0.1769  0.1242
  102MOL    C4542667   3.331   6.000   0.740  0.0989  0.5771 -0.1664
  102MOL    C4642668   3.198   6.070   0.681  0.0258 -0.2121 -0.1499
  102MOL    C4742669   3.124   6.020   0.550 -0.1718 -0.6403  0.4797
  102MOL    C4842670   3.112   5.865   0.544 -0.4960  0.2022  0.2016
  102MOL    C4942671   3.211   6.055   0.428  0.5050 -0.6113  0.9364
  102MOL    C5042672   2.981   6.089   0.546 -0.0721  0.0379  0.3352
  102MOL    H5142673   3.508   6.089   0.860 -0.0009  1.6117  0.7754
  102MOL    H5242674   3.374   6.179   0.848  1.3187 -0.1843  1.2165
  102MOL    H5342675   3.373   5.937   0.661  0.3008 -0.8878  1.1021
  102MOL    H5442676   3.216   6.176   0.664  0.0175  0.0761  1.6262
  102MOL    H5542677   3.131   6.065   0.766  2.7602 -2.5146  1.9448
  102MOL    H5642678   3.042   5.841   0.624  0.1266 -0.8020  0.4543
  102MOL    H5742679   3.201   5.808   0.569  0.1847  0.6562 -1.1226
  102MOL    H5842680   3.069   5.823   0.452  2.6353 -1.0146 -0.7786
  102MOL    H5942681   3.163   6.030   0.333  0.0337 -0.8524  1.2321
  102MOL    H6042682   3.234   6.162   0.435 -3.5327  0.5049 -1.2565
  102MOL    H6142683   3.302   5.996   0.433  1.0317  0.2873  2.2035
  102MOL    H6242684   2.927   6.080   0.452 -1.0970 -2.2033  1.1324
  102MOL    H6342685   2.921   6.048   0.626  0.5160 -2.3657 -0.4280
  102MOL    H6442686   3.004   6.195   0.557  0.5646  0.1455 -1.6754
  102MOL    C6542687   3.289   5.912   0.862  0.7388 -0.1845 -0.2380
  102MOL    C6642688   3.403   5.848   0.938  0.2641  0.0254 -0.2732
  102MOL    C6742689   3.484   5.746   0.846 -0.1943  0.7105 -0.2925
  102MOL    C6842690   3.623   5.698   0.891 -0.2144 -0.1645  0.2285
  102MOL    C6942691   3.667   5.581   0.796 -0.0922 -0.1139 -0.1941
  102MOL    C7042692   3.724   5.815   0.874 -0.6217  0.4026  0.5834
  102MOL    C7142693   3.633   5.636   1.034 -0.9639  0.4047 -0.4149
  102MOL    H7242694   3.219   5.968   0.925  0.2520 -0.9952 -0.0457
  102MOL    H7342695   3.223   5.836   0.819  2.9501 -2.3702  0.1097
  102MOL    H7442696   3.471   5.925   0.973 -1.2655  1.4657 -0.4000
  102MOL    H7542697   3.497   5.788   0.747 -1.2603  1.9465  0.0632
  102MOL    H7642698   3.413   5.665   0.832  1.7648 -1.3167  1.1381
  102MOL    H7742699   3.606   5.491   0.805 -0.5932  0.1236 -1.1307
  102MOL    H7842700   3.655   5.615   0.693  0.7646 -0.7594 -0.5120
  102MOL    H7942701   3.769   5.542   0.802 -0.1461 -0.2079  0.1115
  102MOL    H8042702   3.710   5.870   0.781  0.1685  2.1867  1.4954
  102MOL    H8142703   3.823   5.770   0.875 -1.5327 -1.6677  2.5549
  102MOL    H8242704   3.714   5.885   0.958  2.7660  2.1343 -0.3677
  102MOL    H8342705   3.605   5.691   1.123  0.5561  0.0156  0.3133
  102MOL    H8442706   3.733   5.597   1.055 -1.3363 -1.3890 -1.7911
  102MOL    H8542707   3.577   5.543   1.024 -0.1698 -0.0644 -0.5549
  102MOL    C8642708   3.336   5.784   1.056  0.9072 -0.5271 -0.4977
  102MOL    C8742709   3.310   5.875   1.176  0.0334  0.1408 -0.5692
  102MOL    C8842710   3.437   5.935   1.239  0.7170  0.4506  0.2150
  102MOL    C8942711   3.436   6.089   1.276 -0.0108 -0.1192  0.5974
  102MOL    C9042712   3.432   6.174   1.146 -1.1773 -0.2648  0.1589
  102MOL    C9142713   3.563   6.128   1.353  0.4364 -0.6348  0.0634
  102MOL    C9242714   3.309   6.123   1.349  0.1550  0.7314  0.0511
  102MOL    H9342715   3.395   5.706   1.106  0.6490  0.1163  0.8399
  102MOL    H9442716   3.249   5.720   1.039  2.2273 -2.3542 -0.5846
  102MOL    H9542717   3.245   5.952   1.133 -1.1329 -0.0433  0.8225
  102MOL    H9642718   3.530   5.927   1.183  0.4943  0.1774 -0.1136
  102MOL    H9742719   3.452   5.874   1.328 -0.6509  0.7725  0.6837
  102MOL    H9842720   3.528   6.165   1.095 -1.3295  2.5706 -0.7365
  102MOL    H9942721   3.425   6.279   1.175  0.3581 -0.4485  1.2183
  102MOL   H10042722   3.347   6.160   1.078 -0.7960  0.0358 -0.3805
  102MOL   H10142723   3.539   6.222   1.405 -0.0726 -2.4277  3.2138
  102MOL   H10242724   3.583   6.053   1.430  0.6003 -1.9719 -1.2629
  102MOL   H10342725   3.651   6.143   1.291 -1.0711  0.8359 -1.7771
  102MOL   H10442726   3.220   6.123   1.286  0.1275  1.5520  0.0906
  102MOL   H10542727   3.304   6.060   1.438 -0.9520 -0.9026 -1.1385
  102MOL   H10642728   3.311   6.228   1.378 -1.5158  0.1267  2.4861
  102MOL   C10742729   3.222   5.805   1.285  0.0455 -0.4943  0.4086
  102MOL   C10842730   3.068   5.847   1.296 -0.1013  0.2926 -0.4251
  102MOL   C10942731   2.991   5.836   1.160 -0.3257 -0.8705  0.2633
  102MOL   C11042732   2.884   5.936   1.115 -0.3734 -0.2124  0.2869
  102MOL   C11142733   2.942   6.081   1.096 -0.7858 -0.3502 -0.5900
  102MOL   C11242734   2.769   5.933   1.211  0.2022  0.0825 -0.2876
  102MOL   C11342735   2.831   5.886   0.974 -0.4061 -0.1860  0.4527
  102MOL   H11442736   3.276   5.812   1.380  0.6209  1.5180 -0.0354
  102MOL   H11542737   3.229   5.696   1.285 -0.5603 -0.5317 -0.6906
  102MOL   H11642738   3.073   5.949   1.334  3.0694  0.9547 -2.4199
  102MOL   H11742739   3.067   5.838   1.082 -2.9904  0.8754 -2.4027
  102MOL   H11842740   2.960   5.732   1.146  1.0242 -1.2168 -0.2755
  102MOL   H11942741   3.036   6.080   1.042 -0.4749  1.0243 -0.0865
  102MOL   H12042742   2.865   6.136   1.041  1.1405  2.8424 -0.2083
  102MOL   H12142743   2.962   6.131   1.191 -3.2697 -0.8946  0.2581
  102MOL   H12242744   2.687   5.995   1.174 -1.2466  0.9294  3.9316
  102MOL   H12342745   2.802   5.980   1.304  0.2565 -1.6903  0.6149
  102MOL   H12442746   2.737   5.830   1.226 -0.8102  0.7976  3.0202
  102MOL   H12542747   2.915   5.881   0.905 -0.1903 -2.5523  0.8384
  102MOL   H12642748   2.748   5.946   0.937  0.1661 -0.0022 -0.5621
  102MOL   H12742749   2.789   5.787   0.994  1.1376 -0.8536  0.5319
  102MOL   C12842750   2.989   5.764   1.405  0.4438 -0.1446 -0.8210
  102MOL   C12942751   3.052   5.766   1.553 -0.7199  0.3753  0.5679
  102MOL   C13042752   2.946   5.795   1.663  0.3297  0.2301  1.1151
  102MOL   C13142753   2.914   5.931   1.712 -0.4217  0.3023 -0.1211
  102MOL   C13242754   2.798   5.917   1.809  0.3919 -0.3114 -0.7463
  102MOL   C13342755   2.864   6.016   1.593 -0.0563  0.0192  0.1662
  102MOL   C13442756   3.033   6.000   1.776 -0.3256  0.1576 -0.1837
  102MOL   H13542757   2.979   5.659   1.376 -1.6335 -0.1556 -0.1824
  102MOL   H13642758   2.887   5.801   1.405  1.8414  3.9576  0.7284
  102MOL   H13742759   3.120   5.851   1.559 -0.0022 -0.3334  3.3910
  102MOL   H13842760   2.852   5.749   1.632  0.2519  1.1182 -0.0143
  102MOL   H13942761   2.982   5.735   1.747  1.8501  1.4091  1.3273
  102MOL   H14042762   2.710   5.878   1.759  0.7353 -0.7838 -0.9913
  102MOL   H14142763   2.768   6.016   1.842  0.9446 -1.2145  2.6441
  102MOL   H14242764   2.826   5.858   1.896  1.0443 -1.3706 -1.6500
  102MOL   H14342765   2.768   5.981   1.557 -0.2759  2.6391 -1.9675
  102MOL   H14442766   2.929   6.024   1.506 -0.0873 -0.6136  0.0783
  102MOL   H14542767   2.856   6.114   1.638  1.1000 -0.1558  0.7941
  102MOL   H14642768   3.069   5.940   1.859 -1.5392 -1.0067 -0.4801
  102MOL   H14742769   3.122   6.009   1.714  0.7359 -0.3727  1.2418
  102MOL   H14842770   3.007   6.095   1.822  1.8099  0.5979  0.1679
  102MOL   C14942771   3.132   5.631   1.575  0.0379  0.2193 -1.1490
  102MOL   C15042772   3.239   5.633   1.692  0.0529 -0.4791 -0.4567
  102MOL   C15142773   3.288   5.482   1.720 -0.5992 -0.5304 -0.0683
  102MOL   C15242774   3.189   5.385   1.798 -0.2427 -0.1739  0.4161
  102MOL   C15342775   3.146   5.452   1.929 -0.3383 -0.7775  0.4102
  102MOL   C15442776   3.270   5.256   1.831  0.1473  0.2534  0.1787
  102MOL   C15542777   3.060   5.341   1.723 -0.0998 -0.0832  0.5127
  102MOL   H15642778   3.188   5.590   1.491 -0.5337 -1.3661 -0.7902
  102MOL   H15742779   3.052   5.560   1.600  0.6455 -0.7314 -1.8687
  102MOL   H15842780   3.197   5.673   1.783  1.0300  0.6420 -0.4871
  102MOL   H15942781   3.376   5.482   1.784 -0.1570 -0.6225 -0.6804
  102MOL   H16042782   3.321   5.438   1.627  0.4713 -0.1531  0.1207
  102MOL   H16142783   3.090   5.394   2.003 -1.2475  0.0079  0.3547
  102MOL   H16242784   3.230   5.502   1.977 -1.5700  1.2002  0.6102
  102MOL   H16342785   3.066   5.526   1.916  0.6658  0.1463 -0.5997
  102MOL   H16442786   3.313   5.204   1.745 -0.8702  1.9953 -1.4090
  102MOL   H16542787   3.219   5.172   1.878 -0.8582 -0.8104 -2.7243
  102MOL   H16642788   3.347   5.283   1.904  0.8501  0.2741 -0.5670
  102MOL   H16742789   3.087   5.318   1.620  1.7182 -0.2232  0.9988
  102MOL   H16842790   3.011   5.252   1.762  0.2835 -0.4906  0.0796
  102MOL   H16942791   2.981   5.417   1.716 -1.0819 -0.9409  2.2026
  102MOL   C17042792   3.361   5.723   1.640 -0.8210  0.0901  0.2575
  102MOL   C17142793   3.469   5.765   1.745  0.4196  0.0694  0.1736
  102MOL   C17242794   3.424   5.898   1.814 -0.3178  0.1584 -0.4912
  102MOL   C17342795   3.467   5.920   1.962 -0.2856  0.1232  0.3531
  102MOL   C17442796   3.618   5.906   1.982 -0.9529  0.4637 -1.0009
  102MOL   C17542797   3.383   5.828   2.046 -0.0525  0.1535 -0.0165
  102MOL   C17642798   3.430   6.054   2.013  0.2242 -0.1006 -1.4737
  102MOL   H17742799   3.327   5.821   1.607  1.4586  0.4767 -1.0316
  102MOL   H17842800   3.406   5.679   1.551  0.4749 -0.1479  1.0247
  102MOL   H17942801   3.473   5.685   1.819 -1.8619  0.3751  0.6459
  102MOL   H18042802   3.469   5.981   1.758 -0.2303 -0.6576 -1.6499
  102MOL   H18142803   3.317   5.913   1.810 -0.4911 -1.1977 -1.2284
  102MOL   H18242804   3.694   5.952   1.919  2.4577 -0.7143  2.0497
  102MOL   H18342805   3.637   5.938   2.085 -2.1310  0.3133 -0.7311
  102MOL   H18442806   3.654   5.805   1.967 -0.6325  0.1613  1.5384
  102MOL   H18542807   3.275   5.834   2.034  0.0605 -1.6115 -2.1523
  102MOL   H18642808   3.403   5.723   2.023  3.1670  0.4608  1.0757
  102MOL   H18742809   3.412   5.836   2.151 -1.0964 -0.2987  0.3043
  102MOL   H18842810   3.323   6.069   2.027  0.6438  3.0525 -1.1200
  102MOL   H18942811   3.469   6.073   2.114 -2.0173 -0.6847 -0.4787
  102MOL   H19042812   3.471   6.138   1.956 -0.5619  1.0167 -0.4355
  102MOL   C19142813   3.609   5.774   1.677  0.8839  0.0136 -0.5031
  102MOL   C19242814   3.707   5.656   1.674 -0.6298  0.7888 -0.4705
  102MOL   C19342815   3.845   5.690   1.611 -0.4936 -0.1985  0.1377
  102MOL   C19442816   3.960   5.733   1.714  0.8064  0.2048 -0.5001
  102MOL   C19542817   3.908   5.839   1.814  0.4613 -0.1034 -0.5737
  102MOL   C19642818   4.079   5.791   1.627 -0.5263 -0.4341 -0.1952
  102MOL   C19742819   4.029   5.617   1.788  0.6543 -0.6788  0.0478
  102MOL   H19842820   3.593   5.815   1.577  0.8922 -0.6189 -0.7626
  102MOL   H19942821   3.661   5.857   1.726 -1.7891  0.9815  0.8437
  102MOL   H20042822   3.716   5.620   1.776 -0.3509 -0.6678 -0.9971
  102MOL   H20142823   3.843   5.761   1.529 -0.3958  2.5781  2.4726
  102MOL   H20242824   3.891   5.613   1.549  0.2005  0.1751  0.1884
  102MOL   H20342825   3.994   5.874   1.872 -1.2247 -2.1541  3.4006
  102MOL   H20442826   3.882   5.935   1.769  1.0214  0.4675  0.2820
  102MOL   H20542827   3.847   5.789   1.890  0.2701  0.9299 -0.0371
  102MOL   H20642828   4.041   5.875   1.569  0.7381  0.5896  0.4494
  102MOL   H20742829   4.152   5.843   1.689 -0.2542 -1.9173  0.7704
  102MOL   H20842830   4.125   5.713   1.567  0.7914 -0.2907  0.6114
  102MOL   H20942831   3.961   5.564   1.854 -0.5884  0.1684 -0.5230
  102MOL   H21042832   4.055   5.544   1.710  0.9096 -0.8718  0.3123
  102MOL   H21142833   4.128   5.646   1.824  2.8524 -0.4844 -5.6296
  102MOL   C21242834   3.653   5.534   1.596 -0.3540 -0.2375  0.4836
  102MOL   C21342835   3.720   5.398   1.622  0.4483 -0.2542  0.0997
  102MOL   C21442836   3.690   5.294   1.506 -0.0498  0.0483 -0.2841
  102MOL   C21542837   3.788   5.295   1.382 -0.2099  0.2503 -0.1488
  102MOL   C21642838   3.772   5.428   1.298 -0.0430  0.5612 -0.1719
  102MOL   C21742839   3.942   5.288   1.416  0.5481  0.1118  0.4722
  102MOL   C21842840   3.745   5.174   1.308 -0.2028 -0.4034 -0.2150
  102MOL   H21942841   3.544   5.529   1.601 -0.3784 -0.6632 -0.2925
  102MOL   H22042842   3.676   5.556   1.492 -0.5170  0.3265  0.5644
  102MOL   H22142843   3.829   5.404   1.628  0.5405 -0.6450 -0.9603
  102MOL   H22242844   3.585   5.306   1.479 -0.2507 -0.9856  0.0205
  102MOL   H22342845   3.698   5.196   1.552 -3.5756  0.4587  1.3771
  102MOL   H22442846   3.666   5.453   1.304 -0.1779 -0.3869  2.2805
  102MOL   H22542847   3.790   5.417   1.192 -0.2605 -2.3634  0.0492
  102MOL   H22642848   3.830   5.516   1.325  0.6632 -0.0387  0.3017
  102MOL   H22742849   3.968   5.201   1.477  0.3187  0.4323  1.0324
  102MOL   H22842850   3.992   5.279   1.320  1.0675 -0.3601  0.7819
  102MOL   H22942851   3.982   5.370   1.475 -1.1289  1.7215 -0.5924
  102MOL   H23042852   3.785   5.084   1.355 -0.7273 -0.1354  0.7567
  102MOL   H23142853   3.794   5.173   1.210  0.9821 -0.8479  0.3790
  102MOL   H23242854   3.637   5.159   1.306 -0.3729  0.6266  0.7981
  102MOL   C23342855   3.677   5.341   1.760  0.6117 -0.1759 -0.2954
  102MOL   C23442856   3.788   5.293   1.859  0.1450 -0.5261 -0.2777
  102MOL   C23542857   3.743   5.263   2.003 -0.0450  1.4850 -0.5630
  102MOL   C23642858   3.689   5.365   2.112  0.1039  0.3683 -1.4310
  102MOL   C23742859   3.789   5.479   2.128  0.2185  0.4148  0.3042
  102MOL   C23842860   3.547   5.427   2.094  0.0680  0.8210 -0.1832
  102MOL   C23942861   3.689   5.291   2.250  0.5914 -0.2942  0.8182
  102MOL   H24042862   3.606   5.259   1.749 -1.1421  1.3957 -1.0086
  102MOL   H24142863   3.625   5.424   1.810  2.5539 -0.6585  2.6731
  102MOL   H24242864   3.847   5.385   1.864  2.0931 -1.7770 -0.2227
  102MOL   H24342865   3.666   5.185   1.999  0.9512  0.4830 -0.2700
  102MOL   H24442866   3.827   5.213   2.051 -0.8951  1.1015  0.5488
  102MOL   H24542867   3.758   5.565   2.187  0.3237 -0.3083  1.4265
  102MOL   H24642868   3.810   5.522   2.029 -2.4642  4.4713  1.3937
  102MOL   H24742869   3.885   5.449   2.170  1.9558  1.4572 -2.6605
  102MOL   H24842870   3.463   5.357   2.086 -0.1015  0.8907  0.9250
  102MOL   H24942871   3.523   5.500   2.171  2.0428  1.1543  0.1241
  102MOL   H25042872   3.548   5.480   1.999  0.0740  2.9742  0.9934
  102MOL   H25142873   3.637   5.196   2.242  0.6288 -0.3804  1.5892
  102MOL   H25242874   3.788   5.255   2.276 -0.3561 -2.3404  1.7176
  102MOL   H25342875   3.635   5.336   2.333 -1.9185 -0.2182 -0.7913
  102MOL   C25442876   3.858   5.174   1.795 -0.0364 -0.4763  0.0297
  102MOL   C25542877   3.985   5.118   1.865  0.1909 -0.1078 -0.3279
  102MOL   C25642878   4.099   5.219   1.854 -0.1263  0.4038 -0.1459
  102MOL   C25742879   4.207   5.228   1.955  0.3572  0.3668 -0.3277
  102MOL   C25842880   4.323   5.328   1.912 -0.0474  0.3746  0.2392
  102MOL   C25942881   4.273   5.084   1.974  0.1494 -0.2946  0.0437
  102MOL   C26042882   4.148   5.268   2.091 -0.1545 -0.1613  0.6768
  102MOL   H26142883   3.883   5.199   1.691 -0.7560  0.2441  0.0206
  102MOL   H26242884   3.788   5.091   1.787 -0.7435 -0.0198  1.2900
  102MOL   H26342885   3.967   5.105   1.971  3.0742 -1.5452  0.0272
  102MOL   H26442886   4.152   5.194   1.763 -2.4618  0.8652 -1.6827
  102MOL   H26542887   4.070   5.321   1.828 -0.6432  0.0118 -1.1468
  102MOL   H26642888   4.354   5.308   1.809 -0.9656  1.4736 -0.2563
  102MOL   H26742889   4.405   5.325   1.984  1.6700  0.8079 -1.6330
  102MOL   H26842890   4.278   5.427   1.915 -0.1745  0.3079  0.4807
  102MOL   H26942891   4.208   5.014   2.027 -2.6959  1.8196 -0.5049
  102MOL   H27042892   4.350   5.096   2.049  1.5223 -0.4054 -1.3261
  102MOL   H27142893   4.322   5.034   1.890  1.4796 -0.1951  0.7524
  102MOL   H27242894   4.091   5.360   2.084  0.0441 -0.0628  0.3670
  102MOL   H27342895   4.090   5.184   2.130 -2.7521  1.2773  0.0821
  102MOL   H27442896   4.225   5.281   2.166  0.4085  0.6168 -0.0276
  102MOL   C27542897   4.020   4.983   1.799  0.0258  0.2488 -0.2271
  102MOL   C27642898   3.939   4.856   1.835  0.3873  0.5590 -0.6475
  102MOL   C27742899   3.959   4.753   1.726 -0.7876  0.1839  0.1283
  102MOL   C27842900   3.864   4.758   1.600 -0.4642  0.3893  0.0233
  102MOL   C27942901   3.862   4.889   1.516  0.9271 -0.4999  0.3705
  102MOL   C28042902   3.908   4.646   1.508  0.1263 -0.2378 -0.1152
  102MOL   C28142903   3.719   4.725   1.649 -0.3503 -0.4413  0.6836
  102MOL   H28242904   4.011   4.997   1.691  1.1446  2.8819 -0.0352
  102MOL   H28342905   4.126   4.963   1.807 -0.3248 -1.1422  1.0247
  102MOL   H28442906   3.834   4.886   1.841 -0.1805 -1.2520 -1.0278
  102MOL   H28542907   3.933   4.652   1.757  0.0408  0.1406  0.6817
  102MOL   H28642908   4.062   4.747   1.693 -0.2906 -0.9755  1.8484
  102MOL   H28742909   3.821   4.972   1.573  1.6151 -0.3249  0.6198
  102MOL   H28842910   3.968   4.913   1.506  0.5538  0.1881 -2.5524
  102MOL   H28942911   3.824   4.885   1.414  0.7284 -1.9359  0.4876
  102MOL   H29042912   3.836   4.626   1.429 -0.9242  1.6143  0.3295
  102MOL   H29142913   3.908   4.549   1.557 -1.3942  0.6160  1.5983
  102MOL   H29242914   4.008   4.657   1.463 -0.0019 -0.7682 -0.5299
  102MOL   H29342915   3.719   4.636   1.711  0.9308 -1.1678 -0.3286
  102MOL   H29442916   3.667   4.696   1.557 -1.4632  0.4389  1.0295
  102MOL   H29542917   3.661   4.797   1.707 -0.2403  0.9828 -0.9339
  102MOL   C29642918   3.960   4.812   1.979 -0.2812  0.8481 -0.2024
  102MOL   C29742919   3.843   4.728   2.037 -0.0049  0.0662  0.4441
  102MOL   C29842920   3.751   4.820   2.118  0.2312 -0.3657 -0.6561
  102MOL   C29942921   3.590   4.794   2.129  0.1369  0.1541 -0.2240
  102MOL   C30042922   3.527   4.910   2.197 -0.2862 -0.1671 -0.3690
  102MOL   C30142923   3.522   4.786   1.991  0.4690 -0.2051  0.0292
  102MOL   C30242924   3.565   4.667   2.214 -0.5070 -0.3772 -0.2343
  102MOL   H30342925   3.979   4.899   2.042  1.8172  0.6013 -0.4583
  102MOL   H30442926   4.052   4.755   1.987 -1.6200 -1.5767 -1.5184
  102MOL   H30542927   3.778   4.704   1.952  0.5530  0.9415 -0.2409
  102MOL   H30642928   3.758   4.913   2.062 -1.2031  0.7301  0.8951
  102MOL   H30742929   3.792   4.839   2.217 -2.3241  1.1092  0.1879
  102MOL   H30842930   3.539   5.004   2.142 -0.7536  0.4129  0.5169
  102MOL   H30942931   3.421   4.897   2.219 -0.4273 -0.3182 -1.1262
  102MOL   H31042932   3.572   4.931   2.294  1.7468  0.9237 -1.5013
  102MOL   H31142933   3.413   4.786   2.000  0.7101 -1.7032  4.4885
  102MOL   H31242934   3.556   4.872   1.934  0.7150  0.4933  1.2112
  102MOL   H31342935   3.546   4.700   1.929 -1.6279  0.3784 -1.6416
  102MOL   H31442936   3.461   4.634   2.215 -0.3725 -0.8807  2.4965
  102MOL   H31542937   3.618   4.581   2.174  0.9535  0.0818  0.6930
  102MOL   H31642938   3.595   4.687   2.317  0.3490  0.5416 -0.6635
  102MOL   C31742939   3.884   4.606   2.114 -0.2196 -0.0196  0.0044
  102MOL   C31842940   3.907   4.473   2.036 -0.2235 -0.3532 -0.1678
  102MOL   C31942941   3.780   4.448   1.945  0.1455 -0.0784 -0.1622
  102MOL   C32042942   3.706   4.308   1.949 -0.6379  0.0381 -0.1015
  102MOL   C32142943   3.658   4.264   2.089  0.2661 -0.0339 -0.0913
  102MOL   C32242944   3.798   4.210   1.883  0.5052 -0.1047  0.0521
  102MOL   C32342945   3.580   4.312   1.860 -0.3635  0.2146  0.4488
  102MOL   H32442946   3.976   4.636   2.165 -0.7041 -0.4903  1.1706
  102MOL   H32542947   3.815   4.579   2.194 -2.6368  4.1672 -0.5416
  102MOL   H32642948   3.897   4.396   2.112 -0.2100 -0.2496 -0.0614
  102MOL   H32742949   3.812   4.475   1.845  0.8864  0.3765  0.1914
  102MOL   H32842950   3.698   4.517   1.968 -1.4290 -1.7187 -0.8115
  102MOL   H32942951   3.735   4.250   2.165 -0.7063  0.7725  1.0615
  102MOL   H33042952   3.590   4.179   2.084  0.5787 -0.5884  3.6831
  102MOL   H33142953   3.602   4.348   2.131  0.7806 -0.3285  1.2227
  102MOL   H33242954   3.744   4.126   1.841 -0.2505  0.6286 -0.4548
  102MOL   H33342955   3.844   4.258   1.796  0.2505 -1.4836 -0.8535
  102MOL   H33442956   3.874   4.169   1.949  0.2683  2.4168  1.9912
  102MOL   H33542957   3.521   4.221   1.861 -0.5475  0.3112 -0.6011
  102MOL   H33642958   3.611   4.335   1.758  3.6985 -0.7109  1.4150
  102MOL   H33742959   3.516   4.394   1.896  0.1230  1.1177 -0.7025
  102MOL   C33842960   4.047   4.458   1.948 -0.3275 -0.2035 -0.4005
  102MOL   C33942961   4.167   4.398   2.030  0.2200  0.0564 -0.0803
  102MOL   C34042962   4.292   4.413   1.946  0.5122 -0.0013 -0.1941
  102MOL   C34142963   4.395   4.523   1.989 -0.9355 -0.1762  0.0558
  102MOL   C34242964   4.511   4.502   1.895  0.0386  0.7813  0.1866
  102MOL   C34342965   4.342   4.667   1.991 -0.7509 -0.7966 -0.4725
  102MOL   C34442966   4.441   4.500   2.134 -0.2074  0.0703 -0.1363
  102MOL   H34542967   4.084   4.545   1.895  1.9219  0.1247  1.6455
  102MOL   H34642968   4.036   4.387   1.865  0.1702  1.4311 -1.8817
  102MOL   H34742969   4.164   4.467   2.114 -2.2803 -0.4649  0.2874
  102MOL   H34842970   4.264   4.429   1.843  1.4169  1.5889 -0.2147
  102MOL   H34942971   4.337   4.314   1.950 -1.4592 -0.8679  1.5814
  102MOL   H35042972   4.496   4.558   1.802 -0.0920  0.6116  0.1039
  102MOL   H35142973   4.608   4.535   1.931 -0.0401  0.8743  0.3127
  102MOL   H35242974   4.529   4.398   1.869  0.5014  0.8784  0.1195
  102MOL   H35342975   4.311   4.698   1.892 -0.9419  1.4362  0.2407
  102MOL   H35442976   4.263   4.679   2.065  0.0682  1.9201  0.0272
  102MOL   H35542977   4.411   4.742   2.032 -2.4023  0.9174 -0.7317
  102MOL   H35642978   4.363   4.516   2.208 -0.6254 -1.9139 -0.1228
  102MOL   H35742979   4.482   4.399   2.132  0.7260  0.4211  0.8446
  102MOL   H35842980   4.523   4.569   2.156 -2.1356  3.0234 -1.9377
  102MOL   C35942981   4.152   4.246   2.091  0.5423 -0.4110  0.1347
  102MOL   C36042982   4.200   4.206   2.231  0.0584 -1.4106  0.4624
  102MOL   C36142983   4.180   4.057   2.254  0.0620  0.3797 -0.2475
  102MOL   C36242984   4.281   3.951   2.219  0.2265 -0.2371 -0.0946
  102MOL   C36342985   4.193   3.815   2.225  0.1615  0.1963  0.1178
  102MOL   C36442986   4.394   3.950   2.322  0.0826  0.4946  0.2797
  102MOL   C36542987   4.350   3.969   2.080  0.2652 -0.0628  0.8369
  102MOL   H36642988   4.172   4.169   2.016 -1.4355 -0.8192  0.0172
  102MOL   H36742989   4.046   4.225   2.094  0.9580 -2.6731 -0.1769
  102MOL   H36842990   4.307   4.227   2.228  0.0895 -1.7287 -0.5554
  102MOL   H36942991   4.163   4.038   2.360 -2.5570  0.6887 -0.5808
  102MOL   H37042992   4.079   4.039   2.220 -0.3148  1.1193  0.4535
  102MOL   H37142993   4.151   3.802   2.325  0.2516  0.3347  0.1737
  102MOL   H37242994   4.110   3.821   2.154 -2.6360  1.3809  3.3369
  102MOL   H37342995   4.256   3.731   2.194 -2.2599 -1.4995 -0.3258
  102MOL   H37442996   4.353   3.925   2.420 -1.1142  0.2469 -0.2866
  102MOL   H37542997   4.457   4.040   2.326  0.4030  0.4153 -2.2903
  102MOL   H37642998   4.470   3.874   2.306  0.6668  1.4982 -1.8955
  102MOL   H37742999   4.268   3.968   2.009  0.2069  2.3150  0.8377
  102MOL   H37843000   4.404   3.878   2.055 -0.3416 -0.9958  2.7808
  102MOL   H37943001   4.419   4.052   2.066  0.8414 -0.6964 -0.1002
  102MOL   C38043002   4.135   4.289   2.348 -0.5842 -0.5552  0.6075
  102MOL   C38143003   4.225   4.350   2.459 -0.6190 -0.6172  0.2083
  102MOL   C38243004   4.303   4.242   2.537  0.6281 -0.1257 -0.5496
  102MOL   C38343005   4.438   4.280   2.601 -0.3186 -0.3136 -0.5108
  102MOL   C38443006   4.421   4.400   2.704  0.3962  0.3732 -0.4144
  102MOL   C38543007   4.536   4.333   2.495 -0.2655  0.0971 -0.2050
  102MOL   C38643008   4.494   4.170   2.690 -0.0878  0.0556  0.4368
  102MOL   H38743009   4.067   4.235   2.413 -2.0863  1.7393  1.0117
  102MOL   H38843010   4.065   4.358   2.302 -0.9854 -1.0423  0.4957
  102MOL   H38943011   4.292   4.410   2.397 -2.4978  0.2485 -1.0229
  102MOL   H39043012   4.253   4.212   2.629  3.2399 -1.5653  0.4700
  102MOL   H39143013   4.309   4.147   2.483 -1.3596 -0.3426 -0.4208
  102MOL   H39243014   4.507   4.411   2.769  0.1457 -2.0443  0.3862
  102MOL   H39343015   4.412   4.495   2.651 -0.9878 -0.5167 -1.8356
  102MOL   H39443016   4.339   4.386   2.774  0.5182 -2.3604 -0.7666
  102MOL   H39543017   4.506   4.430   2.455 -2.1947 -0.9118 -1.2850
  102MOL   H39643018   4.528   4.276   2.403  2.6834 -1.8575  0.6690
  102MOL   H39743019   4.637   4.336   2.534 -0.9474  2.1946  1.5270
  102MOL   H39843020   4.584   4.208   2.739 -1.2920  3.4585  0.1513
  102MOL   H39943021   4.529   4.094   2.620 -1.4845  0.3190 -0.5771
  102MOL   H40043022   4.421   4.122   2.755  0.4901 -2.0881 -0.4728
  102MOL   C40143023   4.150   4.463   2.544 -0.1177 -0.2971 -0.8421
  102MOL   C40243024   4.151   4.603   2.488  0.1796  0.3412 -0.5166
  102MOL   C40343025   4.106   4.713   2.593 -0.1874 -0.1774  0.4362
  102MOL   C40443026   4.069   4.854   2.548 -0.2026  0.6321 -0.0619
  102MOL   C40543027   4.036   4.947   2.665  0.4605  0.2444 -0.3062
  102MOL   C40643028   3.946   4.845   2.459  0.3656 -0.6483  0.2199
  102MOL   C40743029   4.184   4.917   2.476  0.2565  0.3436 -0.6188
  102MOL   H40843030   4.047   4.426   2.544  0.2878 -1.5068 -2.0389
  102MOL   H40943031   4.184   4.461   2.647 -0.2611  0.9016 -0.7735
  102MOL   H41043032   4.249   4.631   2.448 -1.3383  1.3599 -3.6489
  102MOL   H41143033   4.171   4.715   2.681 -0.2041 -2.0926  0.5003
  102MOL   H41243034   4.018   4.674   2.645 -1.6116  1.2507 -0.8651
  102MOL   H41343035   3.995   5.040   2.627 -1.3868 -0.6081 -0.4524
  102MOL   H41443036   4.125   4.967   2.725 -1.0233  2.6333  1.1550
  102MOL   H41543037   3.978   4.895   2.740  0.8452 -0.5508 -0.5503
  102MOL   H41643038   3.979   4.808   2.362 -0.9065 -0.3676 -0.3398
  102MOL   H41743039   3.905   4.944   2.437  1.3395 -0.7633 -2.2677
  102MOL   H41843040   3.864   4.780   2.489 -0.9390 -0.0129 -1.8151
  102MOL   H41943041   4.149   5.017   2.448  1.6731  1.4263  1.4375
  102MOL   H42043042   4.268   4.929   2.543  0.9067  2.1946 -1.7081
  102MOL   H42143043   4.210   4.862   2.385 -2.2215 -2.8599  0.5137
  102MOL   H42243044   4.083   4.602   2.404  1.0099 -0.7251 -1.1904
  103MOL     C143045   5.242   6.203   4.957  0.2662  1.0263  0.6566
  103MOL     C243046   5.200   6.064   4.990 -0.4671 -0.6234  0.2022
  103MOL     C343047   5.091   6.068   5.100  0.6490 -0.6370 -0.0474
  103MOL     C443048   4.967   5.984   5.061 -0.3092  0.1274  0.9138
  103MOL     C543049   4.889   6.045   4.934  0.8856 -0.3384  0.2077
  103MOL     C643050   4.984   5.834   5.031 -0.4392  0.1343  0.6055
  103MOL     C743051   4.864   5.987   5.174  0.0089  0.2117 -0.1651
  103MOL     H843052   5.297   6.252   5.038  1.8054 -0.1943  0.3511
  103MOL     H943053   5.318   6.192   4.880  0.2214 -0.5867  0.8284
  103MOL    H1043054   5.151   6.015   4.905  0.8082 -1.3927 -0.1023
  103MOL    H1143055   5.055   6.170   5.111  0.8697 -0.5423 -0.1916
  103MOL    H1243056   5.123   6.022   5.193  0.6254 -0.7327 -0.0874
  103MOL    H1343057   4.854   6.143   4.965 -1.9665 -1.1814 -0.1838
  103MOL    H1443058   4.801   5.988   4.903 -0.3693  0.9122  1.4548
  103MOL    H1543059   4.957   6.058   4.849  2.0409 -1.2374  0.9836
  103MOL    H1643060   4.887   5.787   5.012  0.9619 -2.7662  0.3870
  103MOL    H1743061   5.035   5.825   4.935 -1.2264 -2.2100  0.3573
  103MOL    H1843062   5.044   5.782   5.106  0.2029 -0.1243 -0.0888
  103MOL    H1943063   4.782   5.919   5.148  2.5556 -2.1728 -2.2452
  103MOL    H2043064   4.828   6.089   5.186 -0.3495  0.1655 -0.7956
  103MOL    H2143065   4.914   5.957   5.266  0.4720  1.1224 -0.1224
  103MOL    H2243066   5.161   6.270   4.928 -0.0309  1.9137  3.3196
  103MOL    C2343067   5.317   5.967   5.033  0.0323  0.5227 -0.2109
  103MOL    C2443068   5.431   5.950   4.936  0.0341  0.8689 -0.1602
  103MOL    C2543069   5.391   5.880   4.805  1.0801  0.0635 -0.0141
  103MOL    C2643070   5.457   5.923   4.670  0.2779  0.0537  0.1742
  103MOL    C2743071   5.596   5.860   4.657  0.2614  0.0305 -0.0586
  103MOL    C2843072   5.374   5.858   4.550  0.3440 -0.1477  0.0562
  103MOL    C2943073   5.474   6.072   4.648 -0.5390  0.1527 -0.1669
  103MOL    H3043074   5.351   6.021   5.121 -0.4485 -0.4752  0.6078
  103MOL    H3143075   5.288   5.869   5.071 -0.8512  0.6431 -0.5581
  103MOL    H3243076   5.480   6.041   4.903  1.0975  1.3494  2.6172
  103MOL    H3343077   5.284   5.894   4.796  1.3716  0.7092 -2.7695
  103MOL    H3443078   5.405   5.772   4.811  1.4749 -0.0104 -1.8781
  103MOL    H3543079   5.639   5.893   4.563 -0.1770  0.3946 -0.1312
  103MOL    H3643080   5.676   5.882   4.728  0.9819  2.2600 -1.5300
  103MOL    H3743081   5.583   5.752   4.664  0.1083 -0.0911 -2.0258
  103MOL    H3843082   5.400   5.899   4.453  0.3820  0.7271  0.4342
  103MOL    H3943083   5.389   5.752   4.531  1.0869  0.0159 -0.2652
  103MOL    H4043084   5.268   5.882   4.560  0.3818  0.3943 -0.7960
  103MOL    H4143085   5.525   6.077   4.552 -2.2098 -0.7096 -1.1313
  103MOL    H4243086   5.538   6.111   4.727 -2.1451  0.5650  0.9557
  103MOL    H4343087   5.380   6.128   4.656 -0.8489 -0.4005  0.0474
  103MOL    C4443088   5.546   5.876   5.008  0.4016  0.2546  0.1208
  103MOL    C4543089   5.631   5.960   5.097  0.6021  0.0351 -0.3264
  103MOL    C4643090   5.737   6.033   5.013  0.4643 -0.4004  0.0719
  103MOL    C4743091   5.756   6.182   5.045 -0.4779  0.0216  0.8718
  103MOL    C4843092   5.626   6.259   5.016  0.1055 -0.1367  0.2732
  103MOL    C4943093   5.877   6.239   4.953  0.3851 -0.6178 -0.0976
  103MOL    C5043094   5.800   6.211   5.198 -0.2669 -0.1666 -0.4188
  103MOL    H5143095   5.499   5.798   5.068  1.5302  0.8193  1.7707
  103MOL    H5243096   5.607   5.815   4.941  0.8675 -0.2999  1.0362
  103MOL    H5343097   5.567   6.032   5.147 -0.5437 -1.2738  0.1374
  103MOL    H5443098   5.713   6.015   4.908 -0.4499  0.7147  0.0902
  103MOL    H5543099   5.835   5.984   5.014  1.7669  2.0317 -1.9097
  103MOL    H5643100   5.545   6.243   5.088  0.4574 -0.9585  0.4870
  103MOL    H5743101   5.599   6.242   4.912 -0.0223 -1.3227  0.5014
  103MOL    H5843102   5.640   6.367   5.021  0.6586 -0.1353 -1.3525
  103MOL    H5943103   5.885   6.343   4.986 -2.2395 -0.7161  1.0010
  103MOL    H6043104   5.968   6.184   4.976  1.2190  0.3719 -1.0225
  103MOL    H6143105   5.859   6.224   4.847  0.5834  0.2633 -0.2574
  103MOL    H6243106   5.812   6.318   5.217 -0.6353 -0.3216  0.7383
  103MOL    H6343107   5.723   6.179   5.268  1.2730 -1.3002  0.7919
  103MOL    H6443108   5.897   6.166   5.220  0.3935  0.7943 -1.3211
  103MOL    C6543109   5.704   5.877   5.206 -0.3302 -0.1372  0.1969
  103MOL    C6643110   5.616   5.804   5.314 -0.5496  0.1306 -0.3366
  103MOL    C6743111   5.589   5.902   5.435  0.0015 -0.4007 -0.5328
  103MOL    C6843112   5.447   5.902   5.507 -0.0583 -0.0643  0.0094
  103MOL    C6943113   5.400   5.767   5.564 -0.0943  0.9768  0.2046
  103MOL    C7043114   5.434   6.016   5.613  0.0907  0.1069 -0.3090
  103MOL    C7143115   5.343   5.944   5.398 -0.2810  0.4289 -0.5519
  103MOL    H7243116   5.762   5.800   5.155  0.6216  1.5371 -1.2828
  103MOL    H7343117   5.786   5.937   5.246 -1.7413  2.4417 -0.7168
  103MOL    H7443118   5.522   5.772   5.270 -0.3607 -0.9883  0.0780
  103MOL    H7543119   5.622   6.004   5.411 -1.5077 -0.2397 -1.9940
  103MOL    H7643120   5.661   5.866   5.508  1.1729 -1.3239 -2.1179
  103MOL    H7743121   5.485   5.725   5.618 -1.3610 -2.5491 -0.3987
  103MOL    H7843122   5.318   5.777   5.635 -0.6448 -1.8066  0.0145
  103MOL    H7943123   5.367   5.687   5.498  0.4158 -0.9519  2.2398
  103MOL    H8043124   5.406   6.115   5.577 -1.1799 -0.2394 -0.2938
  103MOL    H8143125   5.517   6.021   5.684 -1.5447  2.2680  1.5000
  103MOL    H8243126   5.351   5.990   5.679  1.0303  2.5653  1.9209
  103MOL    H8343127   5.338   6.051   5.382 -1.6795  0.5043  0.3136
  103MOL    H8443128   5.242   5.928   5.435  0.0402 -1.0882 -0.2891
  103MOL    H8543129   5.352   5.888   5.304  0.2728 -0.3134 -0.0613
  103MOL    C8643130   5.678   5.675   5.362 -0.0642  0.6754 -0.2092
  103MOL    C8743131   5.706   5.552   5.280  0.2451  0.7839  0.2537
  103MOL    C8843132   5.577   5.457   5.296  0.4708  0.4855  0.9860
  103MOL    C8943133   5.532   5.367   5.180  0.2063  0.4941 -0.0591
  103MOL    C9043134   5.505   5.457   5.055 -0.4140  0.3500 -0.2142
  103MOL    C9143135   5.396   5.298   5.206 -0.1401 -0.4176  0.2081
  103MOL    C9243136   5.635   5.250   5.150  0.4362  0.4814  0.2016
  103MOL    H9343137   5.620   5.637   5.446 -1.6451  0.7615 -1.2431
  103MOL    H9443138   5.766   5.711   5.416  0.0099 -0.3310  0.3501
  103MOL    H9543139   5.724   5.599   5.183  0.8169 -2.1136 -1.0916
  103MOL    H9643140   5.485   5.511   5.319 -0.7387 -0.3017 -1.8093
  103MOL    H9743141   5.587   5.394   5.384 -1.2076  0.8378  1.4419
  103MOL    H9843142   5.595   5.514   5.033 -0.3804  0.6407  0.6444
  103MOL    H9943143   5.434   5.535   5.080  0.9515  2.1740 -1.8915
  103MOL   H10043144   5.475   5.392   4.972 -0.1469  0.6301 -0.5267
  103MOL   H10143145   5.309   5.363   5.210  0.5175  0.4241  1.2890
  103MOL   H10243146   5.369   5.240   5.118  0.7429 -0.0983 -0.2817
  103MOL   H10343147   5.400   5.232   5.293 -0.6358  0.0005  0.5534
  103MOL   H10443148   5.655   5.190   5.239  3.8212  1.5831  0.2696
  103MOL   H10543149   5.599   5.187   5.069  0.0067  2.9103 -1.5318
  103MOL   H10643150   5.725   5.294   5.107  0.3556  1.0535  0.6139
  103MOL   C10743151   5.826   5.472   5.328 -0.0371  0.4642 -0.1124
  103MOL   C10843152   5.957   5.491   5.248 -0.2079  0.1286 -0.2973
  103MOL   C10943153   6.029   5.626   5.279  0.0093  0.1693 -0.4857
  103MOL   C11043154   6.121   5.693   5.165  0.5617  0.0316 -0.2192
  103MOL   C11143155   6.035   5.723   5.038  0.1874  0.5977  0.0397
  103MOL   C11243156   6.230   5.599   5.099 -0.2333  0.1801  0.3777
  103MOL   C11343157   6.192   5.821   5.215 -0.5121 -0.0275 -0.2289
  103MOL   H11443158   5.801   5.366   5.320 -1.3452  0.6051  1.9469
  103MOL   H11543159   5.831   5.482   5.436 -3.4068  2.3783 -0.0680
  103MOL   H11643160   5.930   5.495   5.143  1.1579  0.0854 -0.6586
  103MOL   H11743161   5.954   5.702   5.300  0.2781  0.3591 -0.2103
  103MOL   H11843162   6.086   5.607   5.370  2.0349  0.4976 -1.6600
  103MOL   H11943163   5.945   5.779   5.064 -1.1752 -0.6858 -1.7731
  103MOL   H12043164   6.103   5.775   4.970 -0.2793 -2.2473 -2.7203
  103MOL   H12143165   6.009   5.633   4.982 -3.1309  1.8824 -0.5767
  103MOL   H12243166   6.316   5.589   5.166 -0.4801  0.6893  0.7709
  103MOL   H12343167   6.261   5.642   5.003  0.8082  0.7326  0.9538
  103MOL   H12443168   6.188   5.502   5.073 -0.7518  0.1451  1.3539
  103MOL   H12543169   6.119   5.884   5.266  0.9599  2.1456 -0.6888
  103MOL   H12643170   6.243   5.872   5.133  0.3191  1.3031  1.0895
  103MOL   H12743171   6.264   5.792   5.291 -1.3191 -0.9068  0.1967
  103MOL   C12843172   6.049   5.366   5.278 -0.2646 -0.4246  0.1362
  103MOL   C12943173   6.021   5.238   5.194  0.5033 -0.7260  0.5621
  103MOL   C13043174   6.097   5.247   5.064  0.0444 -0.3091  0.1606
  103MOL   C13143175   6.071   5.153   4.947 -0.1996 -0.5747  0.5757
  103MOL   C13243176   6.130   5.216   4.818  0.6151 -0.3227 -0.2172
  103MOL   C13343177   5.916   5.129   4.925  0.1269  0.1181 -0.2918
  103MOL   C13443178   6.139   5.022   4.961 -0.0668 -0.3264 -0.3539
  103MOL   H13543179   6.041   5.357   5.386 -2.6003  0.8399  0.1110
  103MOL   H13643180   6.153   5.397   5.266 -1.2087  2.8877  0.0231
  103MOL   H13743181   5.916   5.249   5.167  0.6694 -1.3668 -0.3638
  103MOL   H13843182   6.071   5.344   5.023  0.4355 -1.2070 -2.2630
  103MOL   H13943183   6.205   5.243   5.081  0.2387 -0.9038 -1.1820
  103MOL   H14043184   6.077   5.303   4.781  0.2288 -1.2450 -1.8719
  103MOL   H14143185   6.124   5.146   4.734 -1.4231 -1.1227  0.5574
  103MOL   H14243186   6.234   5.247   4.824  0.7217 -0.4130 -1.5126
  103MOL   H14343187   5.866   5.084   5.010 -0.5936  0.4670 -0.5263
  103MOL   H14443188   5.895   5.056   4.847  0.7598 -3.2551  2.5455
  103MOL   H14543189   5.867   5.225   4.907 -0.8734  0.0456  1.9623
  103MOL   H14643190   6.106   4.956   4.881  0.7550 -1.6193  0.3489
  103MOL   H14743191   6.245   5.030   4.982 -0.7274  0.3364  3.0944
  103MOL   H14843192   6.110   4.962   5.048  0.6724 -1.3096 -0.7694
  103MOL   C14943193   6.043   5.113   5.284  0.3806  0.3086 -0.0354
  103MOL   C15043194   6.169   5.107   5.369  0.1423 -0.4784  0.4213
  103MOL   C15143195   6.147   5.049   5.517 -0.6759  0.2593 -0.3548
  103MOL   C15243196   6.111   5.156   5.628 -0.8002  0.3876 -0.2922
  103MOL   C15343197   5.965   5.188   5.606  0.2758  0.1958  0.0286
  103MOL   C15443198   6.192   5.286   5.622  0.1826 -0.3270  0.2531
  103MOL   C15543199   6.125   5.105   5.766  0.2758  0.3055  0.4607
  103MOL   H15643200   6.024   5.028   5.218 -0.7636  0.3059  0.2893
  103MOL   H15743201   5.962   5.109   5.357 -0.1619 -0.0572 -0.6599
  103MOL   H15843202   6.202   5.211   5.377 -0.7848 -0.1797  0.4273
  103MOL   H15943203   6.249   5.020   5.542 -0.0851  1.5342 -1.2397
  103MOL   H16043204   6.084   4.961   5.531  2.1553 -1.4600  1.9469
  103MOL   H16143205   5.921   5.231   5.696 -1.2413 -1.0431 -0.0983
  103MOL   H16243206   5.942   5.236   5.511 -0.2470  1.0578  0.5861
  103MOL   H16343207   5.909   5.095   5.619  2.7194 -1.0195  2.6010
  103MOL   H16443208   6.209   5.336   5.527  0.5669  2.6618  1.8227
  103MOL   H16543209   6.296   5.260   5.645  1.1528  3.9535  1.0843
  103MOL   H16643210   6.149   5.353   5.696 -0.0539 -0.3849  0.1653
  103MOL   H16743211   6.128   5.182   5.844  0.8239  1.5310 -0.7449
  103MOL   H16843212   6.042   5.045   5.801  2.5133 -3.8108 -0.9043
  103MOL   H16943213   6.214   5.042   5.762 -0.5388 -0.7573 -1.4826
  103MOL   C17043214   6.277   5.033   5.292  0.1124 -0.4403  0.0859
  103MOL   C17143215   6.420   5.050   5.336 -1.1513 -0.3187  0.4571
  103MOL   C17243216   6.517   5.084   5.218  0.4391  0.6926  0.2967
  103MOL   C17343217   6.539   5.233   5.169 -0.5699 -0.1741  0.1391
  103MOL   C17443218   6.501   5.237   5.019  0.4172  0.1312 -0.7105
  103MOL   C17543219   6.695   5.264   5.188  0.0102 -0.4821  0.3485
  103MOL   C17643220   6.451   5.329   5.238 -0.0246  0.3342  0.1267
  103MOL   H17743221   6.268   5.063   5.188 -2.4745  2.5402  1.1114
  103MOL   H17843222   6.249   4.928   5.286  0.9685 -0.6367 -0.5627
  103MOL   H17943223   6.416   5.128   5.412 -0.2185 -0.8781  1.0767
  103MOL   H18043224   6.615   5.041   5.233  0.4812  0.7765  0.2673
  103MOL   H18143225   6.487   5.022   5.133 -1.2173  1.2318  0.4607
  103MOL   H18243226   6.571   5.169   4.970  0.1604 -0.8967  0.3311
  103MOL   H18343227   6.403   5.197   4.994 -0.7954  1.7750  1.2538
  103MOL   H18443228   6.512   5.335   4.974 -1.6871  0.3367 -0.8134
  103MOL   H18543229   6.725   5.354   5.136  3.1439 -1.7308 -0.1404
  103MOL   H18643230   6.728   5.270   5.292  0.0909 -0.1041  0.2982
  103MOL   H18743231   6.754   5.183   5.145  1.6654  1.8054 -1.8289
  103MOL   H18843232   6.458   5.325   5.346  0.9557 -0.0762  0.0553
  103MOL   H18943233   6.472   5.433   5.211 -0.3973  0.5145  0.5381
  103MOL   H19043234   6.348   5.321   5.204  0.9822  0.1133 -3.1140
  103MOL   C19143235   6.470   4.926   5.426  0.5521  0.6711  0.4057
  103MOL   C19243236   6.591   4.952   5.524  0.1828  0.2768  0.0112
  103MOL   C19343237   6.674   4.826   5.560 -0.5194  0.3232 -0.5137
  103MOL   C19443238   6.791   4.788   5.464 -0.5563 -0.3524 -0.3336
  103MOL   C19543239   6.747   4.772   5.308  0.0475 -0.5243 -0.8577
  103MOL   C19643240   6.836   4.653   5.515  0.3968  0.2679 -0.5532
  103MOL   C19743241   6.899   4.893   5.481  0.1684 -0.4329  0.0609
  103MOL   H19843242   6.386   4.874   5.473 -1.5594  0.9667 -2.9254
  103MOL   H19943243   6.507   4.853   5.355  0.3375  0.5120  0.4563
  103MOL   H20043244   6.662   5.020   5.477  3.5001 -2.0165  1.4982
  103MOL   H20143245   6.605   4.743   5.577  2.4479 -2.4447 -1.3553
  103MOL   H20243246   6.721   4.837   5.658  0.3160  0.1116 -0.8848
  103MOL   H20343247   6.661   4.706   5.300 -0.0941 -0.8578  2.7032
  103MOL   H20443248   6.709   4.863   5.262  0.1315  0.4242  0.9259
  103MOL   H20543249   6.826   4.748   5.237  0.2798 -2.1335 -0.0701
  103MOL   H20643250   6.911   4.611   5.448  0.9415  0.8037 -0.2815
  103MOL   H20743251   6.873   4.647   5.617 -1.2114 -4.6675 -0.1406
  103MOL   H20843252   6.753   4.583   5.505  0.3313  0.2844 -0.1036
  103MOL   H20943253   6.875   4.985   5.428 -0.1888 -0.9108 -0.6284
  103MOL   H21043254   6.920   4.922   5.584 -1.9941  1.4026  0.0223
  103MOL   H21143255   6.986   4.862   5.423 -0.7215 -1.0763 -0.9528
  103MOL   C21243256   6.535   5.023   5.649 -0.4801 -0.2443 -0.3777
  103MOL   C21343257   6.631   5.122   5.716  0.2134  0.4855 -0.4228
  103MOL   C21443258   6.610   5.136   5.873  0.1954  0.3131  0.3310
  103MOL   C21543259   6.692   5.041   5.967 -0.4777  0.4080  0.9281
  103MOL   C21643260   6.689   5.098   6.108 -0.8150  0.2191  0.3574
  103MOL   C21743261   6.614   4.909   5.975  0.6121 -0.0140 -0.5162
  103MOL   C21843262   6.829   5.021   5.905 -0.2212  0.2690  0.5008
  103MOL   H21943263   6.452   5.091   5.624  0.3502  1.0616  0.3618
  103MOL   H22043264   6.507   4.946   5.720  0.5406  2.4348  3.0410
  103MOL   H22143265   6.736   5.111   5.689 -0.2073 -3.1767 -0.8451
  103MOL   H22243266   6.505   5.134   5.903 -0.3998  0.0052 -1.7467
  103MOL   H22343267   6.630   5.236   5.912  1.1050  0.5440 -0.7149
  103MOL   H22443268   6.732   5.198   6.120 -0.6816  0.3564 -1.1942
  103MOL   H22543269   6.759   5.042   6.170  0.8571 -0.0301 -1.7179
  103MOL   H22643270   6.596   5.102   6.165 -1.5097  0.2929 -0.7889
  103MOL   H22743271   6.515   4.914   6.020  1.2285  2.8753  0.5752
  103MOL   H22843272   6.613   4.846   5.885  1.0429 -1.8022  0.7068
  103MOL   H22943273   6.672   4.838   6.034 -0.8144 -0.9842 -0.2642
  103MOL   H23043274   6.830   4.962   5.813 -1.2507 -1.0702  1.3254
  103MOL   H23143275   6.907   4.980   5.969  0.8376 -0.0358 -0.9474
  103MOL   H23243276   6.861   5.123   5.882 -1.1978  0.5104  0.1901
  103MOL   C23343277   6.611   5.266   5.665  0.2252  0.2210 -0.3476
  103MOL   C23443278   6.734   5.363   5.670 -0.5457  0.0619 -0.2696
  103MOL   C23543279   6.836   5.325   5.556  0.1915  0.7090  0.7370
  103MOL   C23643280   6.988   5.326   5.581  0.0434 -0.0751  0.2037
  103MOL   C23743281   7.041   5.470   5.607 -0.3992  1.0670  0.0513
  103MOL   C23843282   7.014   5.240   5.701 -0.1408 -0.3505 -0.3166
  103MOL   C23943283   7.067   5.286   5.458 -0.1003 -0.4300 -0.1293
  103MOL   H24043284   6.522   5.307   5.713 -0.8145  0.5558 -2.5289
  103MOL   H24143285   6.601   5.260   5.557 -0.1136 -1.5167 -0.2394
  103MOL   H24243286   6.783   5.342   5.765  1.2988  1.1288 -0.9670
  103MOL   H24343287   6.825   5.219   5.535 -3.0350  0.8925  1.3193
  103MOL   H24443288   6.817   5.385   5.467 -2.5892 -0.3639  0.5687
  103MOL   H24543289   6.998   5.514   5.698 -0.7653 -0.8827  0.8457
  103MOL   H24643290   7.017   5.543   5.530 -4.0605 -1.0153 -0.8552
  103MOL   H24743291   7.149   5.458   5.615 -0.8112 -3.4529 -0.3140
  103MOL   H24843292   6.967   5.142   5.691 -3.2300  0.9790  0.4039
  103MOL   H24943293   7.120   5.226   5.721 -0.0422 -0.5972 -1.0117
  103MOL   H25043294   6.994   5.288   5.797  1.0542 -1.5777  0.5481
  103MOL   H25143295   7.030   5.192   5.416 -1.2086 -0.7437  1.4829
  103MOL   H25243296   7.054   5.364   5.383 -1.1846 -0.4134  0.0596
  103MOL   H25343297   7.174   5.276   5.474  0.0246 -0.2511 -0.8007
  103MOL   C25443298   6.694   5.511   5.670  0.5912 -0.0697 -0.0492
  103MOL   C25543299   6.618   5.568   5.791 -0.9724  0.0580  0.2015
  103MOL   C25643300   6.536   5.692   5.734 -0.2055  0.2627 -0.2775
  103MOL   C25743301   6.392   5.676   5.674 -0.2728  0.3300 -0.3953
  103MOL   C25843302   6.301   5.633   5.792  1.0824  0.5537 -0.5654
  103MOL   C25943303   6.390   5.592   5.546 -0.2742  0.3227  0.7471
  103MOL   C26043304   6.339   5.823   5.641  0.6342 -0.3105  0.1130
  103MOL   H26143305   6.635   5.519   5.579  2.2031  0.9114 -1.0319
  103MOL   H26243306   6.774   5.583   5.652 -0.1185  0.4359 -1.1600
  103MOL   H26343307   6.533   5.502   5.811 -2.1467  1.3191 -0.5053
  103MOL   H26443308   6.536   5.768   5.812 -2.5459 -0.5700  0.5809
  103MOL   H26543309   6.587   5.746   5.655 -1.0340  2.1387  0.4557
  103MOL   H26643310   6.341   5.546   5.844 -2.8958  0.2406  2.1781
  103MOL   H26743311   6.203   5.599   5.759  0.7600 -1.0437  1.9789
  103MOL   H26843312   6.278   5.706   5.869 -0.0562 -0.4149  0.0272
  103MOL   H26943313   6.461   5.621   5.469  0.4612 -1.2691  0.8063
  103MOL   H27043314   6.291   5.589   5.499  0.0585 -0.2053  0.0732
  103MOL   H27143315   6.412   5.487   5.563 -2.8303 -0.6694 -1.6002
  103MOL   H27243316   6.392   5.884   5.569  0.3353 -0.7872 -0.5134
  103MOL   H27343317   6.234   5.816   5.610  0.2434  0.2751  1.2440
  103MOL   H27443318   6.329   5.896   5.722  0.2694  0.8839 -0.9991
  103MOL   C27543319   6.721   5.606   5.908 -0.3267  0.3311 -0.0473
  103MOL   C27643320   6.682   5.558   6.054  0.4316  0.5136  0.2043
  103MOL   C27743321   6.794   5.604   6.161  0.2260  0.4427 -0.6320
  103MOL   C27843322   6.892   5.496   6.208  0.2505  0.5267  0.1139
  103MOL   C27943323   6.963   5.427   6.086 -0.1935 -0.2322 -0.1014
  103MOL   C28043324   7.007   5.553   6.294 -0.0791 -0.2049 -0.2602
  103MOL   C28143325   6.819   5.396   6.290  0.2252  0.1440  0.2654
  103MOL   H28243326   6.812   5.554   5.877 -1.9488 -4.4403  2.6588
  103MOL   H28343327   6.738   5.713   5.896 -2.4388  0.7081  0.0528
  103MOL   H28443328   6.676   5.450   6.040 -2.6942  0.6850 -0.0330
  103MOL   H28543329   6.746   5.645   6.249 -0.0763 -2.3471  0.5528
  103MOL   H28643330   6.856   5.686   6.124 -0.8005  1.5860  0.1801
  103MOL   H28743331   7.012   5.332   6.110 -2.2381 -1.0126  1.1097
  103MOL   H28843332   6.898   5.388   6.009  0.9364  0.5703 -1.4887
  103MOL   H28943333   7.023   5.499   6.030  2.0635 -1.2930  0.8511
  103MOL   H29043334   7.064   5.623   6.233  0.7684 -0.9489 -0.3389
  103MOL   H29143335   7.077   5.480   6.336  0.5258  0.5998  0.1461
  103MOL   H29243336   6.972   5.612   6.378  0.7173  1.5628 -1.1302
  103MOL   H29343337   6.735   5.367   6.228 -0.3267  2.4792 -0.1291
  103MOL   H29443338   6.772   5.425   6.384 -1.0524  2.5109 -1.0434
  103MOL   H29543339   6.893   5.322   6.320  0.7857  0.5103 -0.2112
  103MOL   C29643340   6.551   5.620   6.086 -0.1660 -0.5795 -0.0295
  103MOL   C29743341   6.464   5.550   6.202 -0.5335  0.3159 -0.0346
  103MOL   C29843342   6.379   5.428   6.146  0.3760 -0.4637  0.2607
  103MOL   C29943343   6.293   5.342   6.245  0.0711 -0.1516  0.2278
  103MOL   C30043344   6.353   5.332   6.389 -0.0005 -0.5532  0.4024
  103MOL   C30143345   6.143   5.379   6.277  0.0725 -0.2682  0.8271
  103MOL   C30243346   6.302   5.196   6.192 -0.2079 -0.3619  0.1442
  103MOL   H30343347   6.485   5.617   5.999 -1.6342 -3.2394  1.1043
  103MOL   H30443348   6.565   5.724   6.113 -2.4048 -0.5657  1.1861
  103MOL   H30543349   6.537   5.514   6.273  1.2746  1.9067 -1.0339
  103MOL   H30643350   6.442   5.373   6.077  0.6734 -0.0290  0.1829
  103MOL   H30743351   6.305   5.471   6.078  0.0763 -0.6369  0.4749
  103MOL   H30843352   6.462   5.328   6.382  0.0577  1.2141  0.2341
  103MOL   H30943353   6.329   5.418   6.451 -0.2538 -0.5403  0.2872
  103MOL   H31043354   6.318   5.244   6.443 -1.4894 -0.2517 -0.0610
  103MOL   H31143355   6.130   5.479   6.320  4.3379  1.4709 -1.5989
  103MOL   H31243356   6.084   5.378   6.185  3.6340  0.2553 -1.5597
  103MOL   H31343357   6.105   5.311   6.353 -0.8978  0.6394  1.1637
  103MOL   H31443358   6.288   5.199   6.084  1.2803 -0.1982 -0.0579
  103MOL   H31543359   6.399   5.152   6.214  0.3426  0.9598  0.4240
  103MOL   H31643360   6.229   5.131   6.240 -2.0584  1.3190 -0.3074
  103MOL   C31743361   6.380   5.667   6.279  0.1301  0.1527  1.1337
  103MOL   C31843362   6.458   5.756   6.384  0.6308  0.0753 -0.1895
  103MOL   C31943363   6.366   5.875   6.430 -0.0510  0.4158  0.2582
  103MOL   C32043364   6.379   6.007   6.346  0.3635 -0.0229 -0.9729
  103MOL   C32143365   6.390   5.987   6.193 -0.3977  0.3105  0.3218
  103MOL   C32243366   6.505   6.076   6.403  0.2708 -0.5175 -0.6172
  103MOL   C32343367   6.258   6.096   6.370  0.4864  0.2487 -0.1070
  103MOL   H32443368   6.328   5.717   6.197  1.5353 -2.4637 -1.4363
  103MOL   H32543369   6.302   5.615   6.336  0.2596  0.6247  1.7516
  103MOL   H32643370   6.549   5.792   6.336 -0.9724  0.7867 -2.8018
  103MOL   H32743371   6.374   5.906   6.535  0.8405  0.7793  0.0861
  103MOL   H32843372   6.260   5.847   6.433 -0.1043  0.1104 -2.8474
  103MOL   H32943373   6.312   5.927   6.147 -0.9772  1.3727 -0.0987
  103MOL   H33043374   6.480   5.938   6.155 -0.8746  0.2167 -0.7010
  103MOL   H33143375   6.385   6.084   6.142  2.0580 -0.4497 -1.4928
  103MOL   H33243376   6.529   6.165   6.346  0.1114 -0.8462 -1.2064
  103MOL   H33343377   6.506   6.086   6.512  0.9757 -2.0134 -0.4697
  103MOL   H33443378   6.587   6.004   6.393  0.3875 -0.2422 -1.7099
  103MOL   H33543379   6.282   6.192   6.324 -0.1059 -0.8012 -2.6500
  103MOL   H33643380   6.253   6.092   6.479 -0.7108  0.4527 -0.1526
  103MOL   H33743381   6.164   6.059   6.329 -0.4219  1.1829  1.0846
  103MOL   C33843382   6.526   5.672   6.495 -0.0309 -0.2760 -0.3265
  103MOL   C33943383   6.601   5.750   6.605  0.1095  0.3723  0.0122
  103MOL   C34043384   6.751   5.772   6.560  0.5012  0.2292 -0.5370
  103MOL   C34143385   6.836   5.885   6.641 -0.0927 -0.1793  0.0675
  103MOL   C34243386   6.885   5.840   6.776 -0.7305 -0.6123  0.2479
  103MOL   C34343387   6.960   5.913   6.553  0.6726 -0.4547  0.3807
  103MOL   C34443388   6.770   6.017   6.661  1.1442  0.1864 -0.5384
  103MOL   H34543389   6.601   5.603   6.457 -2.1572 -1.9161 -1.6463
  103MOL   H34643390   6.449   5.622   6.554 -1.5495  1.0795 -1.1370
  103MOL   H34743391   6.557   5.847   6.628  0.4321  0.2313  1.3037
  103MOL   H34843392   6.766   5.797   6.455 -1.8413  0.8811 -0.7293
  103MOL   H34943393   6.808   5.680   6.578  1.8243  1.7950  3.9743
  103MOL   H35043394   6.803   5.830   6.846 -2.3282  0.3288 -1.4497
  103MOL   H35143395   6.939   5.745   6.769 -2.5946 -1.7170  0.7097
  103MOL   H35243396   6.956   5.911   6.820 -0.4794  0.4501 -1.8024
  103MOL   H35343397   7.010   5.821   6.525 -1.3213 -1.4323 -0.1010
  103MOL   H35443398   6.931   5.951   6.454 -2.0802 -1.8642  0.5969
  103MOL   H35543399   7.028   5.987   6.595 -0.5911  1.1874 -0.3551
  103MOL   H35643400   6.692   6.009   6.737  1.7296 -1.1584 -0.0706
  103MOL   H35743401   6.840   6.092   6.697  0.0804  0.9110  0.0653
  103MOL   H35843402   6.735   6.061   6.567 -1.1693 -1.1266 -0.3507
  103MOL   C35943403   6.586   5.668   6.733 -0.4601 -0.2005 -0.8790
  103MOL   C36043404   6.470   5.712   6.830 -0.1172 -1.0831 -0.0224
  103MOL   C36143405   6.517   5.820   6.925 -0.0723 -0.1985 -0.0335
  103MOL   C36243406   6.436   5.945   6.959 -0.1511  0.4292 -0.1841
  103MOL   C36343407   6.532   6.029   7.055  0.6382 -0.4582 -0.5946
  103MOL   C36443408   6.312   5.910   7.039  0.3684 -0.4475 -0.1462
  103MOL   C36543409   6.393   6.022   6.831  0.4306  0.0110 -0.3480
  103MOL   H36643410   6.685   5.670   6.779 -0.8701 -0.1868 -0.0032
  103MOL   H36743411   6.581   5.563   6.706  0.1748 -0.5547  0.3667
  103MOL   H36843412   6.377   5.750   6.786  1.7395  3.7015 -0.1615
  103MOL   H36943413   6.546   5.782   7.023  1.1555  0.4067 -0.1594
  103MOL   H37043414   6.611   5.850   6.879  0.8182 -2.1394  0.4642
  103MOL   H37143415   6.551   5.967   7.142 -0.8270 -1.1283 -0.7382
  103MOL   H37243416   6.633   6.035   7.013 -0.0295  1.2842 -2.0086
  103MOL   H37343417   6.487   6.124   7.084  0.4087 -0.9420  0.6323
  103MOL   H37443418   6.258   5.997   7.077  1.5906 -0.2115  1.1246
  103MOL   H37543419   6.341   5.858   7.131 -0.8034  1.3273  1.2588
  103MOL   H37643420   6.245   5.846   6.982 -1.3786 -1.5057  2.9538
  103MOL   H37743421   6.327   5.953   6.779 -2.0476  1.1223  1.2573
  103MOL   H37843422   6.471   6.050   6.760 -0.5609 -0.2102 -1.5353
  103MOL   H37943423   6.329   6.109   6.848 -1.3006 -1.0365 -1.4153
  103MOL   C38043424   6.428   5.590   6.915  0.3048 -0.2016  0.1921
  103MOL   C38143425   6.331   5.498   6.840  0.2292 -0.0419 -0.6123
  103MOL   C38243426   6.182   5.519   6.879 -0.6892  0.3862  0.4221
  103MOL   C38343427   6.092   5.568   6.768 -0.4303 -0.5991  0.1866
  103MOL   C38443428   5.953   5.585   6.829 -0.2101  0.6968 -0.0430
  103MOL   C38543429   6.088   5.466   6.657  0.5170 -0.7590  0.3193
  103MOL   C38643430   6.131   5.699   6.720 -0.9147 -0.3860  0.3389
  103MOL   H38743431   6.380   5.629   7.005  0.2161  0.8639 -0.3095
  103MOL   H38843432   6.507   5.529   6.960 -1.5486 -1.9798  1.1073
  103MOL   H38943433   6.334   5.529   6.736 -1.1775  1.1915 -0.3149
  103MOL   H39043434   6.128   5.439   6.930 -1.6914  0.7585 -0.0283
  103MOL   H39143435   6.172   5.594   6.957  3.6982 -0.9750  2.4674
  103MOL   H39243436   5.884   5.632   6.759 -0.4855  0.0694 -0.2021
  103MOL   H39343437   5.906   5.493   6.864  1.9864 -0.8946 -1.1175
  103MOL   H39443438   5.947   5.653   6.914  0.2397 -0.3477  0.8373
  103MOL   H39543439   6.054   5.373   6.702  4.1764 -1.3232  2.0576
  103MOL   H39643440   6.183   5.451   6.606  0.0830 -1.6852 -0.2232
  103MOL   H39743441   6.015   5.493   6.581 -0.0996  2.8909  2.0688
  103MOL   H39843442   6.156   5.758   6.808 -2.5764 -0.4470  0.8578
  103MOL   H39943443   6.048   5.743   6.664 -0.6924  0.5335  0.7260
  103MOL   H40043444   6.215   5.693   6.650 -1.1752  1.4434 -0.1568
  103MOL   C40143445   6.365   5.341   6.851 -0.3429 -0.9048 -0.5524
  103MOL   C40243446   6.377   5.290   6.994 -0.0010 -0.3593  0.3287
  103MOL   C40343447   6.393   5.141   7.017 -0.2829  0.1931  0.2539
  103MOL   C40443448   6.391   5.086   7.157 -0.2739 -0.4462 -0.4238
  103MOL   C40543449   6.398   4.931   7.153 -0.2823 -0.0933 -0.1135
  103MOL   C40643450   6.275   5.143   7.247 -0.4813  0.2644  0.0376
  103MOL   C40743451   6.528   5.103   7.224 -0.3030  0.3839 -0.3644
  103MOL   H40843452   6.291   5.278   6.802  0.3614 -2.7024  0.6340
  103MOL   H40943453   6.460   5.326   6.800 -0.5168 -0.9961 -0.8501
  103MOL   H41043454   6.448   5.350   7.052 -1.7595  3.1941 -1.0742
  103MOL   H41143455   6.485   5.101   6.974 -0.2971 -2.3764  2.5021
  103MOL   H41243456   6.311   5.097   6.960  0.2386 -1.6445  0.8870
  103MOL   H41343457   6.393   4.888   7.253  0.4880  0.6660  0.2590
  103MOL   H41443458   6.483   4.897   7.093 -1.0131 -0.8243 -0.7449
  103MOL   H41543459   6.323   4.892   7.084  1.9248  1.0595 -3.3304
  103MOL   H41643460   6.292   5.249   7.268  0.4709 -0.1340  1.3221
  103MOL   H41743461   6.254   5.087   7.338 -3.2977 -0.0623 -0.7608
  103MOL   H41843462   6.183   5.129   7.190 -0.1819 -0.3276 -0.3030
  103MOL   H41943463   6.556   5.205   7.253 -1.0729  0.8261 -1.1694
  103MOL   H42043464   6.538   5.053   7.320 -0.6848  0.1095 -0.4723
  103MOL   H42143465   6.612   5.067   7.165 -0.4578  0.7153 -0.7881
  103MOL   H42243466   6.281   5.316   7.037 -0.4236 -2.7513  0.8788
  104MOL     C143467   3.794   4.366   3.513  0.6536  0.6437  0.0236
  104MOL     C243468   3.732   4.228   3.529  0.0574  0.1040 -0.3845
  104MOL     C343469   3.575   4.220   3.506  0.6070 -0.2783  0.5935
  104MOL     C443470   3.510   4.091   3.438  0.7996 -0.0573  0.3550
  104MOL     C543471   3.570   4.077   3.296 -0.5678 -0.1682 -1.0541
  104MOL     C643472   3.540   3.968   3.514  0.2378  0.4428  0.0655
  104MOL     C743473   3.365   4.115   3.435  0.0460  0.8241 -0.0270
  104MOL     H843474   3.735   4.436   3.572  0.4393  0.0124  0.5619
  104MOL     H943475   3.899   4.367   3.543  0.9866  0.9492 -1.1115
  104MOL    H1043476   3.773   4.161   3.454  1.4646  0.5488 -0.0278
  104MOL    H1143477   3.545   4.296   3.434 -0.5101  0.2915  1.6471
  104MOL    H1243478   3.521   4.253   3.595 -1.7501 -1.1014 -0.4805
  104MOL    H1343479   3.531   4.150   3.224 -0.0820  0.8872 -0.2526
  104MOL    H1443480   3.521   3.990   3.253 -0.2344  0.2327 -2.2811
  104MOL    H1543481   3.679   4.072   3.291 -0.3225  1.4153  1.6983
  104MOL    H1643482   3.473   3.889   3.482 -0.5653  0.9193  0.5504
  104MOL    H1743483   3.646   3.942   3.515  0.1352  0.0347  0.3966
  104MOL    H1843484   3.518   3.958   3.620 -2.9935 -4.5725 -0.9172
  104MOL    H1943485   3.317   4.024   3.398  0.9141  0.5004 -0.3518
  104MOL    H2043486   3.335   4.188   3.360  0.5634 -0.5162 -1.5627
  104MOL    H2143487   3.322   4.140   3.532 -1.3765  3.2312 -1.2280
  104MOL    H2243488   3.790   4.404   3.411  0.4772  1.5664  0.3688
  104MOL    C2343489   3.761   4.180   3.677 -1.2095 -0.3569  0.2394
  104MOL    C2443490   3.909   4.132   3.715 -0.0795  0.0202  0.1349
  104MOL    C2543491   3.942   4.002   3.624 -0.1127 -0.7820 -0.1450
  104MOL    C2643492   4.081   4.013   3.547  0.0261 -0.5737 -0.3020
  104MOL    C2743493   4.080   4.138   3.469  0.6159 -0.8712  0.3996
  104MOL    C2843494   4.197   4.013   3.643 -0.1248  0.4597 -0.3301
  104MOL    C2943495   4.092   3.897   3.444  0.4208  0.0639  0.4501
  104MOL    H3043496   3.728   4.258   3.745  1.4720  2.2361 -1.2990
  104MOL    H3143497   3.686   4.105   3.701  0.3491 -2.4889 -1.2376
  104MOL    H3243498   3.977   4.215   3.699 -0.3127  0.3146  0.6526
  104MOL    H3343499   3.866   3.993   3.546 -2.8788 -0.1373  2.3964
  104MOL    H3443500   3.944   3.908   3.678  1.0036 -0.5531  0.2366
  104MOL    H3543501   4.149   4.139   3.385 -1.3464  3.3266 -1.2980
  104MOL    H3643502   3.983   4.154   3.422  0.8453  0.5860  0.3893
  104MOL    H3743503   4.098   4.220   3.538 -1.1794 -1.4252  1.5701
  104MOL    H3843504   4.222   3.915   3.683  0.3643 -0.0565 -1.8653
  104MOL    H3943505   4.290   4.049   3.600  0.7614 -0.4975  0.7587
  104MOL    H4043506   4.182   4.085   3.723  2.8139  1.6937 -0.8509
  104MOL    H4143507   4.188   3.892   3.393  0.0343  0.9371 -0.3670
  104MOL    H4243508   4.013   3.904   3.370  0.9377 -1.2846 -0.2516
  104MOL    H4343509   4.070   3.799   3.487  3.2353 -1.6861 -1.8910
  104MOL    C4443510   3.919   4.103   3.871  0.6966 -0.3401 -0.1667
  104MOL    C4543511   3.918   4.226   3.960 -0.3622 -0.6636  0.4648
  104MOL    C4643512   4.047   4.311   3.950 -0.1035 -0.0077  0.0407
  104MOL    C4743513   4.046   4.468   3.945 -0.1643 -0.0248 -0.1199
  104MOL    C4843514   4.012   4.521   3.806  0.0312 -0.0726 -0.0698
  104MOL    C4943515   4.171   4.532   3.998 -0.4980 -0.2909 -0.1503
  104MOL    C5043516   3.940   4.523   4.047 -0.6011  0.7113 -0.0497
  104MOL    H5143517   3.839   4.032   3.894 -1.2064  0.8790 -2.7857
  104MOL    H5243518   4.011   4.048   3.888  1.5690  1.3659  0.7295
  104MOL    H5343519   3.829   4.288   3.947 -1.0105 -1.5302  0.7023
  104MOL    H5443520   4.108   4.277   3.865 -1.0269 -1.5166 -0.0428
  104MOL    H5543521   4.119   4.277   4.024 -0.5061 -1.2495 -0.1256
  104MOL    H5643522   4.026   4.629   3.801 -0.8322  0.0064 -1.1755
  104MOL    H5743523   3.903   4.520   3.799 -0.0133  2.1824 -0.2318
  104MOL    H5843524   4.061   4.471   3.722  0.1541  0.3351 -0.2423
  104MOL    H5943525   4.197   4.498   4.098 -0.2341 -0.7999 -0.3899
  104MOL    H6043526   4.245   4.509   3.921  0.7927  3.1532 -0.0559
  104MOL    H6143527   4.158   4.640   4.004 -1.1398 -0.4307  1.2551
  104MOL    H6243528   3.844   4.472   4.052 -0.9919  0.9832 -3.5157
  104MOL    H6343529   3.995   4.525   4.141 -0.9496  2.6402  0.1186
  104MOL    H6443530   3.917   4.627   4.024  0.2691  0.5935 -1.5150
  104MOL    C6543531   3.917   4.188   4.108 -0.1933  0.0051  0.3989
  104MOL    C6643532   3.798   4.105   4.166 -0.0505  0.1365  0.1767
  104MOL    C6743533   3.827   3.953   4.147  0.1272  0.7462  0.3083
  104MOL    C6843534   3.816   3.863   4.268 -0.1605  0.3804  0.6035
  104MOL    C6943535   3.829   3.712   4.213 -0.2984 -0.0676 -0.1323
  104MOL    C7043536   3.929   3.898   4.364  0.0736  0.2223 -0.0683
  104MOL    C7143537   3.683   3.882   4.343 -0.3604  0.3292  0.2041
  104MOL    H7243538   4.010   4.134   4.127 -1.1250 -2.0107 -0.6772
  104MOL    H7343539   3.908   4.275   4.174 -0.1812  1.0877 -0.9904
  104MOL    H7443540   3.804   4.127   4.273  0.6475 -3.4184  0.9362
  104MOL    H7543541   3.929   3.941   4.110 -0.1121 -2.5357  0.5775
  104MOL    H7643542   3.765   3.921   4.063 -0.4089  1.8163  0.2828
  104MOL    H7743543   3.857   3.633   4.283 -0.7446 -0.4384 -0.3647
  104MOL    H7843544   3.734   3.682   4.169 -1.8500  0.5962  2.6413
  104MOL    H7943545   3.905   3.706   4.135  0.1540 -1.5329  0.3937
  104MOL    H8043546   3.922   4.003   4.393 -1.0506 -1.0646  4.8859
  104MOL    H8143547   4.031   3.897   4.327  0.1586  1.4939  0.0947
  104MOL    H8243548   3.931   3.840   4.457  1.7326  2.4970  1.3813
  104MOL    H8343549   3.691   3.978   4.393 -0.9904 -0.0003  0.9284
  104MOL    H8443550   3.665   3.809   4.421  0.0799  0.2641  0.2476
  104MOL    H8543551   3.603   3.872   4.270  1.1589  1.3483 -1.6511
  104MOL    C8643552   3.654   4.139   4.122  0.1446  0.4939  0.2611
  104MOL    C8743553   3.606   4.287   4.146  0.3573  0.1795  0.6740
  104MOL    C8843554   3.537   4.312   4.286  0.4517  0.6686 -0.7257
  104MOL    C8943555   3.546   4.445   4.357  0.1016 -0.3996  0.1790
  104MOL    C9043556   3.481   4.561   4.274 -0.8818 -0.2835  0.1972
  104MOL    C9143557   3.691   4.486   4.385  0.0686  0.3798  0.5384
  104MOL    C9243558   3.464   4.441   4.487 -0.1968 -0.1308  0.3584
  104MOL    H9343559   3.588   4.060   4.159  1.2067 -0.6726 -0.2775
  104MOL    H9443560   3.666   4.115   4.016  0.9694  2.6692 -0.1650
  104MOL    H9543561   3.696   4.349   4.151  0.6590  0.1998 -3.5593
  104MOL    H9643562   3.580   4.234   4.350  1.8512  3.2589  1.6049
  104MOL    H9743563   3.432   4.285   4.278  0.9789 -1.8142  0.2983
  104MOL    H9843564   3.377   4.538   4.250 -1.2736 -0.8084  2.2714
  104MOL    H9943565   3.531   4.579   4.179 -3.1354  0.3593 -0.8925
  104MOL   H10043566   3.472   4.657   4.326  0.7149  0.9110 -1.6632
  104MOL   H10143567   3.738   4.514   4.291 -0.9708 -2.6788 -0.9753
  104MOL   H10243568   3.694   4.577   4.445 -1.7161 -0.2532  1.6145
  104MOL   H10343569   3.748   4.405   4.431 -0.5133 -0.4732 -0.2239
  104MOL   H10443570   3.463   4.535   4.543 -0.5794  0.9015 -1.3525
  104MOL   H10543571   3.358   4.423   4.470 -0.7353  2.1735  1.0799
  104MOL   H10643572   3.498   4.367   4.559  0.9871  0.7371  0.7116
  104MOL   C10743573   3.516   4.324   4.033  0.0074  0.3176  0.2986
  104MOL   C10843574   3.374   4.273   4.013 -0.2261  0.5836  0.0448
  104MOL   C10943575   3.332   4.315   3.863  0.2742  1.0291  0.0949
  104MOL   C11043576   3.312   4.458   3.824  0.1381  0.5174  0.0425
  104MOL   C11143577   3.440   4.535   3.825  0.7535 -0.1810 -0.3912
  104MOL   C11243578   3.214   4.523   3.920 -0.7448  0.0950  0.7372
  104MOL   C11343579   3.258   4.457   3.679  0.3036  0.2769  0.0588
  104MOL   H11443580   3.570   4.312   3.939  0.2998 -0.1119  0.5226
  104MOL   H11543581   3.509   4.432   4.045  0.6573  0.3316  0.5905
  104MOL   H11643582   3.312   4.340   4.073 -0.3791  0.0579  0.4792
  104MOL   H11743583   3.395   4.263   3.790  1.4571  2.7766 -0.1554
  104MOL   H11843584   3.240   4.261   3.842  1.2661 -1.0462  0.9182
  104MOL   H11943585   3.429   4.620   3.758  1.9985  0.4499  0.1927
  104MOL   H12043586   3.465   4.583   3.919 -1.0487  0.8785 -0.4298
  104MOL   H12143587   3.526   4.477   3.789  1.1163  0.3325 -0.3488
  104MOL   H12243588   3.118   4.473   3.914 -1.2667  1.1791 -0.0789
  104MOL   H12343589   3.196   4.627   3.891 -0.1691 -0.1147 -0.4026
  104MOL   H12443590   3.254   4.530   4.021  4.4950  0.5319 -1.1861
  104MOL   H12543591   3.172   4.391   3.672 -0.9184  2.0077 -1.6456
  104MOL   H12643592   3.338   4.436   3.608  0.6704  2.0945 -0.0765
  104MOL   H12743593   3.222   4.558   3.660  1.1343  0.9355  1.8754
  104MOL   C12843594   3.347   4.125   4.052 -0.1183 -0.2130  0.3738
  104MOL   C12943595   3.194   4.080   4.057  0.8933 -0.2161 -0.2292
  104MOL   C13043596   3.182   3.932   4.049  0.4736  0.0380 -0.0647
  104MOL   C13143597   3.190   3.862   3.909  0.1617  0.8092  0.9748
  104MOL   C13243598   3.096   3.920   3.802  0.0987  0.0717 -0.0346
  104MOL   C13343599   3.137   3.709   3.938  0.0299  0.1406 -0.5058
  104MOL   C13443600   3.334   3.850   3.853  0.6657  0.2841  0.4633
  104MOL   H13543601   3.380   4.103   4.153 -1.0849  0.1279  0.7638
  104MOL   H13643602   3.415   4.062   3.994  0.2182  1.2601 -0.8804
  104MOL   H13743603   3.134   4.120   3.976  0.2930 -0.3951  0.1223
  104MOL   H13843604   3.259   3.882   4.108 -0.4669 -2.4552 -0.8983
  104MOL   H13943605   3.093   3.896   4.100 -0.3101  2.0305 -0.0015
  104MOL   H14043606   2.992   3.920   3.836  0.6187 -0.3404  1.5813
  104MOL   H14143607   3.099   3.862   3.709 -0.1662 -4.1729  2.4657
  104MOL   H14243608   3.124   4.021   3.771 -1.4034  0.1209 -1.3158
  104MOL   H14343609   3.037   3.713   3.980 -0.5676  1.2396 -1.9960
  104MOL   H14443610   3.200   3.649   4.004  1.2120 -0.2979 -1.9911
  104MOL   H14543611   3.141   3.660   3.840  1.2136 -1.4998  0.3452
  104MOL   H14643612   3.329   3.779   3.770  3.2846 -0.0882  0.5840
  104MOL   H14743613   3.378   3.943   3.817  0.8122 -0.7029 -2.0667
  104MOL   H14843614   3.400   3.804   3.927  0.4811  0.5010  0.7598
  104MOL   C14943615   3.120   4.134   4.186 -0.6225 -0.4365  0.2662
  104MOL   C15043616   2.963   4.114   4.188  0.2608  0.0394  0.0899
  104MOL   C15143617   2.918   4.135   4.333 -0.8697  0.0149  0.2072
  104MOL   C15243618   2.904   4.007   4.431  0.3546 -0.3963 -0.8134
  104MOL   C15343619   2.868   4.063   4.568 -0.1275 -0.5741  0.0137
  104MOL   C15443620   3.040   3.931   4.448  0.8128 -0.6183 -0.0366
  104MOL   C15543621   2.792   3.915   4.380  0.5262 -0.3464 -0.0661
  104MOL   H15643622   3.128   4.242   4.199 -0.2395 -0.4306 -0.0108
  104MOL   H15743623   3.164   4.086   4.274 -0.2799  0.8819  0.8169
  104MOL   H15843624   2.945   4.015   4.146  2.5529 -0.2315 -0.3410
  104MOL   H15943625   2.822   4.185   4.328  0.3961  2.6089  0.8473
  104MOL   H16043626   2.984   4.202   4.389  1.3184 -1.5809 -0.3934
  104MOL   H16143627   2.951   4.124   4.603  0.1109 -1.7394  1.5185
  104MOL   H16243628   2.778   4.123   4.560  1.4461  1.7376 -0.6509
  104MOL   H16343629   2.868   3.979   4.638  1.1666  0.0554  0.7953
  104MOL   H16443630   3.073   3.879   4.358 -0.9719  0.4970 -1.3821
  104MOL   H16543631   3.022   3.857   4.526 -0.4758  0.0401  0.2997
  104MOL   H16643632   3.116   3.997   4.489  0.7095 -2.4882  3.3126
  104MOL   H16743633   2.703   3.974   4.360  2.2236  2.6998  1.1312
  104MOL   H16843634   2.826   3.866   4.289 -0.0239  0.8697 -0.9357
  104MOL   H16943635   2.759   3.839   4.452 -0.9340  0.4847  0.1596
  104MOL   C17043636   2.883   4.214   4.094 -0.6991  0.1310 -0.0009
  104MOL   C17143637   2.772   4.156   4.003  0.1412 -0.3379  0.9292
  104MOL   C17243638   2.690   4.267   3.927  0.7378  0.0628 -0.0659
  104MOL   C17343639   2.758   4.354   3.824 -0.1438  0.4723 -0.2753
  104MOL   C17443640   2.645   4.419   3.745 -0.1617 -0.9581  0.0776
  104MOL   C17543641   2.859   4.281   3.732 -0.3139  0.1657  0.2894
  104MOL   C17643642   2.821   4.472   3.894  0.0555 -0.4278  0.7542
  104MOL   H17743643   2.959   4.252   4.025  0.5249 -1.6388  0.3481
  104MOL   H17843644   2.849   4.302   4.150 -0.7078 -2.2321  3.8412
  104MOL   H17943645   2.817   4.089   3.929  0.8735  0.9044  0.2268
  104MOL   H18043646   2.610   4.214   3.875  0.6109 -0.2299  0.4303
  104MOL   H18143647   2.637   4.332   3.997 -2.3651 -1.2686 -1.0739
  104MOL   H18243648   2.568   4.476   3.798  0.1601 -0.3169 -0.1419
  104MOL   H18343649   2.690   4.486   3.671  0.0249  0.6974  1.6486
  104MOL   H18443650   2.587   4.349   3.685 -3.2506  0.6642  1.0223
  104MOL   H18543651   2.904   4.340   3.652 -0.6646  1.5816  1.1226
  104MOL   H18643652   2.938   4.240   3.795  0.2444  0.8352  0.0307
  104MOL   H18743653   2.814   4.204   3.669  0.6573 -0.8039  0.7564
  104MOL   H18843654   2.867   4.537   3.820 -0.5902 -0.2983  0.4588
  104MOL   H18943655   2.750   4.534   3.950  1.3586  0.5783  1.3138
  104MOL   H19043656   2.896   4.441   3.966  1.8344  2.0801  0.0273
  104MOL   C19143657   2.664   4.078   4.089  0.3718 -0.0752  0.9332
  104MOL   C19243658   2.581   3.973   4.010  1.0261  0.6882  0.0806
  104MOL   C19343659   2.453   3.933   4.094  0.2709  0.4196 -0.7993
  104MOL   C19443660   2.321   3.987   4.039  0.2546  0.5825 -0.1971
  104MOL   C19543661   2.286   3.931   3.896 -0.3723 -0.4030 -0.5013
  104MOL   C19643662   2.334   4.139   4.033  0.9723  0.2487 -0.7162
  104MOL   C19743663   2.220   3.944   4.143 -0.1613  0.0637  0.1324
  104MOL   H19843664   2.718   4.019   4.163 -0.5081 -0.6922  1.0902
  104MOL   H19943665   2.596   4.144   4.142 -0.4868 -0.3501  0.1848
  104MOL   H20043666   2.556   4.019   3.914  0.4123 -0.6002 -0.3846
  104MOL   H20143667   2.469   3.972   4.195 -1.2485  0.7690 -0.6848
  104MOL   H20243668   2.437   3.826   4.104  2.4379  0.1639  0.1548
  104MOL   H20343669   2.196   3.972   3.852 -1.3452  1.5661  3.0940
  104MOL   H20443670   2.364   3.946   3.822  0.1839  2.4313  0.5870
  104MOL   H20543671   2.267   3.824   3.900  0.5267 -0.5258  1.0377
  104MOL   H20643672   2.418   4.179   3.976  0.0297  1.0313 -1.5801
  104MOL   H20743673   2.246   4.186   3.989 -0.1640 -0.7669  0.4476
  104MOL   H20843674   2.339   4.173   4.137 -0.6049 -1.2222 -0.1531
  104MOL   H20943675   2.241   3.969   4.248 -3.2813  2.1621  0.3192
  104MOL   H21043676   2.118   3.977   4.128  0.5343  1.6333 -1.4059
  104MOL   H21143677   2.206   3.836   4.153  0.3967  0.0310  0.6060
  104MOL   C21243678   2.673   3.854   3.968  0.7545  0.7390  0.3087
  104MOL   C21343679   2.651   3.793   3.831 -0.4918  1.3280  0.1950
  104MOL   C21443680   2.751   3.670   3.820 -0.7561  0.4389  0.8317
  104MOL   C21543681   2.706   3.525   3.837 -0.0471  0.0205 -0.6128
  104MOL   C21643682   2.607   3.484   3.730 -0.1077 -0.5127  0.1565
  104MOL   C21743683   2.826   3.424   3.835 -0.6904  0.2134  0.6614
  104MOL   C21843684   2.647   3.523   3.977  0.4707 -0.0280 -0.6562
  104MOL   H21943685   2.779   3.879   3.974  0.7287  0.6720  1.1140
  104MOL   H22043686   2.668   3.773   4.040 -1.1039  1.2899  0.8207
  104MOL   H22143687   2.547   3.759   3.837 -0.4829  1.0249 -1.2324
  104MOL   H22243688   2.839   3.678   3.883  1.6002 -3.0737 -1.8190
  104MOL   H22343689   2.801   3.686   3.724  0.6158 -0.9204  1.3013
  104MOL   H22443690   2.628   3.530   3.633 -0.0456 -2.3684 -0.7288
  104MOL   H22543691   2.502   3.505   3.750 -0.0787 -0.9054  0.7393
  104MOL   H22643692   2.606   3.377   3.710  0.7625  0.0963 -3.5540
  104MOL   H22743693   2.789   3.324   3.859 -2.7795  0.2430 -2.2057
  104MOL   H22843694   2.864   3.417   3.733 -2.3916  1.6618 -0.1001
  104MOL   H22943695   2.904   3.439   3.910 -0.2159 -0.0946  0.2269
  104MOL   H23043696   2.718   3.546   4.056 -1.8295  1.1906  1.0896
  104MOL   H23143697   2.610   3.422   3.991  0.4822 -0.0396 -0.7072
  104MOL   H23243698   2.560   3.588   3.977 -0.0256 -0.6908  0.2283
  104MOL   C23343699   2.669   3.893   3.707 -0.5170 -0.2893 -0.8375
  104MOL   C23443700   2.621   3.857   3.562 -0.3315 -0.6332 -0.3255
  104MOL   C23543701   2.467   3.861   3.545 -0.9447  0.1477  0.6083
  104MOL   C23643702   2.403   3.797   3.416 -1.6819 -0.8370  0.1179
  104MOL   C23743703   2.465   3.657   3.390  0.1528 -0.2236 -0.8231
  104MOL   C23843704   2.254   3.769   3.454 -0.2856 -0.5543 -0.3483
  104MOL   C23943705   2.410   3.886   3.283  0.4696 -0.9206  0.1869
  104MOL   H24043706   2.776   3.916   3.707 -0.9532  1.8982 -1.6756
  104MOL   H24143707   2.614   3.982   3.735  1.0278 -0.5458  3.4506
  104MOL   H24243708   2.656   3.758   3.533 -2.8267 -2.1982  1.8308
  104MOL   H24343709   2.417   3.806   3.625  0.8119 -1.8494  0.3609
  104MOL   H24443710   2.429   3.962   3.560 -0.4708  0.0520  2.6268
  104MOL   H24543711   2.571   3.671   3.369  0.2595 -0.2303 -0.3086
  104MOL   H24643712   2.421   3.601   3.307 -3.9635  2.9750 -0.9840
  104MOL   H24743713   2.463   3.587   3.474 -1.6486  0.6518 -0.1057
  104MOL   H24843714   2.196   3.858   3.478 -0.6147 -0.4054 -1.6540
  104MOL   H24943715   2.210   3.726   3.364 -1.5306 -0.3370  0.1514
  104MOL   H25043716   2.242   3.697   3.535 -0.4090  0.7059  0.7562
  104MOL   H25143717   2.356   3.850   3.196 -0.9997 -2.8118  1.8379
  104MOL   H25243718   2.373   3.988   3.296  1.4851 -0.6715  1.2120
  104MOL   H25343719   2.515   3.895   3.255  0.5963 -0.8270  0.6844
  104MOL   C25443720   2.704   3.959   3.474  0.0081  0.4619  0.3803
  104MOL   C25543721   2.818   3.899   3.372 -0.5393 -0.1930  0.1898
  104MOL   C25643722   2.935   3.826   3.441  0.4384  0.1525 -0.6280
  104MOL   C25743723   2.981   3.694   3.385 -0.1064  0.1313  0.1219
  104MOL   C25843724   3.034   3.718   3.243 -0.2830  0.4297  0.1200
  104MOL   C25943725   2.877   3.582   3.392  0.3630 -0.4198  0.2198
  104MOL   C26043726   3.106   3.648   3.467  0.6366  0.7989  0.1004
  104MOL   H26143727   2.757   4.031   3.536  2.2507  1.0135 -2.0877
  104MOL   H26243728   2.626   4.010   3.418 -1.0988 -1.8286 -0.2321
  104MOL   H26343729   2.761   3.825   3.316 -0.7706 -0.4644  0.7828
  104MOL   H26443730   3.016   3.897   3.458  1.3049 -0.6823 -1.2370
  104MOL   H26543731   2.898   3.804   3.542 -0.8474  1.8946 -0.7083
  104MOL   H26643732   3.071   3.627   3.196 -0.0592  1.5524 -1.9534
  104MOL   H26743733   3.123   3.780   3.240  1.2664 -1.7808 -0.8005
  104MOL   H26843734   2.973   3.764   3.164  1.3428 -1.3985 -2.2694
  104MOL   H26943735   2.814   3.590   3.304 -0.1337  1.3123  0.7235
  104MOL   H27043736   2.813   3.591   3.479  0.1484 -1.1905  0.1444
  104MOL   H27143737   2.937   3.491   3.385 -2.4680 -2.2515 -1.0757
  104MOL   H27243738   3.141   3.554   3.425 -0.7855  1.3167 -2.3466
  104MOL   H27343739   3.190   3.718   3.461  0.4542  1.0050 -0.0633
  104MOL   H27443740   3.076   3.624   3.569 -0.0021  1.5497  0.0934
  104MOL   C27543741   2.878   4.020   3.285  0.5505 -0.2501  0.5050
  104MOL   C27643742   2.784   4.092   3.184 -0.3092  0.4389 -0.0835
  104MOL   C27743743   2.821   4.246   3.156 -0.6663  0.6057 -0.3121
  104MOL   C27843744   2.771   4.356   3.245  0.5376  0.1661 -0.4245
  104MOL   C27943745   2.616   4.364   3.249 -0.5641 -0.2628  0.0516
  104MOL   C28043746   2.830   4.348   3.386 -0.8792  0.5676  0.1349
  104MOL   C28143747   2.817   4.499   3.198 -0.1338  0.1645  0.0035
  104MOL   H28243748   2.895   4.094   3.364 -0.9173 -1.1673  1.7050
  104MOL   H28343749   2.970   3.985   3.239  0.2123 -0.7087  0.1689
  104MOL   H28443750   2.682   4.085   3.220 -0.4901 -1.6806 -0.9419
  104MOL   H28543751   2.783   4.260   3.055 -0.0519  1.9438 -0.3646
  104MOL   H28643752   2.928   4.261   3.139 -0.5508 -0.0005 -0.1724
  104MOL   H28743753   2.578   4.391   3.151 -2.6285  0.2726  0.9793
  104MOL   H28843754   2.567   4.277   3.293 -1.5150  0.0976 -0.2791
  104MOL   H28943755   2.585   4.451   3.307 -1.0012 -1.1392  1.1601
  104MOL   H29043756   2.782   4.269   3.445 -0.2059  0.2598  0.2731
  104MOL   H29143757   2.806   4.428   3.455  0.1672  1.9031 -1.0238
  104MOL   H29243758   2.938   4.339   3.387 -0.8431  1.0777  1.6915
  104MOL   H29343759   2.925   4.488   3.190  0.0056 -0.6952  2.4507
  104MOL   H29443760   2.799   4.571   3.279  0.0433 -0.1020  0.2811
  104MOL   H29543761   2.779   4.539   3.104  1.0961  0.8905 -0.1915
  104MOL   C29643762   2.777   4.006   3.054 -0.3178 -0.7873 -0.2916
  104MOL   C29743763   2.643   3.991   2.978  0.5722 -0.6365 -0.1488
  104MOL   C29843764   2.649   3.904   2.850 -0.4229  0.0328 -0.9992
  104MOL   C29943765   2.673   3.752   2.869 -0.1796  0.5721  0.1767
  104MOL   C30043766   2.611   3.708   3.002  0.2934 -0.2959 -0.0441
  104MOL   C30143767   2.602   3.676   2.761 -0.0043 -0.0542  0.6966
  104MOL   C30243768   2.824   3.715   2.867  0.2537  0.4131  0.3640
  104MOL   H30343769   2.813   3.910   3.090  0.7121  0.1847  1.3047
  104MOL   H30443770   2.846   4.035   2.975 -2.5972  2.2042 -1.2935
  104MOL   H30543771   2.570   3.951   3.048 -1.1982  1.5696 -0.6712
  104MOL   H30643772   2.713   3.940   2.770  1.3584 -2.6754 -0.8675
  104MOL   H30743773   2.548   3.912   2.812  0.3713  1.1023 -2.9391
  104MOL   H30843774   2.668   3.718   3.094 -1.6826 -0.9220  1.2861
  104MOL   H30943775   2.515   3.756   3.016 -0.1997 -0.1070 -3.5180
  104MOL   H31043776   2.585   3.602   3.002 -0.4340 -0.1189  0.1979
  104MOL   H31143777   2.631   3.570   2.763 -2.8383 -0.9276 -1.4771
  104MOL   H31243778   2.495   3.677   2.779 -0.1674 -0.0281 -0.2222
  104MOL   H31343779   2.631   3.710   2.661  0.6199 -0.0418  0.8810
  104MOL   H31443780   2.826   3.609   2.891  1.8008  0.6997  1.5107
  104MOL   H31543781   2.881   3.747   2.780  1.9991  3.0456  2.4110
  104MOL   H31643782   2.883   3.777   2.934 -0.5702  1.3747  0.2096
  104MOL   C31743783   2.593   4.131   2.947  0.2223 -0.0350  0.1847
  104MOL   C31843784   2.457   4.149   2.870 -0.4805  0.4338  0.1124
  104MOL   C31943785   2.339   4.111   2.967 -0.5316 -0.1959 -0.3257
  104MOL   C32043786   2.214   4.044   2.898  0.6525 -0.3616 -0.4886
  104MOL   C32143787   2.098   4.052   3.004  0.4764 -0.7560  0.6431
  104MOL   C32243788   2.242   3.894   2.872  1.1067  0.6022  0.1058
  104MOL   C32343789   2.159   4.109   2.764 -0.2151 -0.0128 -0.2851
  104MOL   H32443790   2.584   4.181   3.044  0.8324  2.6005 -1.0612
  104MOL   H32543791   2.675   4.168   2.886  0.3194 -1.2173 -0.4187
  104MOL   H32643792   2.453   4.089   2.780  1.8513  0.8713 -0.3291
  104MOL   H32743793   2.306   4.200   3.021  0.7625 -1.4043  2.5356
  104MOL   H32843794   2.383   4.048   3.044  0.4988  0.9164  0.0006
  104MOL   H32943795   2.088   4.160   3.021  1.0414 -0.6510  0.2866
  104MOL   H33043796   2.130   4.006   3.098 -1.2132 -1.4440  0.9127
  104MOL   H33143797   2.002   4.009   2.974  0.0863  0.4524  0.1134
  104MOL   H33243798   2.157   3.846   2.825  0.3327  0.8173  1.2593
  104MOL   H33343799   2.328   3.882   2.806  1.1676  1.7503 -0.0395
  104MOL   H33443800   2.263   3.839   2.963  1.6502  1.8264  0.7443
  104MOL   H33543801   2.136   4.215   2.781 -0.4795 -0.2022  0.5846
  104MOL   H33643802   2.068   4.062   2.725 -0.8309 -0.3875  1.5334
  104MOL   H33743803   2.232   4.092   2.686 -0.1643  1.5198 -0.5969
  104MOL   C33843804   2.455   4.291   2.809 -0.0392  0.2574  0.1180
  104MOL   C33943805   2.552   4.309   2.686 -0.6202  0.3546 -0.5552
  104MOL   C34043806   2.578   4.460   2.655 -0.4801  0.1970 -0.3832
  104MOL   C34143807   2.718   4.518   2.705 -0.0165 -0.2325 -0.1514
  104MOL   C34243808   2.717   4.669   2.673 -0.4671  0.1211 -0.1485
  104MOL   C34343809   2.723   4.483   2.854 -0.9301  0.6231  0.2119
  104MOL   C34443810   2.842   4.452   2.642 -0.1932  0.2363 -0.2286
  104MOL   H34543811   2.490   4.346   2.895 -0.9317  0.5518  0.2986
  104MOL   H34643812   2.348   4.307   2.794 -0.6246 -0.2832  3.3500
  104MOL   H34743813   2.640   4.249   2.707 -0.9251 -0.1463 -0.6988
  104MOL   H34843814   2.491   4.512   2.693 -0.5585  0.2391 -0.6185
  104MOL   H34943815   2.588   4.461   2.546 -0.9950  0.9882 -0.4322
  104MOL   H35043816   2.621   4.716   2.692 -1.3842 -1.4393 -0.8056
  104MOL   H35143817   2.787   4.722   2.738  3.3771 -1.4258 -2.8528
  104MOL   H35243818   2.738   4.689   2.568 -0.6537 -0.7974 -0.3669
  104MOL   H35343819   2.818   4.519   2.893 -0.4175  0.6983 -1.0750
  104MOL   H35443820   2.643   4.524   2.916 -1.6364 -1.1792  0.5230
  104MOL   H35543821   2.728   4.376   2.875 -2.9550  0.2753 -0.9668
  104MOL   H35643822   2.841   4.344   2.656  3.0904  0.3155  1.1740
  104MOL   H35743823   2.843   4.473   2.535  0.2153 -2.8616 -0.8680
  104MOL   H35843824   2.936   4.492   2.680 -0.6487  1.6868 -0.5785
  104MOL   C35943825   2.488   4.249   2.558 -0.0577  0.0232 -0.0335
  104MOL   C36043826   2.591   4.204   2.459 -0.2312  0.2782 -0.3697
  104MOL   C36143827   2.540   4.199   2.307  0.0558 -0.0114 -0.7148
  104MOL   C36243828   2.519   4.329   2.221  1.0192 -0.2492 -0.2524
  104MOL   C36343829   2.654   4.399   2.209  0.1030  0.6833 -0.3004
  104MOL   C36443830   2.419   4.428   2.285 -0.0913 -0.0536  0.1425
  104MOL   C36543831   2.469   4.290   2.077 -0.3108 -0.2619  0.3636
  104MOL   H36643832   2.413   4.311   2.510  0.6936  1.0694  0.1350
  104MOL   H36743833   2.433   4.158   2.584  1.2299 -0.7440  0.0324
  104MOL   H36843834   2.667   4.283   2.461 -1.9680  1.9794 -0.7313
  104MOL   H36943835   2.616   4.153   2.243 -0.2471 -0.2966 -0.8710
  104MOL   H37043836   2.452   4.134   2.310  0.6597 -0.7736  1.4523
  104MOL   H37143837   2.728   4.359   2.140  1.9880  1.4934  1.2036
  104MOL   H37243838   2.636   4.495   2.160 -0.3735 -0.2366 -1.9335
  104MOL   H37343839   2.704   4.424   2.303 -0.2624  3.8607 -0.8772
  104MOL   H37443840   2.461   4.485   2.367 -1.4363  1.3661 -0.1171
  104MOL   H37543841   2.335   4.373   2.327 -0.9072  1.4524  0.5203
  104MOL   H37643842   2.381   4.497   2.209 -2.8571 -1.9303 -0.2649
  104MOL   H37743843   2.449   4.382   2.021 -3.9521 -0.2147  1.5845
  104MOL   H37843844   2.375   4.236   2.091 -0.6156 -0.4649 -2.2317
  104MOL   H37943845   2.545   4.235   2.022  0.5649  2.1008 -0.8307
  104MOL   C38043846   2.671   4.067   2.499 -0.8963  0.5505 -0.0893
  104MOL   C38143847   2.785   4.021   2.402 -0.5885  0.2295 -0.8572
  104MOL   C38243848   2.833   3.877   2.428 -0.1882 -0.1164  0.6581
  104MOL   C38343849   2.762   3.762   2.342  0.1199 -0.1040  0.1261
  104MOL   C38443850   2.815   3.768   2.196 -0.3554  0.9484  0.2064
  104MOL   C38543851   2.605   3.767   2.348 -0.2786 -0.1173  0.7807
  104MOL   C38643852   2.792   3.629   2.403 -0.0949 -0.1050  0.3508
  104MOL   H38743853   2.605   3.982   2.513 -0.9312  0.4082 -1.0836
  104MOL   H38843854   2.712   4.082   2.599 -1.2239  1.6308 -0.1080
  104MOL   H38943855   2.746   4.022   2.300 -0.6042  2.0110 -0.8474
  104MOL   H39043856   2.941   3.882   2.410  0.3160 -2.6174  2.8022
  104MOL   H39143857   2.824   3.868   2.536 -2.5774  1.9236  0.6776
  104MOL   H39243858   2.789   3.865   2.153 -2.7540  1.0532  1.7770
  104MOL   H39343859   2.923   3.756   2.206 -0.4770  0.4808  0.9504
  104MOL   H39443860   2.781   3.695   2.123  3.3903 -0.7725  0.0703
  104MOL   H39543861   2.555   3.759   2.444  0.8776 -1.5302  1.2850
  104MOL   H39643862   2.556   3.681   2.304 -0.1194  0.1760  0.0096
  104MOL   H39743863   2.574   3.855   2.291  1.5146  0.1724  0.2049
  104MOL   H39843864   2.796   3.625   2.512  0.6879  3.7854  0.5726
  104MOL   H39943865   2.890   3.602   2.363 -1.1171 -0.0003 -2.2933
  104MOL   H40043866   2.724   3.554   2.364 -1.4850  1.3875 -0.1772
  104MOL   C40143867   2.908   4.130   2.397 -0.3670  0.1130 -0.1320
  104MOL   C40243868   2.979   4.154   2.259  0.1684 -0.2103  0.0588
  104MOL   C40343869   3.090   4.259   2.254  0.1395 -0.5597 -0.0738
  104MOL   C40443870   3.178   4.273   2.126  0.3105 -0.3866 -0.3260
  104MOL   C40543871   3.088   4.317   2.017 -0.2271 -0.3787  0.2064
  104MOL   C40643872   3.255   4.146   2.090  0.4279 -0.4195 -0.3266
  104MOL   C40743873   3.290   4.376   2.150  0.8563  0.1181  0.3762
  104MOL   H40843874   2.879   4.226   2.440 -0.9105  0.4406 -1.2255
  104MOL   H40943875   2.978   4.102   2.476 -3.0087 -2.1118  1.5031
  104MOL   H41043876   3.027   4.057   2.241  1.1246  0.2832 -0.0811
  104MOL   H41143877   3.147   4.255   2.347 -0.7588 -0.3060  0.4916
  104MOL   H41243878   3.044   4.355   2.277 -0.9639 -0.8466 -1.0639
  104MOL   H41343879   3.058   4.422   2.028 -1.0340 -0.9005  3.5278
  104MOL   H41443880   3.001   4.251   2.010 -0.5649  0.1197 -0.3797
  104MOL   H41543881   3.145   4.314   1.924  1.0972  0.9655  0.9551
  104MOL   H41643882   3.204   4.051   2.101  1.7278 -1.0766  0.0799
  104MOL   H41743883   3.350   4.135   2.143 -0.4769 -1.6870  1.0417
  104MOL   H41843884   3.273   4.146   1.982 -0.4914 -3.9111 -0.5196
  104MOL   H41943885   3.244   4.474   2.156  2.0554  0.6556  1.0622
  104MOL   H42043886   3.348   4.352   2.240 -0.3095  0.1803  1.1581
  104MOL   H42143887   3.355   4.398   2.066 -1.1525  1.1045 -0.9418
  104MOL   H42243888   2.904   4.182   2.185 -0.6377 -0.7170  0.6881
  105MOL     C143889   6.466   4.442   5.478  0.4795  0.8076  0.1045
  105MOL     C243890   6.363   4.392   5.380  0.0748 -0.3792  0.1214
  105MOL     C343891   6.227   4.402   5.443  0.2614  0.0409  0.0523
  105MOL     C443892   6.124   4.511   5.399 -1.0249 -0.2893  0.3249
  105MOL     C543893   6.185   4.654   5.402  0.1404 -0.1449  0.2604
  105MOL     C643894   6.073   4.471   5.261  0.4068 -0.1352  0.0668
  105MOL     C743895   6.003   4.497   5.500 -0.2147  0.4988  0.1986
  105MOL     H843896   6.461   4.383   5.570  2.2768  1.3190  0.5510
  105MOL     H943897   6.568   4.423   5.446  0.6029  1.3432  0.1817
  105MOL    H1043898   6.367   4.455   5.292  1.7333  1.0124  1.1631
  105MOL    H1143899   6.244   4.409   5.551  0.7816 -0.5625  0.0145
  105MOL    H1243900   6.175   4.307   5.432 -1.1965  0.5637  1.9997
  105MOL    H1343901   6.266   4.660   5.329 -0.8012 -0.8951 -0.8663
  105MOL    H1443902   6.230   4.693   5.493  1.6325 -1.4942  0.1199
  105MOL    H1543903   6.109   4.723   5.366 -0.2474 -0.9765 -0.5548
  105MOL    H1643904   6.009   4.546   5.215  0.3424 -1.4075 -1.9821
  105MOL    H1743905   6.163   4.466   5.198 -0.9287  1.7126 -2.0544
  105MOL    H1843906   6.010   4.382   5.259 -2.4502  1.7984  1.1531
  105MOL    H1943907   6.027   4.526   5.603 -0.5625 -0.3642  0.5269
  105MOL    H2043908   5.972   4.394   5.514  1.5581 -0.0149  0.4851
  105MOL    H2143909   5.931   4.562   5.450  0.0509 -1.4016 -2.7227
  105MOL    H2243910   6.470   4.549   5.499 -2.8581  0.8967  0.5994
  105MOL    C2343911   6.380   4.251   5.328 -0.1612  0.2225  0.5050
  105MOL    C2443912   6.531   4.211   5.298  0.2371 -0.2693 -0.4627
  105MOL    C2543913   6.603   4.314   5.201  0.2656 -0.3607 -0.0274
  105MOL    C2643914   6.758   4.319   5.191  0.0166  0.4305  0.3897
  105MOL    C2743915   6.791   4.460   5.137  0.2876 -0.0252 -0.0215
  105MOL    C2843916   6.834   4.300   5.322 -0.3898 -0.1167  0.2847
  105MOL    C2943917   6.815   4.218   5.088 -0.1350 -0.2796 -0.2586
  105MOL    H3043918   6.343   4.173   5.394 -0.3417 -2.0609 -2.1625
  105MOL    H3143919   6.322   4.246   5.236  0.7298  1.5605 -0.1603
  105MOL    H3243920   6.575   4.221   5.397  0.1070 -2.2085 -0.2005
  105MOL    H3343921   6.575   4.415   5.230  1.1604  0.0413 -0.5470
  105MOL    H3443922   6.575   4.301   5.096  0.3146  2.2854 -0.3914
  105MOL    H3543923   6.726   4.541   5.169 -0.2554 -0.0445 -1.0773
  105MOL    H3643924   6.896   4.488   5.149  0.3008  0.4803 -1.2950
  105MOL    H3743925   6.792   4.462   5.028 -2.1420 -0.8832 -0.0903
  105MOL    H3843926   6.938   4.333   5.320 -0.0807 -1.1351 -0.9890
  105MOL    H3943927   6.781   4.341   5.408 -1.3989 -0.6292 -0.0912
  105MOL    H4043928   6.825   4.195   5.349 -1.1911  0.3089  1.7047
  105MOL    H4143929   6.811   4.113   5.119  2.0921 -0.9587 -2.0848
  105MOL    H4243930   6.922   4.229   5.071 -0.2460  2.2109  0.5638
  105MOL    H4343931   6.770   4.220   4.988 -0.0028  1.6984 -0.3008
  105MOL    C4443932   6.535   4.069   5.242  0.1456 -0.1332  0.2859
  105MOL    C4543933   6.503   3.955   5.336  0.1187 -0.1002 -0.3619
  105MOL    C4643934   6.612   3.948   5.448  0.8906 -0.2213  0.7660
  105MOL    C4743935   6.556   3.932   5.594 -0.1549 -0.3810 -1.2609
  105MOL    C4843936   6.504   3.779   5.607 -0.3379  0.0589 -0.5766
  105MOL    C4943937   6.454   4.037   5.635  0.2384 -0.0422  0.6065
  105MOL    C5043938   6.675   3.945   5.687 -0.5026 -0.5729 -0.0540
  105MOL    H5143939   6.469   4.066   5.155  1.1396  0.1407 -0.4913
  105MOL    H5243940   6.634   4.060   5.197  0.1363  1.7714 -0.1582
  105MOL    H5343941   6.404   3.975   5.377 -0.9286 -1.7792 -1.9829
  105MOL    H5443942   6.675   4.037   5.443  1.3966 -0.5577  1.1360
  105MOL    H5543943   6.682   3.870   5.420  0.5016  0.1322 -1.2576
  105MOL    H5643944   6.486   3.743   5.708  2.5274  0.7250  0.2256
  105MOL    H5743945   6.575   3.703   5.573  0.2585  0.1053  0.5451
  105MOL    H5843946   6.410   3.771   5.553 -1.2936 -0.0752  1.0739
  105MOL    H5943947   6.429   4.021   5.740 -1.4977  2.5891  0.6437
  105MOL    H6043948   6.488   4.140   5.628 -1.7639  0.6840  1.1856
  105MOL    H6143949   6.354   4.033   5.593 -1.2653 -0.6608  4.0912
  105MOL    H6243950   6.752   3.872   5.662 -1.7672 -1.7649 -0.5802
  105MOL    H6343951   6.718   4.044   5.675  1.7651 -1.0637  3.4192
  105MOL    H6443952   6.648   3.929   5.791  0.1949 -1.6036 -0.0215
  105MOL    C6543953   6.494   3.820   5.265 -0.0295 -0.4243  0.5150
  105MOL    C6643954   6.404   3.802   5.143  0.3679 -0.1653  0.2455
  105MOL    C6743955   6.258   3.806   5.205 -0.3297  0.7595 -0.0576
  105MOL    C6843956   6.141   3.868   5.122 -0.0829  1.1630 -0.1986
  105MOL    C6943957   6.167   4.018   5.088 -0.5397 -0.1875  0.1232
  105MOL    C7043958   6.113   3.785   4.998 -0.0270 -0.2754  0.4502
  105MOL    C7143959   6.007   3.861   5.212 -0.4660 -0.0113  0.3283
  105MOL    H7243960   6.595   3.802   5.229 -0.4658 -3.6680  0.7523
  105MOL    H7343961   6.481   3.738   5.335 -0.3140 -0.5022  0.3714
  105MOL    H7443962   6.396   3.887   5.075 -2.7131  0.0368  0.7899
  105MOL    H7543963   6.248   3.863   5.297  2.3368 -0.5642  1.1028
  105MOL    H7643964   6.231   3.712   5.253 -2.1043  1.5428  0.5388
  105MOL    H7743965   6.252   4.038   5.023 -1.3973  2.8129 -0.1523
  105MOL    H7843966   6.085   4.065   5.034 -2.1751  0.6813  3.2078
  105MOL    H7943967   6.181   4.076   5.179 -0.9880  1.1341 -0.6418
  105MOL    H8043968   6.179   3.816   4.918 -2.4469  0.5740 -1.2674
  105MOL    H8143969   6.009   3.807   4.974 -0.3756 -1.0332  1.2201
  105MOL    H8243970   6.126   3.682   5.032 -0.6738 -0.8713 -1.0712
  105MOL    H8343971   5.999   3.756   5.241  3.2614 -0.3175  0.4725
  105MOL    H8443972   5.923   3.885   5.147 -1.3676 -0.3496  1.3510
  105MOL    H8543973   6.020   3.930   5.296  0.8635  0.8448 -0.5690
  105MOL    C8643974   6.421   3.668   5.066  1.0892 -0.1604  0.5260
  105MOL    C8743975   6.500   3.693   4.938  0.7736  0.0743 -0.3147
  105MOL    C8843976   6.513   3.568   4.848 -0.4522  0.2509  0.5499
  105MOL    C8943977   6.392   3.498   4.774  0.2058 -0.7461  0.1686
  105MOL    C9043978   6.329   3.608   4.680 -0.2226 -0.1260 -0.3324
  105MOL    C9143979   6.283   3.437   4.862 -0.3029 -0.1997 -0.3800
  105MOL    C9243980   6.453   3.388   4.690 -0.4219 -0.1809  0.7084
  105MOL    H9343981   6.331   3.610   5.050  0.5096  0.7122  0.5724
  105MOL    H9443982   6.474   3.593   5.125  1.7109 -0.6893 -0.6778
  105MOL    H9543983   6.450   3.773   4.883  2.5134  1.5019  0.1284
  105MOL    H9643984   6.569   3.493   4.903 -0.6079  0.4513  0.9768
  105MOL    H9743985   6.583   3.600   4.770  0.4997 -0.9131  0.9181
  105MOL    H9843986   6.240   3.567   4.633  0.0753 -0.1456 -0.8776
  105MOL    H9943987   6.387   3.639   4.594 -0.4548  1.9546  0.2238
  105MOL   H10043988   6.300   3.698   4.735 -2.2885 -0.6218 -0.5668
  105MOL   H10143989   6.227   3.363   4.805 -0.6621 -0.2493  0.0429
  105MOL   H10243990   6.322   3.383   4.948  1.5006 -1.2311 -1.7975
  105MOL   H10343991   6.206   3.507   4.894  0.5298 -0.3848  2.0925
  105MOL   H10443992   6.519   3.325   4.750 -2.2203 -1.3100  1.5322
  105MOL   H10543993   6.385   3.315   4.647 -1.7993  0.0403  2.4444
  105MOL   H10643994   6.518   3.429   4.612  0.4736 -0.4144  1.3243
  105MOL   C10743995   6.634   3.758   4.978  0.3972  0.1648 -0.2521
  105MOL   C10843996   6.734   3.785   4.860 -0.7186 -0.5705  0.0249
  105MOL   C10943997   6.666   3.876   4.751  0.4872 -0.0378 -0.6878
  105MOL   C11043998   6.716   3.882   4.602 -0.7521  0.4526  0.4082
  105MOL   C11143999   6.618   3.967   4.528  0.1607 -0.0105 -0.6941
  105MOL   C11244000   6.716   3.744   4.538  0.2212 -0.1907 -0.3383
  105MOL   C11344001   6.857   3.945   4.585 -0.0729  0.2515 -0.2167
  105MOL   H11444002   6.681   3.707   5.062 -0.6922  0.7010  0.6914
  105MOL   H11544003   6.620   3.860   5.015 -0.4017  0.1322 -0.4617
  105MOL   H11644004   6.751   3.689   4.810  2.0099 -1.1818  2.0216
  105MOL   H11744005   6.562   3.845   4.751 -0.1451  1.9136  1.5375
  105MOL   H11844006   6.660   3.979   4.787  0.4018  0.3652 -1.8237
  105MOL   H11944007   6.630   4.067   4.570  0.1319 -0.6456  0.8951
  105MOL   H12044008   6.633   3.979   4.421  2.2285 -1.1373 -0.5524
  105MOL   H12144009   6.517   3.928   4.539  0.0475  0.4867  0.1062
  105MOL   H12244010   6.622   3.697   4.569 -0.1205  0.5363 -0.2491
  105MOL   H12344011   6.802   3.688   4.573 -0.2433 -1.1148 -0.6397
  105MOL   H12444012   6.718   3.746   4.429 -1.7641 -0.6477 -0.4102
  105MOL   H12544013   6.870   4.037   4.642  0.5999  1.1124 -1.7155
  105MOL   H12644014   6.878   3.968   4.480 -0.0328  0.5942 -0.1350
  105MOL   H12744015   6.940   3.885   4.622 -0.7850 -0.8900 -0.4548
  105MOL   C12844016   6.867   3.836   4.915 -0.1725 -0.7664 -0.3920
  105MOL   C12944017   6.974   3.735   4.968  0.4544  0.2666  0.2161
  105MOL   C13044018   6.943   3.654   5.098 -0.4007 -0.0953 -0.6768
  105MOL   C13144019   6.975   3.715   5.236  0.5791 -0.0152 -0.2396
  105MOL   C13244020   7.130   3.706   5.263 -0.1771 -0.0112 -0.2470
  105MOL   C13344021   6.912   3.639   5.351  0.0959  0.1571  0.1095
  105MOL   C13444022   6.936   3.866   5.249 -0.0908  0.1722  0.1956
  105MOL   H13544023   6.858   3.915   4.989 -0.3585  0.3822 -1.6190
  105MOL   H13644024   6.915   3.905   4.845 -0.0657  0.6339  1.0314
  105MOL   H13744025   7.065   3.790   4.993  1.2935 -1.0776  0.1743
  105MOL   H13844026   6.844   3.610   5.091  1.1292 -3.8762  0.1744
  105MOL   H13944027   7.010   3.568   5.104  1.2382  1.1048 -1.1705
  105MOL   H14044028   7.184   3.768   5.191  0.0337 -2.6843 -2.4791
  105MOL   H14144029   7.167   3.607   5.236  0.5318  0.6277 -1.6977
  105MOL   H14244030   7.163   3.728   5.365 -0.8537  0.5190 -0.1387
  105MOL   H14344031   6.962   3.543   5.348  0.1961  0.1703  1.0273
  105MOL   H14444032   6.806   3.615   5.345  0.5074 -1.4160 -1.0418
  105MOL   H14544033   6.924   3.668   5.456  0.5771  0.3193  0.0122
  105MOL   H14644034   6.959   3.908   5.347  0.1875  1.1209 -0.2724
  105MOL   H14744035   6.981   3.925   5.170 -0.0841 -0.0754  0.0142
  105MOL   H14844036   6.827   3.870   5.249 -0.0929  0.1756 -0.5746
  105MOL   C14944037   7.012   3.644   4.856  0.6386  0.1935  0.0930
  105MOL   C15044038   7.156   3.588   4.867 -0.7541 -0.1530  0.0268
  105MOL   C15144039   7.167   3.454   4.777  0.0630  0.4317  0.3571
  105MOL   C15244040   7.148   3.305   4.836 -0.9752 -0.2827  0.0451
  105MOL   C15344041   7.008   3.284   4.895  0.0131 -0.1365 -0.2514
  105MOL   C15444042   7.249   3.291   4.950  0.4145 -0.8479 -0.0272
  105MOL   C15544043   7.181   3.198   4.723  0.5772  0.0774  0.1383
  105MOL   H15644044   7.000   3.693   4.760 -1.2965  1.7464  1.0867
  105MOL   H15744045   6.939   3.563   4.865  0.2624  0.6769  1.5523
  105MOL   H15844046   7.183   3.556   4.967  0.4654 -2.2005 -0.9154
  105MOL   H15944047   7.276   3.452   4.763  0.2223  2.3972  1.2028
  105MOL   H16044048   7.113   3.463   4.683  1.0797 -1.5951 -0.4531
  105MOL   H16144049   7.001   3.182   4.933 -3.5371  0.2972  0.4584
  105MOL   H16244050   7.001   3.345   4.985  0.3249  0.8684 -0.8991
  105MOL   H16344051   6.926   3.293   4.823  0.5212  1.5208 -0.6425
  105MOL   H16444052   7.244   3.361   5.034  0.0285  0.3938 -1.0661
  105MOL   H16544053   7.350   3.310   4.914 -0.0852  2.4388  0.1035
  105MOL   H16644054   7.269   3.190   4.987  0.8225 -0.6020  0.4431
  105MOL   H16744055   7.208   3.093   4.735 -0.4910  0.0152  2.1698
  105MOL   H16844056   7.103   3.189   4.649 -0.6976  0.3304  1.4241
  105MOL   H16944057   7.259   3.225   4.652  0.0717  1.6252  0.1372
  105MOL   C17044058   7.254   3.690   4.800  0.0549  0.0806 -0.3169
  105MOL   C17144059   7.369   3.755   4.888  0.1298 -0.3433  0.5265
  105MOL   C17244060   7.425   3.877   4.798  0.8064  0.3275  0.6269
  105MOL   C17344061   7.361   4.020   4.819 -0.3426  0.3860 -0.0606
  105MOL   C17444062   7.417   4.092   4.938  0.0796  0.2095  0.2807
  105MOL   C17544063   7.207   4.024   4.840 -0.4413  0.6014  0.4016
  105MOL   C17644064   7.389   4.094   4.690 -0.0238 -0.2733 -0.1857
  105MOL   H17744065   7.197   3.776   4.763  0.9802  0.9224  0.1832
  105MOL   H17844066   7.299   3.654   4.708  2.0410 -1.4312  1.1962
  105MOL   H17944067   7.324   3.796   4.978  0.1667 -0.8970  0.7980
  105MOL   H18044068   7.532   3.881   4.818  0.8911  2.2101 -0.1343
  105MOL   H18144069   7.431   3.852   4.692  0.8331  1.2673  0.4026
  105MOL   H18244070   7.525   4.084   4.925 -0.1461  1.5649 -3.0649
  105MOL   H18344071   7.387   4.195   4.955 -0.8380 -0.3505  2.1926
  105MOL   H18444072   7.396   4.047   5.035  0.9667 -0.3087  0.2455
  105MOL   H18544073   7.155   3.992   4.750  0.1890 -1.3104  0.6911
  105MOL   H18644074   7.161   3.952   4.908 -4.0217 -0.7733 -3.2419
  105MOL   H18744075   7.175   4.123   4.869 -1.0543  0.2210  1.0260
  105MOL   H18844076   7.497   4.096   4.676  0.0573  4.1950  0.2677
  105MOL   H18944077   7.340   4.049   4.603  1.8525 -1.9369 -0.4223
  105MOL   H19044078   7.358   4.199   4.688  1.0045  0.0278 -2.0127
  105MOL   C19144079   7.479   3.651   4.927 -0.0327 -0.1610  0.4704
  105MOL   C19244080   7.585   3.700   5.028  0.6379 -0.8108 -0.5015
  105MOL   C19344081   7.717   3.619   5.031  0.4705 -0.4186  0.0680
  105MOL   C19444082   0.073   3.664   4.955  0.8369  1.1591  0.3028
  105MOL   C19544083   0.053   3.689   4.803 -0.0417  0.3211 -0.0349
  105MOL   C19644084   0.177   3.551   4.972  1.0740  0.5080  0.4368
  105MOL   C19744085   0.140   3.785   5.022  0.3674  0.0917  0.7899
  105MOL   H19844086   7.436   3.562   4.974  0.1438 -1.0436 -1.0137
  105MOL   H19944087   7.527   3.616   4.836 -0.9541 -1.2004  0.3672
  105MOL   H20044088   7.628   3.797   5.004 -0.6274  0.2492  1.3618
  105MOL   H20144089   7.695   3.520   4.990 -1.8557 -0.5361  1.5237
  105MOL   H20244090   7.744   3.597   5.134 -0.5994  1.5520  0.7819
  105MOL   H20344091   7.754   3.774   4.782 -1.2654 -0.8417 -1.0083
  105MOL   H20444092   0.152   3.702   4.760  0.2601 -3.2198 -0.4927
  105MOL   H20544093   0.015   3.603   4.749  2.1564 -0.2085 -0.7644
  105MOL   H20644094   0.265   3.589   4.920  1.2406  0.2361  0.5154
  105MOL   H20744095   0.208   3.530   5.074 -0.4608 -0.8142  0.6469
  105MOL   H20844096   0.138   3.464   4.919 -0.2810  1.9818 -1.0286
  105MOL   H20944097   0.064   3.862   5.036  0.0202 -0.0524 -0.2874
  105MOL   H21044098   0.189   3.763   5.117 -0.3496  0.6932  1.3111
  105MOL   H21144099   0.206   3.838   4.954  2.0517 -2.4613  0.3884
  105MOL   C21244100   7.524   3.706   5.176  0.3449  1.1849  0.0591
  105MOL   C21344101   7.601   3.809   5.275 -0.1966  0.4196  0.4518
  105MOL   C21444102   7.572   3.772   5.424  0.5947 -0.3994  0.4649
  105MOL   C21544103   7.670   3.698   5.514 -0.2584 -0.8687  0.3110
  105MOL   C21644104   0.047   3.766   5.511  0.3093 -0.0651 -0.2649
  105MOL   C21744105   7.621   3.700   5.662 -0.1874  0.2423  0.4138
  105MOL   C21844106   7.702   3.553   5.471  0.0491  0.4720 -1.1078
  105MOL   H21944107   7.426   3.754   5.176 -0.1607  0.2763  3.4402
  105MOL   H22044108   7.512   3.607   5.221  2.4960  0.0748 -1.6834
  105MOL   H22144109   7.707   3.792   5.258 -0.2232 -0.7138  1.3626
  105MOL   H22244110   7.474   3.726   5.422  0.4860 -0.1957  1.1196
  105MOL   H22344111   7.561   3.862   5.484 -2.1580  0.2220 -0.9044
  105MOL   H22444112   0.038   3.863   5.560  0.4313 -0.9629  1.6107
  105MOL   H22544113   0.104   3.776   5.419  0.5022  0.6948 -0.0606
  105MOL   H22644114   0.107   3.706   5.580  1.0550 -0.9106 -1.6468
  105MOL   H22744115   7.513   3.691   5.674 -0.0366  0.0957  1.6636
  105MOL   H22844116   7.676   3.630   5.725  0.4097 -0.0756 -0.4432
  105MOL   H22944117   7.634   3.799   5.705  0.1907  0.4153 -0.0931
  105MOL   H23044118   7.608   3.501   5.450  1.0278 -1.2887 -1.2151
  105MOL   H23144119   7.744   3.497   5.554 -1.1201  0.4134 -0.5414
  105MOL   H23244120   0.001   3.531   5.386  2.0497  1.5409  0.1111
  105MOL   C23344121   7.557   3.950   5.243  0.7691 -0.7932  0.6753
  105MOL   C23444122   7.650   4.060   5.305  0.0238  0.2149 -0.0398
  105MOL   C23544123   0.014   4.069   5.216 -0.6427  0.0966 -0.0005
  105MOL   C23644124   0.140   4.153   5.255 -1.2016 -1.2136  0.1680
  105MOL   C23744125   0.157   4.169   5.407 -0.2345  0.3201  0.3614
  105MOL   C23844126   0.267   4.081   5.201 -0.6371 -0.5680  0.1685
  105MOL   C23944127   0.130   4.291   5.198  0.6323  0.5199 -0.1318
  105MOL   H24044128   7.455   3.969   5.275  1.1024 -0.0608  1.3306
  105MOL   H24144129   7.565   3.957   5.134 -0.8688 -0.3114  0.5745
  105MOL   H24244130   7.680   4.007   5.395 -0.9604 -0.5703 -0.1722
  105MOL   H24344131   0.053   3.967   5.213 -0.4187  0.2391 -2.8326
  105MOL   H24444132   7.751   4.101   5.116 -0.7329 -0.5324 -0.1750
  105MOL   H24544133   0.063   4.194   5.455 -0.1801  0.1507  0.5531
  105MOL   H24644134   0.233   4.241   5.439  0.0715  0.9544 -1.6646
  105MOL   H24744135   0.179   4.072   5.450 -1.6285  0.3298  1.1241
  105MOL   H24844136   0.354   4.122   5.252 -1.4282  0.5011  0.6777
  105MOL   H24944137   0.275   3.978   5.234 -0.0574 -0.7131 -0.3961
  105MOL   H25044138   0.289   4.097   5.095 -1.5176  1.8990  0.3277
  105MOL   H25144139   0.232   4.329   5.193  0.7943 -0.0347 -1.1804
  105MOL   H25244140   0.095   4.295   5.094  1.3267 -0.5772 -0.4093
  105MOL   H25344141   0.072   4.367   5.250  1.0087  0.7731 -0.0769
  105MOL   C25444142   7.579   4.198   5.308  0.3934  0.0803  0.0167
  105MOL   C25544143   7.453   4.211   5.402  0.0870 -0.1921  0.4446
  105MOL   C25644144   7.380   4.350   5.387 -0.1214  0.4139 -0.1904
  105MOL   C25744145   7.301   4.377   5.256  0.1968  0.1074 -0.1077
  105MOL   C25844146   7.191   4.480   5.279 -0.2526  0.4242  0.2725
  105MOL   C25944147   7.243   4.243   5.204  0.6125  0.4524  0.1565
  105MOL   C26044148   7.380   4.440   5.143 -0.1107 -0.1296 -0.7232
  105MOL   H26144149   7.550   4.214   5.204 -0.7066 -0.4974  0.2256
  105MOL   H26244150   7.651   4.276   5.332 -0.9318  0.3052  3.5003
  105MOL   H26344151   7.381   4.130   5.391  1.1617 -0.9755 -1.0006
  105MOL   H26444152   7.302   4.359   5.462 -0.3522  2.2168 -0.6248
  105MOL   H26544153   7.453   4.424   5.419 -0.7922  1.1324 -0.3258
  105MOL   H26644154   7.103   4.488   5.215  1.0016  1.1748 -1.4131
  105MOL   H26744155   7.226   4.583   5.286  0.1490  0.2144  1.3939
  105MOL   H26844156   7.150   4.466   5.379 -0.8717  1.3562  0.1520
  105MOL   H26944157   7.196   4.239   5.105 -0.7676 -0.7455  0.8432
  105MOL   H27044158   7.172   4.198   5.274  0.3444  0.2657 -0.2305
  105MOL   H27144159   7.323   4.175   5.175  2.7038  3.4067 -1.2530
  105MOL   H27244160   7.469   4.499   5.168  0.8219 -1.2216 -1.3855
  105MOL   H27344161   7.427   4.362   5.082 -1.6728  0.1592 -2.3319
  105MOL   H27444162   7.319   4.499   5.075  0.8949  1.8101  0.0118
  105MOL   C27544163   7.498   4.195   5.547 -0.0494  0.1135 -0.6220
  105MOL   C27644164   7.393   4.185   5.664  0.1187 -0.4987 -0.2307
  105MOL   C27744165   7.297   4.063   5.660  0.4438  0.0165  0.6530
  105MOL   C27844166   7.145   4.068   5.694  0.1342 -0.0614  0.8892
  105MOL   C27944167   7.062   4.158   5.604 -0.0691 -0.3878 -0.3831
  105MOL   C28044168   7.086   3.921   5.688 -0.4008 -0.1229  0.2525
  105MOL   C28144169   7.131   4.112   5.842 -0.5739 -0.4822  0.5271
  105MOL   H28244170   7.544   4.097   5.555 -1.1001 -0.4239 -1.0779
  105MOL   H28344171   7.575   4.267   5.575  1.1661 -0.9198 -1.2862
  105MOL   H28444172   7.343   4.281   5.651 -0.5382 -0.6237  1.3366
  105MOL   H28544173   7.351   3.983   5.710  0.5155 -0.8822 -0.8456
  105MOL   H28644174   7.293   4.028   5.557  0.6256  0.8245  0.3661
  105MOL   H28744175   6.957   4.130   5.615 -0.6612  1.1618 -1.9461
  105MOL   H28844176   7.086   4.256   5.645  0.9951 -1.0493  0.5918
  105MOL   H28944177   7.080   4.159   5.496  0.1403  0.5490 -0.3370
  105MOL   H29044178   6.987   3.931   5.732  0.1709 -2.5522  2.2334
  105MOL   H29144179   7.134   3.848   5.753 -1.3976 -3.0693 -2.2246
  105MOL   H29244180   7.085   3.872   5.590  2.7114 -0.7506  0.4778
  105MOL   H29344181   7.036   4.080   5.887 -0.1043 -0.2537  1.7129
  105MOL   H29444182   7.141   4.220   5.856 -3.9317  0.2213 -1.7662
  105MOL   H29544183   7.199   4.053   5.904 -1.8058  0.4500  2.8465
  105MOL   C29644184   7.464   4.188   5.802 -0.0467 -0.4866 -0.0927
  105MOL   C29744185   7.528   4.319   5.849  0.4412 -0.8804  0.7663
  105MOL   C29844186   7.622   4.298   5.974  0.3345 -0.5419  0.0140
  105MOL   C29944187   7.739   4.196   5.968  0.4073  0.6664 -0.1574
  105MOL   C30044188   0.038   4.193   5.828 -0.3859 -0.0063  0.3243
  105MOL   C30144189   0.084   4.243   6.064  0.3752 -0.2775 -0.0336
  105MOL   C30244190   7.693   4.054   6.022  0.2773  0.2616  0.9246
  105MOL   H30344191   7.530   4.102   5.802 -0.3566 -0.7259 -0.1540
  105MOL   H30444192   7.394   4.173   5.885  2.7194  0.7746  2.5630
  105MOL   H30544193   7.597   4.347   5.769 -0.2637  2.8981  1.3862
  105MOL   H30644194   7.557   4.269   6.057 -1.0254  0.6898 -0.5932
  105MOL   H30744195   7.669   4.390   6.008 -0.7992  0.2752 -0.5896
  105MOL   H30844196   7.744   4.163   5.742 -0.9060  2.2154 -0.1363
  105MOL   H30944197   0.087   4.286   5.796  0.3505  0.4278  2.5783
  105MOL   H31044198   0.121   4.122   5.830 -1.4491 -1.2374  1.4433
  105MOL   H31144199   0.165   4.171   6.073  1.8746  1.6101  2.2719
  105MOL   H31244200   0.126   4.340   6.035  0.6925 -0.8485 -1.5220
  105MOL   H31344201   0.039   4.256   6.163 -1.0197  1.3691 -0.8565
  105MOL   H31444202   7.628   3.997   5.956  2.2082  0.5905 -1.3435
  105MOL   H31544203   0.007   3.988   6.056  0.0590  0.7101  2.3430
  105MOL   H31644204   7.628   4.075   6.107 -2.3036  4.0920 -1.8079
  105MOL   C31744205   7.432   4.447   5.862  0.0175  0.2422 -0.6597
  105MOL   C31844206   7.467   4.585   5.788  0.6051 -0.2362 -0.0094
  105MOL   C31944207   7.352   4.685   5.830  0.5634 -0.6056  0.6479
  105MOL   C32044208   7.250   4.713   5.722  0.5748 -0.3118  0.1023
  105MOL   C32144209   7.142   4.794   5.786 -0.5713  0.1004 -0.4609
  105MOL   C32244210   7.188   4.576   5.682 -0.1901  0.3577 -0.1330
  105MOL   C32344211   7.302   4.788   5.597  0.0551 -0.2609 -0.2149
  105MOL   H32444212   7.339   4.402   5.826  0.2530 -0.5136 -0.3300
  105MOL   H32544213   7.421   4.466   5.968 -2.0894 -3.3075 -0.1640
  105MOL   H32644214   7.467   4.575   5.679 -0.6163  0.5172 -0.0991
  105MOL   H32744215   7.395   4.785   5.846 -1.1373  0.7007 -2.5212
  105MOL   H32844216   7.302   4.660   5.924  1.9945  1.3622  1.9846
  105MOL   H32944217   7.166   4.900   5.795  0.8855 -0.1290 -1.4083
  105MOL   H33044218   7.116   4.758   5.886 -0.4045 -1.2813 -0.9110
  105MOL   H33144219   7.045   4.787   5.736 -1.0330 -0.4080  0.4957
  105MOL   H33244220   7.148   4.511   5.760  0.0076  0.4048  0.0054
  105MOL   H33344221   7.097   4.594   5.623 -1.0620 -0.0006  1.0805
  105MOL   H33444222   7.241   4.508   5.616 -0.6492 -0.0918 -0.0486
  105MOL   H33544223   7.219   4.807   5.529  0.1897  0.7986 -0.0912
  105MOL   H33644224   7.371   4.725   5.542 -0.6966 -1.5184  0.2399
  105MOL   H33744225   7.347   4.887   5.594 -0.3315 -0.0885 -0.3063
  105MOL   C33844226   7.611   4.630   5.827 -0.3434  0.5582 -0.6989
  105MOL   C33944227   7.662   4.754   5.762 -0.3783  0.1975 -0.5362
  105MOL   C34044228   0.029   4.735   5.695  0.2803 -0.1555 -1.0919
  105MOL   C34144229   0.042   4.662   5.561  1.1103 -0.1827  0.9253
  105MOL   C34244230   7.765   4.509   5.552  0.2164  0.1068  0.0427
  105MOL   C34344231   7.735   4.742   5.452  0.0210  0.0152  0.3103
  105MOL   C34444232   0.191   4.658   5.535 -0.7461 -0.4391 -0.1826
  105MOL   H34544233   7.674   4.549   5.790 -2.2935 -1.9522  1.2497
  105MOL   H34644234   7.612   4.627   5.936  0.4169 -0.3658 -0.7214
  105MOL   H34744235   7.590   4.771   5.682 -1.4654  3.1274  0.9641
  105MOL   H34844236   0.087   4.687   5.773  0.5551  1.5757 -0.2107
  105MOL   H34944237   0.067   4.836   5.679  0.6794 -0.3789 -1.5664
  105MOL   H35044238   0.049   4.453   5.632 -0.3239 -0.0230  0.2961
  105MOL   H35144239   7.656   4.501   5.562  0.1426  0.4311 -0.4710
  105MOL   H35244240   0.029   4.458   5.460 -0.4257 -0.6239  0.2287
  105MOL   H35344241   0.001   4.845   5.438  1.3301 -0.3668  0.4029
  105MOL   H35444242   7.749   4.687   5.358 -2.6885 -1.7702  0.8981
  105MOL   H35544243   7.629   4.734   5.475 -0.8218 -0.3990 -3.3659
  105MOL   H35644244   0.213   4.610   5.440 -2.1480 -0.6176 -0.4260
  105MOL   H35744245   0.226   4.761   5.538 -1.4587 -0.2144  0.4966
  105MOL   H35844246   0.240   4.591   5.606  0.7058 -3.7124 -4.1033
  105MOL   C35944247   7.658   4.881   5.864  0.0956  1.0300  0.2869
  105MOL   C36044248   7.701   5.025   5.809  0.7421 -0.1141  0.3732
  105MOL   C36144249   7.691   5.139   5.915  0.2486  0.4770 -0.3645
  105MOL   C36244250   0.049   5.187   5.998  0.1222 -0.4045 -0.0119
  105MOL   C36344251   0.116   5.060   6.065  0.2540 -0.1979  0.5064
  105MOL   C36444252   0.001   5.283   6.107  0.7952  1.1981 -0.4371
  105MOL   C36544253   0.147   5.273   5.912 -0.4982 -0.5294  0.0454
  105MOL   H36644254   7.725   4.845   5.942 -0.6966  0.2420  0.6058
  105MOL   H36744255   7.565   4.881   5.919  1.8448 -1.7462  3.4490
  105MOL   H36844256   0.039   5.026   5.775  0.8847  2.6120  0.7539
  105MOL   H36944257   7.661   5.230   5.864 -0.6951 -0.2013 -1.0372
  105MOL   H37044258   7.609   5.112   5.982 -0.7499  0.5554 -1.5292
  105MOL   H37144259   0.052   5.011   6.138  1.0039 -1.1813  0.5034
  105MOL   H37244260   0.137   4.975   6.000  2.6451 -1.6194  3.0257
  105MOL   H37344261   0.206   5.069   6.125  0.8859 -1.9493 -0.1486
  105MOL   H37444262   0.062   5.301   6.196 -1.2120  0.7233  1.0865
  105MOL   H37544263   7.676   5.255   6.160  1.0829 -1.5817 -1.3704
  105MOL   H37644264   7.740   5.380   6.065  0.7886  0.5958 -1.8336
  105MOL   H37744265   0.202   5.228   5.830  2.6942  0.9006  1.3180
  105MOL   H37844266   0.225   5.305   5.981 -0.8537  0.9762 -0.2388
  105MOL   H37944267   0.095   5.355   5.863  2.8416  0.3939 -2.1004
  105MOL   C38044268   7.614   5.059   5.680 -0.2765 -0.5949 -0.1274
  105MOL   C38144269   7.679   5.167   5.586 -0.2606 -0.2908  0.1787
  105MOL   C38244270   7.579   5.238   5.494  0.3206  0.2822  0.2952
  105MOL   C38344271   7.509   5.372   5.543 -0.2275 -0.2546  0.0017
  105MOL   C38444272   7.422   5.337   5.666  0.7874  0.0432  0.2058
  105MOL   C38544273   7.425   5.423   5.426  0.3197  0.6208  0.4807
  105MOL   C38644274   7.609   5.481   5.570  0.5148  0.6379 -0.1018
  105MOL   H38744275   7.517   5.095   5.715  0.0863  1.1124 -0.8030
  105MOL   H38844276   7.597   4.974   5.615 -0.6278 -0.4096 -0.2760
  105MOL   H38944277   7.716   5.234   5.663 -2.7361  0.6197  0.6448
  105MOL   H39044278   7.635   5.263   5.404  3.0372  2.1562  2.4211
  105MOL   H39144279   7.508   5.163   5.459 -0.8339  1.0106  1.0692
  105MOL   H39244280   7.341   5.266   5.648  0.4052  0.0034  1.9928
  105MOL   H39344281   7.491   5.315   5.748 -0.5981 -2.3531  0.7680
  105MOL   H39444282   7.367   5.425   5.698 -0.1147  0.9079 -3.5415
  105MOL   H39544283   7.366   5.514   5.441 -0.9190 -0.3970  1.9619
  105MOL   H39644284   7.364   5.347   5.378  1.0874  1.7387 -2.3650
  105MOL   H39744285   7.495   5.462   5.352 -1.0341  0.2658 -1.0069
  105MOL   H39844286   7.666   5.502   5.480 -0.1151  1.0140 -0.4138
  105MOL   H39944287   7.689   5.464   5.643  3.9476  0.5444 -3.7381
  105MOL   H40044288   7.553   5.570   5.598 -0.0280 -0.1516  1.3850
  105MOL   C40144289   0.035   5.113   5.504 -0.1298  0.4631  1.2571
  105MOL   C40244290   0.133   5.217   5.451  0.0356  0.8332  0.6038
  105MOL   C40344291   0.274   5.166   5.410 -0.7590  0.0641 -0.2786
  105MOL   C40444292   0.383   5.269   5.390 -0.1642 -0.8667 -0.1297
  105MOL   C40544293   0.369   5.335   5.249  0.4044 -0.1561  0.1451
  105MOL   C40644294   0.518   5.200   5.385 -0.6571 -0.6219 -0.0458
  105MOL   C40744295   0.389   5.369   5.508  0.1665  0.0551 -0.1356
  105MOL   H40844296   0.084   5.043   5.570  0.0317  0.3857  1.0563
  105MOL   H40944297   7.764   5.056   5.419  1.3853 -0.2825  1.0734
  105MOL   H41044298   0.076   5.266   5.372 -0.6317  1.0831  1.2405
  105MOL   H41144299   0.258   5.094   5.329 -0.0781 -0.5004  0.0788
  105MOL   H41244300   0.300   5.092   5.487  0.4835  1.2090  0.4211
  105MOL   H41344301   0.458   5.393   5.226  0.8480 -1.2498 -0.9775
  105MOL   H41444302   0.294   5.413   5.238  2.1112  1.3720 -0.8862
  105MOL   H41544303   0.361   5.261   5.169 -1.2613  2.2411 -1.9892
  105MOL   H41644304   0.516   5.136   5.297  1.1432 -0.4297 -0.2586
  105MOL   H41744305   0.531   5.118   5.456  1.4829 -1.5852 -1.5063
  105MOL   H41844306   0.596   5.277   5.376 -0.8856 -0.4336 -0.4370
  105MOL   H41944307   0.311   5.444   5.519  1.8125  1.7500  0.2852
  105MOL   H42044308   0.406   5.317   5.603 -0.8009 -1.4441 -0.7681
  105MOL   H42144309   0.481   5.426   5.506 -0.4652  1.1361  1.1178
  105MOL   H42244310   0.141   5.297   5.524  1.2597  1.3869 -0.1105
  106MOL     C144311   2.967   5.596   5.780  0.0417 -0.0397 -0.5157
  106MOL     C244312   2.887   5.698   5.870  0.2025  0.4529 -0.0151
  106MOL     C344313   2.760   5.621   5.918  0.2231  0.1459  0.4796
  106MOL     C444314   2.736   5.589   6.070 -0.6324  0.1163 -0.2215
  106MOL     C544315   2.619   5.487   6.083 -0.7002 -0.1635  0.2526
  106MOL     C644316   2.861   5.515   6.123  0.2646 -0.7231 -0.0931
  106MOL     C744317   2.702   5.717   6.152 -0.3434 -0.1201 -0.9204
  106MOL     H844318   2.984   5.519   5.855  0.1908 -0.9083 -1.4201
  106MOL     H944319   2.918   5.548   5.695  0.9748 -1.7913 -0.0957
  106MOL    H1044320   2.948   5.724   5.957  1.0555 -1.2301 -0.1067
  106MOL    H1144321   2.740   5.527   5.866  1.7592 -0.6710  1.3318
  106MOL    H1244322   2.669   5.670   5.882  0.5578  0.6206  0.2806
  106MOL    H1344323   2.625   5.404   6.012 -3.0045 -1.2618  1.2868
  106MOL    H1444324   2.522   5.532   6.062  0.6107  2.0501 -1.3599
  106MOL    H1544325   2.604   5.440   6.180  2.0162  2.0800  1.8385
  106MOL    H1644326   2.946   5.584   6.118  0.7634 -1.2651  0.6279
  106MOL    H1744327   2.863   5.483   6.227 -0.2203 -0.3309  0.0365
  106MOL    H1844328   2.877   5.427   6.060  0.2747 -2.4955  2.3133
  106MOL    H1944329   2.608   5.758   6.118 -0.1066  2.1932  1.0122
  106MOL    H2044330   2.780   5.793   6.158 -0.7955  0.1825  2.8764
  106MOL    H2144331   2.668   5.690   6.253  1.9074 -3.5049 -0.9724
  106MOL    H2244332   3.061   5.632   5.737  1.4130  2.3975  4.1631
  106MOL    C2344333   2.858   5.827   5.789  0.1477 -0.6177  0.3272
  106MOL    C2444334   2.970   5.942   5.786  0.4850  0.3056  0.4148
  106MOL    C2544335   2.985   6.003   5.928 -0.1844  0.1812 -0.1419
  106MOL    C2644336   3.125   6.002   5.993 -0.6094  0.0106 -0.2104
  106MOL    C2744337   3.222   6.081   5.900  0.3487 -0.2509 -0.2723
  106MOL    C2844338   3.113   6.075   6.138 -0.0897  0.5747  0.2910
  106MOL    C2944339   3.182   5.865   6.020  0.3126  0.1600 -0.8416
  106MOL    H3044340   2.815   5.808   5.690  0.5109  0.8604 -0.1181
  106MOL    H3144341   2.772   5.874   5.836  1.6683  0.3545  2.2004
  106MOL    H3244342   3.064   5.893   5.759 -1.1638 -2.3016 -0.7924
  106MOL    H3344343   2.923   5.954   6.002  1.0531 -0.0727  0.7485
  106MOL    H3444344   2.936   6.100   5.934 -2.4460 -1.0752  2.6357
  106MOL    H3544345   3.258   6.028   5.812  0.5246  0.7404 -0.8054
  106MOL    H3644346   3.177   6.173   5.863 -1.6701 -0.3815  1.7238
  106MOL    H3744347   3.307   6.101   5.966 -1.0275  0.0439  1.4509
  106MOL    H3844348   3.036   6.040   6.206  0.6360 -1.6932 -0.0198
  106MOL    H3944349   3.202   6.087   6.200 -0.0948 -1.0011  0.6231
  106MOL    H4044350   3.089   6.180   6.119 -3.6609 -0.4007 -1.0778
  106MOL    H4144351   3.103   5.817   6.077  0.5638  0.2077 -0.4551
  106MOL    H4244352   3.265   5.871   6.090 -1.4649  0.6164  1.2888
  106MOL    H4344353   3.207   5.817   5.925  0.9902 -1.2206  0.0166
  106MOL    C4444354   2.929   6.045   5.676 -0.4115  0.1767 -0.0826
  106MOL    C4544355   2.998   6.033   5.538  0.0187  0.7813  0.3364
  106MOL    C4644356   2.957   6.158   5.453  0.1434 -0.4372  0.4326
  106MOL    C4744357   3.045   6.288   5.463 -0.3945  0.0462 -0.0507
  106MOL    C4844358   3.058   6.351   5.606  0.3863 -0.0834 -0.6870
  106MOL    C4944359   2.978   6.403   5.375  0.4557  1.0100 -0.3062
  106MOL    C5044360   3.190   6.251   5.398  0.8899 -0.7569 -0.1910
  106MOL    H5144361   2.822   6.037   5.657 -0.5687 -0.2471  0.9474
  106MOL    H5244362   2.960   6.143   5.714  1.9458 -0.1815 -1.0027
  106MOL    H5344363   3.106   6.031   5.554  0.4215 -0.6950 -2.3088
  106MOL    H5444364   2.855   6.189   5.477 -0.1606 -2.3875  1.7538
  106MOL    H5544365   2.943   6.137   5.347 -2.6449 -1.4991  0.9653
  106MOL    H5644366   2.960   6.381   5.645  1.3833  2.9016 -0.3964
  106MOL    H5744367   3.128   6.434   5.603 -0.1567  0.3289 -2.4642
  106MOL    H5844368   3.110   6.271   5.660 -1.0869 -1.8029 -1.7277
  106MOL    H5944369   3.042   6.490   5.364 -1.4794  2.6669  1.2402
  106MOL    H6044370   2.966   6.367   5.272  1.5068  0.8799 -0.3940
  106MOL    H6144371   2.885   6.445   5.413  0.1406 -0.9958  1.2248
  106MOL    H6244372   3.244   6.205   5.480 -1.9979 -0.5452  1.9245
  106MOL    H6344373   3.164   6.187   5.314 -0.8114 -0.0327 -0.2512
  106MOL    H6444374   3.239   6.337   5.353 -1.4578  0.5423 -0.3460
  106MOL    C6544375   2.974   5.900   5.457 -1.0525 -0.4260  0.7671
  106MOL    C6644376   3.100   5.844   5.380 -0.4771 -0.0022 -0.3876
  106MOL    C6744377   3.040   5.745   5.275  0.2922 -0.2653 -0.0095
  106MOL    C6844378   3.045   5.783   5.129 -0.6771  0.2563 -0.1404
  106MOL    C6944379   3.192   5.783   5.077  0.4699  0.4359  0.5739
  106MOL    C7044380   2.957   5.684   5.057  0.3893 -0.1896  0.3371
  106MOL    C7144381   2.983   5.927   5.105  0.5816 -0.8712  0.3195
  106MOL    H7244382   2.933   5.822   5.523 -1.7912 -0.6479  0.0641
  106MOL    H7344383   2.887   5.914   5.393 -0.9314 -2.0312  0.2335
  106MOL    H7444384   3.141   5.933   5.332 -0.1582  1.9774  3.4174
  106MOL    H7544385   2.938   5.715   5.299 -0.1734  1.0350 -0.2871
  106MOL    H7644386   3.097   5.652   5.271  0.2792 -0.2351 -0.9598
  106MOL    H7744387   3.236   5.684   5.086 -1.3669 -0.5175 -0.5462
  106MOL    H7844388   3.185   5.811   4.971 -0.5084 -0.6878  0.3324
  106MOL    H7944389   3.254   5.857   5.128 -0.3130  0.2422  1.8276
  106MOL    H8044390   2.854   5.675   5.093  0.7295 -0.6164  1.2217
  106MOL    H8144391   3.001   5.584   5.054 -0.2812 -0.4450 -2.2685
  106MOL    H8244392   2.947   5.725   4.956 -0.9828  0.4231  0.7130
  106MOL    H8344393   2.884   5.931   5.150  0.7024 -1.1538  0.6159
  106MOL    H8444394   2.977   5.947   4.998  0.1757  3.2093  1.0177
  106MOL    H8544395   3.032   6.014   5.151 -1.3275  0.9424 -1.0322
  106MOL    C8644396   3.198   5.783   5.475 -0.1347 -0.0734 -0.0292
  106MOL    C8744397   3.344   5.768   5.416 -0.3777 -0.0322  0.3196
  106MOL    C8844398   3.427   5.639   5.472 -0.2229 -0.1056 -0.1242
  106MOL    C8944399   3.425   5.512   5.382  0.3125  0.7730  0.3304
  106MOL    C9044400   3.513   5.402   5.449 -0.5086 -0.1556  0.6806
  106MOL    C9144401   3.478   5.534   5.239 -0.0129 -0.2726  0.3244
  106MOL    C9244402   3.291   5.449   5.382  0.3129  0.3604  0.0268
  106MOL    H9344403   3.160   5.683   5.496  0.7616 -0.1468  1.3389
  106MOL    H9444404   3.203   5.825   5.575 -1.3931 -3.9804  1.7804
  106MOL    H9544405   3.325   5.763   5.309  1.6088 -0.2558 -0.0309
  106MOL    H9644406   3.422   5.617   5.579  0.4905  0.4082  0.0136
  106MOL    H9744407   3.528   5.678   5.464 -0.2800  0.0930  0.1030
  106MOL    H9844408   3.504   5.308   5.395 -0.7286  0.6763 -0.7699
  106MOL    H9944409   3.490   5.394   5.555  1.4014 -1.5064  1.0278
  106MOL   H10044410   3.619   5.425   5.451 -0.8914  1.5033  2.1148
  106MOL   H10144411   3.581   5.570   5.228 -0.6128  1.5113  0.3825
  106MOL   H10244412   3.470   5.443   5.180  2.0460  0.1050 -0.5917
  106MOL   H10344413   3.412   5.607   5.191  0.9330  0.5310  0.2244
  106MOL   H10444414   3.268   5.360   5.324 -0.2664  0.1344  0.5890
  106MOL   H10544415   3.256   5.425   5.483 -1.5611 -2.2762 -1.2167
  106MOL   H10644416   3.222   5.519   5.335  2.0139  1.7442 -0.4750
  106MOL   C10744417   3.433   5.893   5.442  0.5635  0.5751 -0.7878
  106MOL   C10844418   3.554   5.918   5.346 -0.5528 -0.9477  0.4468
  106MOL   C10944419   3.504   5.997   5.223  0.1683  0.8709  0.1932
  106MOL   C11044420   3.571   5.990   5.083 -0.3963  0.4936  1.0140
  106MOL   C11144421   3.471   6.079   5.002 -0.3636 -0.2926  0.3068
  106MOL   C11244422   3.584   5.843   5.032  0.1546 -0.0462 -0.5211
  106MOL   C11344423   3.711   6.058   5.077  0.4845 -0.0629  0.4462
  106MOL   H11444424   3.463   5.877   5.546 -0.5106 -0.4340 -0.6180
  106MOL   H11544425   3.360   5.974   5.442  0.1552  0.2929  2.1514
  106MOL   H11644426   3.592   5.821   5.314  1.2235 -0.6214  1.5273
  106MOL   H11744427   3.402   5.964   5.206  0.7956 -0.0741 -1.9253
  106MOL   H11844428   3.492   6.099   5.260 -1.4029  0.3898  1.0407
  106MOL   H11944429   3.477   6.182   5.038  0.5650 -0.2867  0.1223
  106MOL   H12044430   3.506   6.076   4.899  1.4836 -0.0447  0.9139
  106MOL   H12144431   3.370   6.040   4.987  0.0951 -1.3392 -0.0862
  106MOL   H12244432   3.493   5.782   5.027  1.0839 -1.5554  0.3865
  106MOL   H12344433   3.652   5.782   5.091  1.8048  1.4959 -0.8074
  106MOL   H12444434   3.621   5.840   4.929  1.9351 -2.3410  0.1228
  106MOL   H12544435   3.711   6.165   5.096  0.1368  0.4659 -2.3381
  106MOL   H12644436   3.739   6.069   4.972 -3.5894  0.4346 -0.6717
  106MOL   H12744437   3.790   6.022   5.143  1.5190 -1.0822 -1.2985
  106MOL   C12844438   3.668   5.990   5.422  0.5238  0.3240 -0.0243
  106MOL   C12944439   3.783   5.903   5.472  0.4917 -0.5478 -0.1924
  106MOL   C13044440   3.872   5.850   5.360  0.1204 -0.3895  1.2031
  106MOL   C13144441   3.960   5.717   5.379  0.2663  0.5828  0.2601
  106MOL   C13244442   4.054   5.693   5.262 -0.2500 -0.1508  0.2317
  106MOL   C13344443   3.869   5.592   5.392  0.0625  0.2724 -0.0037
  106MOL   C13444444   4.044   5.725   5.503 -0.6312 -0.0158  0.4811
  106MOL   H13544445   3.620   6.049   5.500 -0.6582  1.5969 -1.6929
  106MOL   H13644446   3.718   6.062   5.358  1.6635  1.1606  1.7741
  106MOL   H13744447   3.735   5.813   5.513 -1.8220 -0.6771 -3.0197
  106MOL   H13844448   3.798   5.832   5.282 -1.3316  1.6499  2.0732
  106MOL   H13944449   3.924   5.936   5.318 -2.8223  0.1172 -1.5193
  106MOL   H14044450   4.063   5.586   5.248  2.8423  0.2813 -1.4668
  106MOL   H14144451   4.150   5.742   5.279 -0.0821  0.1341 -1.4884
  106MOL   H14244452   4.017   5.734   5.168  1.3021 -0.5875 -0.5737
  106MOL   H14344453   3.816   5.593   5.487  0.4504  1.3730  0.2020
  106MOL   H14444454   3.925   5.499   5.381 -0.5819 -0.1075 -0.1143
  106MOL   H14544455   3.788   5.576   5.321  0.7945 -2.1936 -0.3241
  106MOL   H14644456   4.112   5.639   5.507 -1.9526 -1.1112 -0.1921
  106MOL   H14744457   4.109   5.811   5.490 -0.1131 -0.2692  1.3445
  106MOL   H14844458   3.981   5.732   5.591  0.7448 -0.7560  1.5539
  106MOL   C14944459   3.851   5.983   5.590 -0.1980  0.0612  0.2468
  106MOL   C15044460   3.778   5.992   5.724  0.0215  0.2622 -1.1126
  106MOL   C15144461   3.810   5.859   5.806  0.8323  0.0548  0.7367
  106MOL   C15244462   3.695   5.792   5.882  0.0409  0.2435  0.3686
  106MOL   C15344463   3.610   5.892   5.955  0.2068 -1.0363  0.4349
  106MOL   C15444464   3.746   5.697   5.996  0.0129 -0.2018  0.3752
  106MOL   C15544465   3.596   5.716   5.789 -0.2728  0.2556  0.2048
  106MOL   H15644466   3.861   6.088   5.560  2.1949 -0.1577  0.1818
  106MOL   H15744467   3.952   5.947   5.607  0.2467  0.9259 -0.5011
  106MOL   H15844468   3.670   5.985   5.707 -0.0785 -2.1827  0.3277
  106MOL   H15944469   3.896   5.872   5.873  1.3130 -0.0865  0.1494
  106MOL   H16044470   3.843   5.779   5.740  0.4919  0.2180  0.3712
  106MOL   H16144471   3.668   5.936   6.036 -0.8010  1.4436 -0.1430
  106MOL   H16244472   3.580   5.973   5.888  1.8783  0.3121  1.2849
  106MOL   H16344473   3.521   5.839   5.989  0.1959 -0.5427  1.1716
  106MOL   H16444474   3.659   5.655   6.048  0.5440 -2.1877 -0.2756
  106MOL   H16544475   3.819   5.741   6.064  0.4137  0.4457 -0.4715
  106MOL   H16644476   3.790   5.609   5.949  0.3592 -1.3447  2.7817
  106MOL   H16744477   3.642   5.641   5.725  0.5714 -1.1634  2.4207
  106MOL   H16844478   3.520   5.662   5.846  0.8474 -0.7103  0.8154
  106MOL   H16944479   3.569   5.802   5.727  1.7465 -0.2794 -1.4684
  106MOL   C17044480   3.827   6.115   5.804 -0.4767 -0.4390  0.8718
  106MOL   C17144481   3.731   6.236   5.825  0.5734  0.2876 -0.0093
  106MOL   C17244482   3.692   6.311   5.694  0.5241 -0.3550 -0.0311
  106MOL   C17344483   3.550   6.388   5.697 -0.4279  0.1889  0.3651
  106MOL   C17444484   3.427   6.306   5.732 -0.3317  0.9651 -0.2185
  106MOL   C17544485   3.517   6.426   5.543  0.3839  0.1029 -0.3598
  106MOL   C17644486   3.557   6.523   5.771  0.3575  0.1017 -0.2127
  106MOL   H17744487   3.916   6.159   5.758 -2.9811  2.2099 -1.6731
  106MOL   H17844488   3.854   6.088   5.906  0.5100 -1.7179  0.2827
  106MOL   H17944489   3.645   6.186   5.871 -0.2173 -1.8644 -3.6426
  106MOL   H18044490   3.775   6.379   5.674  0.1416  0.3140  0.6223
  106MOL   H18144491   3.701   6.241   5.611  3.2945  0.2739 -0.2839
  106MOL   H18244492   3.333   6.361   5.741 -1.4987 -1.1383  0.9504
  106MOL   H18344493   3.408   6.233   5.653  1.2672 -0.5354  0.7319
  106MOL   H18444494   3.434   6.247   5.824  0.8499 -0.5307 -1.2357
  106MOL   H18544495   3.593   6.490   5.498  0.9822 -1.4056 -1.5266
  106MOL   H18644496   3.520   6.337   5.481 -1.3220  1.2122 -2.1113
  106MOL   H18744497   3.419   6.475   5.535  0.0996 -0.5620 -0.9787
  106MOL   H18844498   3.644   6.586   5.751 -0.7591  2.0722  0.9521
  106MOL   H18944499   3.471   6.590   5.766  0.8095  0.8341  1.3854
  106MOL   H19044500   3.563   6.494   5.876  4.4652  1.5617  0.0601
  106MOL   C19144501   3.799   6.327   5.926 -0.4332  0.3945 -1.1096
  106MOL   C19244502   3.778   6.294   6.077 -0.1366  0.0794  0.2396
  106MOL   C19344503   3.640   6.354   6.116  0.6786  0.5221  0.2500
  106MOL   C19444504   3.565   6.289   6.242  0.3837  0.3363 -0.2371
  106MOL   C19544505   3.419   6.341   6.246  0.0564 -0.4805  0.0405
  106MOL   C19644506   3.616   6.325   6.382 -0.2017  0.5763 -0.7398
  106MOL   C19744507   3.553   6.138   6.219  0.0529  0.1762 -0.6575
  106MOL   H19844508   3.904   6.324   5.898 -0.2685  0.5566 -0.5028
  106MOL   H19944509   3.783   6.433   5.909 -2.2658  0.3645  0.2573
  106MOL   H20044510   3.780   6.185   6.090  0.8834 -0.0580 -1.0116
  106MOL   H20144511   3.573   6.339   6.031 -2.2612 -2.8916  3.0524
  106MOL   H20244512   3.655   6.462   6.127  1.0172  0.3178  1.9089
  106MOL   H20344513   3.354   6.299   6.170  1.0954  0.2541 -1.2607
  106MOL   H20444514   3.372   6.334   6.344  1.7891  0.7176  0.9836
  106MOL   H20544515   3.427   6.446   6.219  0.4540 -0.6903 -0.6721
  106MOL   H20644516   3.605   6.433   6.392 -0.2333  0.5984 -1.0016
  106MOL   H20744517   3.561   6.279   6.464 -0.9232  1.1968 -0.8709
  106MOL   H20844518   3.720   6.297   6.396 -0.7511 -0.2242  1.7944
  106MOL   H20944519   3.652   6.102   6.249  0.2283  0.3101 -1.0703
  106MOL   H21044520   3.481   6.102   6.292  1.2881 -1.2037 -0.0871
  106MOL   H21144521   3.528   6.100   6.120 -1.1987  0.5742 -0.5009
  106MOL   C21244522   3.890   6.361   6.162 -0.5499  0.3573 -0.1704
  106MOL   C21344523   4.017   6.282   6.182  0.2109  0.7780  0.1557
  106MOL   C21444524   3.999   6.176   6.293  0.0736  0.2801  0.3021
  106MOL   C21544525   4.055   6.039   6.280 -0.3911  1.0779 -0.8231
  106MOL   C21644526   4.206   6.036   6.251  0.0303  0.2105 -0.0210
  106MOL   C21744527   4.031   5.968   6.418 -0.3924 -0.1349  0.1820
  106MOL   C21844528   3.989   5.959   6.172  0.5534  0.1992 -0.3427
  106MOL   H21944529   3.923   6.451   6.112 -0.4676  0.3498 -0.1298
  106MOL   H22044530   3.864   6.402   6.260 -0.3548 -1.5575  0.7057
  106MOL   H22144531   4.042   6.226   6.092  0.3499  0.5734  0.3196
  106MOL   H22244532   3.892   6.151   6.297  0.5344 -1.8909  0.1076
  106MOL   H22344533   4.007   6.226   6.389  0.1512 -1.8318  1.4243
  106MOL   H22444534   4.237   6.089   6.161 -0.0557  0.3395  0.0242
  106MOL   H22544535   4.242   5.934   6.258  1.5172  0.7579  0.6834
  106MOL   H22644536   4.257   6.079   6.337  0.9591 -0.5574 -0.1892
  106MOL   H22744537   3.924   5.954   6.437 -0.2190 -1.6545  0.0552
  106MOL   H22844538   4.081   5.872   6.427  1.6985  0.8603 -0.6381
  106MOL   H22944539   4.078   6.015   6.505  2.6073 -0.4316 -1.2321
  106MOL   H23044540   3.991   6.007   6.074 -1.9152  0.9673 -0.0727
  106MOL   H23144541   3.886   5.943   6.205  0.0230  2.8163 -0.5493
  106MOL   H23244542   4.027   5.858   6.164  2.3559  0.8973 -0.7273
  106MOL   C23344543   4.134   6.383   6.225 -0.2811 -0.8977  0.0101
  106MOL   C23444544   4.199   6.457   6.111  0.6067  0.2624 -0.4568
  106MOL   C23544545   4.294   6.571   6.166 -0.5757  0.0326 -0.3210
  106MOL   C23644546   4.239   6.715   6.187  0.3839 -0.2789  0.0906
  106MOL   C23744547   4.104   6.708   6.274 -0.5447  0.5793 -0.1600
  106MOL   C23844548   4.349   6.779   6.275  0.0229  0.3389 -0.5784
  106MOL   C23944549   4.214   6.787   6.058  0.6590 -0.0907  0.3412
  106MOL   H24044550   4.219   6.331   6.268 -0.9933 -2.7669 -0.7921
  106MOL   H24144551   4.103   6.458   6.298  2.7540 -0.7114  1.1568
  106MOL   H24244552   4.113   6.504   6.063  0.1073  1.0162  1.1560
  106MOL   H24344553   4.337   6.534   6.259 -2.3140  0.9362  0.8698
  106MOL   H24444554   4.382   6.587   6.104 -0.7147  1.2006 -0.2306
  106MOL   H24544555   4.061   6.807   6.265 -2.4761 -0.3214 -1.0942
  106MOL   H24644556   4.135   6.672   6.372  0.4405  0.9933 -0.3128
  106MOL   H24744557   4.040   6.634   6.227  0.3303  0.1493 -0.6973
  106MOL   H24844558   4.319   6.882   6.295  0.4373 -0.0458  2.1808
  106MOL   H24944559   4.365   6.733   6.372 -2.9042  0.3251 -0.0547
  106MOL   H25044560   4.442   6.773   6.219  0.2808  1.3793 -0.2859
  106MOL   H25144561   4.125   6.753   6.005  0.9298 -0.0213 -0.1612
  106MOL   H25244562   4.202   6.893   6.081 -2.4651 -0.2476 -0.3278
  106MOL   H25344563   4.301   6.782   5.993  0.0108 -0.4982 -0.5028
  106MOL   C25444564   4.283   6.354   6.031 -0.3242 -0.3188 -0.4476
  106MOL   C25544565   4.313   6.408   5.885  0.1671 -0.4886  0.7322
  106MOL   C25644566   4.185   6.400   5.799  0.2932  0.4757  0.6599
  106MOL   C25744567   4.177   6.493   5.673 -0.2636 -0.3632  0.6278
  106MOL   C25844568   4.307   6.486   5.579  0.4208 -0.2236  0.5438
  106MOL   C25944569   4.159   6.638   5.723 -0.4501 -0.3856  0.3240
  106MOL   C26044570   4.046   6.458   5.588 -1.0885 -0.7595 -0.5001
  106MOL   H26144571   4.233   6.259   6.011 -1.7245  0.0806  1.1026
  106MOL   H26244572   4.374   6.336   6.089  0.3418 -0.5777 -1.5505
  106MOL   H26344573   4.324   6.516   5.883  0.1773 -0.4279  2.6220
  106MOL   H26444574   4.181   6.297   5.766  3.1133  0.0856  1.4307
  106MOL   H26544575   4.094   6.414   5.858 -0.0710 -0.2885  0.2802
  106MOL   H26644576   4.395   6.524   5.632  1.4967 -2.4434  0.4064
  106MOL   H26744577   4.295   6.533   5.481 -1.0887  1.6736  1.5941
  106MOL   H26844578   4.318   6.384   5.543 -2.4718 -0.4610  0.2544
  106MOL   H26944579   4.131   6.704   5.641  0.2390  0.0759  0.4670
  106MOL   H27044580   4.253   6.676   5.762  0.2732 -2.3316  0.5201
  106MOL   H27144581   4.079   6.634   5.798 -0.1329 -0.9580  0.6373
  106MOL   H27244582   4.031   6.359   5.545 -1.3354  0.0858 -2.4104
  106MOL   H27344583   3.968   6.474   5.663  1.2841 -0.4658  2.0060
  106MOL   H27444584   4.038   6.537   5.514 -0.4510 -0.1935  0.0339
  106MOL   C27544585   4.425   6.321   5.831  0.4779  0.0533  0.5711
  106MOL   C27644586   4.565   6.388   5.812  0.8362 -0.5806  0.6717
  106MOL   C27744587   4.622   6.450   5.944 -0.2541 -0.5308 -0.3273
  106MOL   C27844588   4.680   6.594   5.934 -0.5444 -0.4052  0.1709
  106MOL   C27944589   4.797   6.595   5.838 -1.3675  0.4655  0.3304
  106MOL   C28044590   4.580   6.698   5.891 -0.2826 -0.1607  0.1927
  106MOL   C28144591   4.730   6.624   6.077 -0.2389 -0.6659 -0.2485
  106MOL   H28244592   4.453   6.236   5.893 -0.2572 -0.4100  0.2648
  106MOL   H28344593   4.397   6.274   5.737  0.3614 -1.4034  1.3265
  106MOL   H28444594   4.558   6.476   5.747 -0.4425 -1.2990 -0.1754
  106MOL   H28544595   4.697   6.385   5.989 -0.2853  0.0187  0.5271
  106MOL   H28644596   4.546   6.454   6.022 -1.4878  2.6406 -1.5778
  106MOL   H28744597   4.774   6.584   5.732 -1.7378 -0.1897  0.4779
  106MOL   H28844598   4.851   6.689   5.850  0.2744 -0.5392  1.1100
  106MOL   H28944599   4.873   6.524   5.870 -0.2823  2.2427  1.8439
  106MOL   H29044600   4.637   6.791   5.888  1.4785 -1.2473 -0.4283
  106MOL   H29144601   4.491   6.712   5.953 -2.2117  1.9848 -2.9243
  106MOL   H29244602   4.546   6.677   5.790  0.4414 -0.7299  0.0644
  106MOL   H29344603   4.765   6.727   6.084  0.8190 -1.0986  0.9489
  106MOL   H29444604   4.816   6.569   6.116  0.3804  0.5034  0.0357
  106MOL   H29544605   4.653   6.617   6.154  0.8029  1.2290  0.9923
  106MOL   C29644606   4.673   6.295   5.748  0.5992  0.0825  0.0947
  106MOL   C29744607   4.632   6.216   5.616  0.4051  0.1916  0.0179
  106MOL   C29844608   4.586   6.068   5.640  0.1507  0.5932  0.5629
  106MOL   C29944609   4.489   6.003   5.548  0.1339 -0.3351 -0.4772
  106MOL   C30044610   4.352   6.065   5.545  0.1472 -0.0908  0.1541
  106MOL   C30144611   4.550   5.989   5.405 -0.0733 -0.1394 -0.4736
  106MOL   C30244612   4.465   5.859   5.599 -0.1532  0.4423  0.6133
  106MOL   H30344613   4.691   6.221   5.826 -1.4849  0.4964  1.0037
  106MOL   H30444614   4.765   6.353   5.736  0.1786  1.4813  3.1076
  106MOL   H30544615   4.546   6.271   5.579  1.0637  1.6092  0.5645
  106MOL   H30644616   4.545   6.061   5.742  0.1339 -1.4361  0.4412
  106MOL   H30744617   4.681   6.019   5.661 -0.4700 -0.9268 -0.1192
  106MOL   H30844618   4.349   6.164   5.500 -0.7932 -0.2451 -0.1281
  106MOL   H30944619   4.278   6.004   5.493 -1.1958 -0.1479  2.0789
  106MOL   H31044620   4.299   6.058   5.640 -0.9108  2.2987 -0.2360
  106MOL   H31144621   4.650   5.946   5.404 -0.6172 -1.4948  1.0437
  106MOL   H31244622   4.494   5.923   5.339  1.3304 -0.6420 -1.1744
  106MOL   H31344623   4.544   6.084   5.352  0.9820  0.0348 -0.2868
  106MOL   H31444624   4.562   5.809   5.596  0.1373  1.0401 -0.4562
  106MOL   H31544625   4.448   5.844   5.705  0.8933 -1.6054  0.5119
  106MOL   H31644626   4.402   5.793   5.539  0.5331  0.3768 -0.0489
  106MOL   C31744627   4.749   6.230   5.511  0.0643  0.4966 -0.8639
  106MOL   C31844628   4.780   6.374   5.456  0.4153 -0.3254  0.5229
  106MOL   C31944629   4.919   6.369   5.388 -0.1676 -0.6836 -0.1053
  106MOL   C32044630   5.051   6.404   5.472  0.0484 -0.3113  1.1439
  106MOL   C32144631   5.052   6.553   5.521 -0.0556 -0.0611 -0.6113
  106MOL   C32244632   5.166   6.382   5.370 -0.0685  0.0952  0.7985
  106MOL   C32344633   5.068   6.312   5.588  0.3943 -0.3816  0.8356
  106MOL   H32444634   4.837   6.181   5.550 -0.4240  1.0481  0.9824
  106MOL   H32544635   4.738   6.161   5.427  0.7900 -0.9027  0.1939
  106MOL   H32644636   4.782   6.441   5.542  2.9441  0.8967 -0.4424
  106MOL   H32744637   4.907   6.433   5.300 -1.6328 -2.5732 -1.3295
  106MOL   H32844638   4.938   6.272   5.341 -0.7169 -0.4889 -0.7314
  106MOL   H32944639   4.984   6.584   5.601 -0.4884 -0.4353 -0.8324
  106MOL   H33044640   5.037   6.614   5.432  1.1795 -2.0890 -2.2470
  106MOL   H33144641   5.151   6.579   5.558 -1.5986  2.3812  2.0180
  106MOL   H33244642   5.259   6.406   5.422  0.7014  0.9708 -0.9585
  106MOL   H33344643   5.197   6.279   5.350  0.0543  0.1925  0.4902
  106MOL   H33444644   5.166   6.430   5.272 -0.4148  0.6957  1.0905
  106MOL   H33544645   5.151   6.349   5.648  0.9600 -0.0721 -0.1263
  106MOL   H33644646   5.104   6.221   5.541  1.9779  0.8822 -0.4414
  106MOL   H33744647   4.984   6.291   5.655  0.6397 -1.0011  0.9535
  106MOL   C33844648   4.674   6.421   5.348  0.0045  0.2342 -0.7495
  106MOL   C33944649   4.660   6.575   5.309 -0.1681  0.1006 -1.2162
  106MOL   C34044650   4.633   6.666   5.431 -0.3166  0.3741 -0.2733
  106MOL   C34144651   4.633   6.825   5.416 -0.4913 -0.0408 -0.2702
  106MOL   C34244652   4.748   6.881   5.323  0.4975  0.3468  0.4573
  106MOL   C34344653   4.497   6.879   5.359  0.4777  0.2317  0.0863
  106MOL   C34444654   4.652   6.878   5.555 -0.7477  0.7755 -0.1023
  106MOL   H34544655   4.581   6.385   5.392  0.1157 -0.4690 -1.0880
  106MOL   H34644656   4.683   6.357   5.261  2.1341 -0.4056 -0.1031
  106MOL   H34744657   4.753   6.616   5.269  0.5168 -2.5060 -2.4124
  106MOL   H34844658   4.705   6.633   5.506 -1.1690 -0.0508  0.3684
  106MOL   H34944659   4.539   6.626   5.468  0.4277 -3.1062 -1.8862
  106MOL   H35044660   4.728   6.872   5.216  0.7021 -0.1201  0.4535
  106MOL   H35144661   4.760   6.987   5.342 -1.4841  0.3530  1.8629
  106MOL   H35244662   4.846   6.838   5.340  1.6440  3.2603  1.5081
  106MOL   H35344663   4.405   6.841   5.403  1.3506 -2.7838 -0.6278
  106MOL   H35444664   4.493   6.988   5.372  1.4027  0.7036 -3.2496
  106MOL   H35544665   4.476   6.874   5.252  0.5596  0.9054  0.0363
  106MOL   H35644666   4.675   6.985   5.546 -1.2212  0.8477 -0.4611
  106MOL   H35744667   4.563   6.880   5.618 -0.9903 -1.0599 -0.3594
  106MOL   H35844668   4.734   6.835   5.612 -2.7586  0.5724  2.7589
  106MOL   C35944669   4.562   6.581   5.201  0.9201 -0.5696  0.8171
  106MOL   C36044670   4.598   6.524   5.060  0.7398 -0.0463  0.3122
  106MOL   C36144671   4.706   6.624   4.991 -0.1452 -0.1534 -0.2142
  106MOL   C36244672   4.831   6.561   4.930 -0.6255  0.2484 -0.3305
  106MOL   C36344673   4.796   6.460   4.826  0.3853  0.5889  0.1172
  106MOL   C36444674   4.919   6.481   5.035 -0.3934  0.4630 -0.1586
  106MOL   C36544675   4.910   6.671   4.859  0.0366 -0.3755 -0.3806
  106MOL   H36644676   4.522   6.682   5.190 -0.6288 -1.3637 -1.2775
  106MOL   H36744677   4.473   6.532   5.241 -0.3817  0.7483 -0.3825
  106MOL   H36844678   4.637   6.423   5.074 -0.2831 -0.4188  0.4814
  106MOL   H36944679   4.661   6.676   4.907  0.5259 -2.4061 -2.0155
  106MOL   H37044680   4.736   6.707   5.055 -1.2315 -0.2026  0.3842
  106MOL   H37144681   4.878   6.422   4.765  0.6692  0.5649  0.5133
  106MOL   H37244682   4.734   6.384   4.874  1.4654  0.1950  0.9136
  106MOL   H37344683   4.731   6.515   4.759  0.6083  1.7576  0.8502
  106MOL   H37444684   4.864   6.395   5.072  1.0702  0.4884  2.1775
  106MOL   H37544685   4.964   6.547   5.110  0.9665  0.6157 -1.1009
  106MOL   H37644686   4.997   6.430   4.979 -0.0181  0.0427  0.7443
  106MOL   H37744687   4.921   6.757   4.926 -1.1984  0.7137 -1.5399
  106MOL   H37844688   4.862   6.714   4.771  2.9057  2.2789 -0.7517
  106MOL   H37944689   5.009   6.637   4.828  0.1084 -1.6195  1.1775
  106MOL   C38044690   4.471   6.512   4.965  0.5922  0.8295  0.8083
  106MOL   C38144691   4.369   6.389   4.976 -0.1795 -0.2680  0.9204
  106MOL   C38244692   4.264   6.406   5.085  0.5545  0.0973 -0.2776
  106MOL   C38344693   4.121   6.354   5.062 -0.0928  0.2308 -0.0569
  106MOL   C38444694   4.125   6.195   5.081  0.2393 -0.3049 -0.2531
  106MOL   C38544695   4.074   6.388   4.920  0.7231  0.1140  0.2623
  106MOL   C38644696   4.023   6.414   5.160 -0.6476 -0.2031 -0.1531
  106MOL   H38744697   4.509   6.510   4.864  0.6212  1.4810  0.7987
  106MOL   H38844698   4.416   6.607   4.966 -3.0030 -1.0037 -4.0583
  106MOL   H38944699   4.317   6.388   4.880 -0.8605  1.6703  1.2416
  106MOL   H39044700   4.291   6.370   5.185 -0.7463  0.2976  0.1507
  106MOL   H39144701   4.255   6.510   5.114 -0.4657  0.4848 -1.9425
  106MOL   H39244702   4.068   6.166   5.169 -0.5747 -0.4536 -0.8139
  106MOL   H39344703   4.093   6.142   4.991 -1.1168 -1.6300  0.9974
  106MOL   H39444704   4.222   6.156   5.110  0.3328  0.7378  0.8602
  106MOL   H39544705   4.099   6.492   4.900  0.9964 -0.3556 -2.0434
  106MOL   H39644706   3.966   6.381   4.904  0.5501  2.9153 -0.0231
  106MOL   H39744707   4.114   6.327   4.839 -0.7021  0.5525 -0.7923
  106MOL   H39844708   4.004   6.520   5.143  1.5316 -0.0190 -1.6318
  106MOL   H39944709   4.052   6.399   5.264 -0.6554 -0.8998 -0.2482
  106MOL   H40044710   3.927   6.361   5.159 -0.0447 -1.3075 -0.2462
  106MOL   C40144711   4.441   6.257   4.979  0.4035 -0.0676  0.0827
  106MOL   C40244712   4.409   6.156   4.866  0.1896 -0.5253 -0.1469
  106MOL   C40344713   4.466   6.017   4.888  0.0956 -0.2420 -0.2322
  106MOL   C40444714   4.410   5.904   4.799  0.2008 -0.4957  0.2592
  106MOL   C40544715   4.384   5.957   4.659 -0.7408  0.8269 -0.6401
  106MOL   C40644716   4.279   5.848   4.858 -0.6084  0.0750 -0.0651
  106MOL   C40744717   4.513   5.789   4.802 -1.1402 -0.5704 -0.5893
  106MOL   H40844718   4.546   6.277   4.958  0.1629 -0.1280 -1.1989
  106MOL   H40944719   4.444   6.205   5.075  3.6990 -1.2675 -0.5805
  106MOL   H41044720   4.302   6.148   4.850  0.2644 -2.1214  0.0410
  106MOL   H41144721   4.458   5.991   4.994 -0.8737 -1.7263 -0.6519
  106MOL   H41244722   4.572   6.023   4.861  0.9117 -0.2643  2.7756
  106MOL   H41344723   4.358   5.867   4.603  0.3978  0.9438 -1.3815
  106MOL   H41444724   4.470   6.006   4.613  0.0184  0.3746  0.2848
  106MOL   H41544725   4.300   6.026   4.653 -0.3589  1.1805 -2.1844
  106MOL   H41644726   4.297   5.794   4.951  1.2385 -3.9379 -2.6539
  106MOL   H41744727   4.230   5.783   4.786  0.0604  0.8886 -1.2825
  106MOL   H41844728   4.210   5.932   4.871  1.9502  2.5160 -1.7804
  106MOL   H41944729   4.485   5.704   4.739  0.6580 -0.7104 -1.2323
  106MOL   H42044730   4.607   5.814   4.752 -1.3161  3.1031  0.7946
  106MOL   H42144731   4.536   5.762   4.905 -0.1999 -0.5673 -0.7861
  106MOL   H42244732   4.437   6.197   4.770 -2.5124 -0.0766 -0.7523
  107MOL     C144733   4.963   6.600   1.990 -0.3818  0.0647 -0.0058
  107MOL     C244734   4.933   6.651   1.847  0.3188 -0.3769 -0.1993
  107MOL     C344735   4.792   6.615   1.802 -0.3176  0.3062 -0.6321
  107MOL     C444736   4.664   6.704   1.837  0.1171 -1.0507  0.4150
  107MOL     C544737   4.542   6.628   1.788  0.4982 -0.4981 -0.0040
  107MOL     C644738   4.656   6.726   1.980  0.3569  0.5281  0.0676
  107MOL     C744739   4.668   6.838   1.753 -0.8407  0.7119  0.1364
  107MOL     H844740   4.898   6.640   2.068  0.0887  0.2102  0.3119
  107MOL     H944741   4.963   6.491   1.989 -0.9206  0.0614  0.1068
  107MOL    H1044742   4.948   6.759   1.844 -0.0384 -0.3214  0.0655
  107MOL    H1144743   4.779   6.513   1.841  1.1814 -0.1375 -1.2794
  107MOL    H1244744   4.787   6.604   1.694 -0.3159 -0.0396 -0.5976
  107MOL    H1344745   4.552   6.591   1.686  0.2778  1.4597 -0.7645
  107MOL    H1444746   4.453   6.686   1.764  0.3677 -1.4310 -1.9431
  107MOL    H1544747   4.520   6.541   1.850 -2.1651 -0.8648 -1.3664
  107MOL    H1644748   4.724   6.802   2.019  1.7920 -0.8459  0.2726
  107MOL    H1744749   4.557   6.760   2.010  0.5932  1.3493 -0.0734
  107MOL    H1844750   4.679   6.627   2.019 -0.8839  0.4917  0.7353
  107MOL    H1944751   4.737   6.906   1.803  1.9314 -1.1839 -0.9602
  107MOL    H2044752   4.567   6.879   1.760 -1.4858 -0.5133 -1.5138
  107MOL    H2144753   4.695   6.840   1.647 -1.8295  2.5246 -0.1081
  107MOL    H2244754   5.065   6.627   2.018 -1.0703  2.2689  0.4613
  107MOL    C2344755   5.034   6.583   1.749 -0.1497 -0.4808 -0.2023
  107MOL    C2444756   5.182   6.643   1.766 -0.2555 -0.2802 -0.0560
  107MOL    C2544757   5.180   6.782   1.703 -0.5166  0.2924  0.6563
  107MOL    C2644758   5.257   6.898   1.771  0.1867 -0.0975  0.0781
  107MOL    C2744759   5.252   7.029   1.684  0.4005 -0.1157 -0.2652
  107MOL    C2844760   5.213   6.929   1.919  0.8494 -0.2102 -0.1477
  107MOL    C2944761   5.406   6.861   1.788 -0.9539 -0.1320 -0.6992
  107MOL    H3044762   5.026   6.479   1.781  0.3918 -0.7684 -0.9858
  107MOL    H3144763   5.010   6.588   1.643  0.1829 -0.5322 -0.2802
  107MOL    H3244764   5.219   6.634   1.868 -1.6377 -2.7829  0.2736
  107MOL    H3344765   5.077   6.816   1.699 -0.3525  0.7878  0.6124
  107MOL    H3444766   5.218   6.773   1.601 -1.2584  0.3890  0.3732
  107MOL    H3544767   5.159   7.069   1.642 -0.1005 -1.1264 -0.1201
  107MOL    H3644768   5.274   7.116   1.746 -2.7225  0.5250  0.0116
  107MOL    H3744769   5.318   7.016   1.598  1.5028 -0.2254  0.5923
  107MOL    H3844770   5.282   6.999   1.966  0.3016  1.0568 -1.2198
  107MOL    H3944771   5.112   6.968   1.928 -0.4449 -3.2643 -0.7736
  107MOL    H4044772   5.221   6.839   1.981  0.4568  0.8429  1.4598
  107MOL    H4144773   5.460   6.837   1.697  1.5028  0.2636  0.6165
  107MOL    H4244774   5.408   6.765   1.840 -0.2808 -1.9109 -3.8536
  107MOL    H4344775   5.472   6.925   1.846 -1.4634 -1.6048  1.5735
  107MOL    C4444776   5.286   6.551   1.697 -0.1899 -0.2179  0.7735
  107MOL    C4544777   5.374   6.460   1.793 -0.6072 -0.3515 -0.9215
  107MOL    C4644778   5.480   6.385   1.707  0.2953  0.3481 -0.7718
  107MOL    C4744779   5.624   6.449   1.680  0.6441 -0.3746 -0.1951
  107MOL    C4844780   5.619   6.551   1.568  0.0706  0.0210 -0.3784
  107MOL    C4944781   5.725   6.344   1.631  0.5786  0.5660  0.4492
  107MOL    C5044782   5.690   6.504   1.810 -0.1148 -0.3430  0.3797
  107MOL    H5144783   5.226   6.486   1.633 -0.6570 -0.2029  1.1941
  107MOL    H5244784   5.355   6.612   1.638  0.1375 -1.1483  0.1864
  107MOL    H5344785   5.419   6.525   1.869 -1.1846 -1.2958  0.2492
  107MOL    H5444786   5.427   6.348   1.620  1.3461  1.8778 -2.0769
  107MOL    H5544787   5.493   6.293   1.765 -1.1334 -1.0038 -2.5665
  107MOL    H5644788   5.562   6.525   1.479  1.4276 -0.7510 -1.0329
  107MOL    H5744789   5.722   6.577   1.540  1.0183 -3.4642 -0.2850
  107MOL    H5844790   5.573   6.645   1.597 -1.0329  0.0706 -2.1847
  107MOL    H5944791   5.795   6.383   1.556 -0.8306  1.1427 -0.6053
  107MOL    H6044792   5.789   6.311   1.712 -0.5563 -2.6416  0.0954
  107MOL    H6144793   5.697   6.247   1.591 -2.8706  1.8760 -0.5480
  107MOL    H6244794   5.796   6.520   1.793 -0.1899 -2.3209 -2.3197
  107MOL    H6344795   5.654   6.604   1.836 -0.1049  0.2313 -1.7295
  107MOL    H6444796   5.686   6.442   1.900 -4.0064  1.2120  1.3862
  107MOL    C6544797   5.298   6.347   1.879 -0.2165  0.4941 -0.4217
  107MOL    C6644798   5.365   6.270   1.991  0.6826  0.2276 -0.5398
  107MOL    C6744799   5.270   6.157   2.040  0.1332  0.6823  0.2817
  107MOL    C6844800   5.295   6.009   1.992 -0.1902 -0.3766  0.3368
  107MOL    C6944801   5.170   5.928   2.008  0.0742 -0.3995  0.3601
  107MOL    C7044802   5.322   6.011   1.839 -0.0680  0.4091 -0.5022
  107MOL    C7144803   5.409   5.948   2.069 -0.0416 -0.8438  0.8308
  107MOL    H7244804   5.208   6.400   1.909  0.1613  1.4480 -0.9473
  107MOL    H7344805   5.254   6.278   1.807 -2.0781 -0.1746  1.3312
  107MOL    H7444806   5.461   6.221   1.969 -1.2851 -3.6996 -0.9134
  107MOL    H7544807   5.168   6.184   2.011 -0.3263 -0.8618  0.4420
  107MOL    H7644808   5.258   6.155   2.148 -0.3207 -1.3964  0.2110
  107MOL    H7744809   5.156   5.929   2.116 -1.9184  0.4647  0.1041
  107MOL    H7844810   5.082   5.972   1.964  0.5820  1.2402  0.9605
  107MOL    H7944811   5.184   5.823   1.980 -0.2856 -0.8042  1.6484
  107MOL    H8044812   5.333   5.909   1.802 -0.0421  0.3741 -0.3998
  107MOL    H8144813   5.415   6.060   1.808  0.5275 -0.3754  0.0382
  107MOL    H8244814   5.250   6.065   1.778 -0.2668 -0.9165 -1.4602
  107MOL    H8344815   5.506   5.975   2.028  1.1742 -3.4585  1.8450
  107MOL    H8444816   5.409   5.841   2.049 -1.8742 -0.9905  1.4664
  107MOL    H8544817   5.396   5.954   2.177 -0.3486 -0.2040  0.7571
  107MOL    C8644818   5.399   6.376   2.099  0.5345 -0.1000  0.1105
  107MOL    C8744819   5.484   6.334   2.220  0.4337 -0.6380  0.2081
  107MOL    C8844820   5.467   6.418   2.340  0.1913 -0.0745  0.0905
  107MOL    C8944821   5.364   6.377   2.443  0.0777 -0.2017 -0.6231
  107MOL    C9044822   5.384   6.468   2.566 -0.4783 -0.1408 -0.1204
  107MOL    C9144823   5.380   6.232   2.497 -0.5836 -0.0982 -0.0116
  107MOL    C9244824   5.220   6.396   2.389  0.3309 -0.7135  0.0623
  107MOL    H9344825   5.299   6.411   2.126  0.1904 -1.5893  0.8202
  107MOL    H9444826   5.449   6.466   2.064 -1.6965  1.1739  0.0526
  107MOL    H9544827   5.446   6.235   2.246  3.1095 -2.2435 -1.7398
  107MOL    H9644828   5.450   6.519   2.303 -0.7412  0.6868  2.4962
  107MOL    H9744829   5.563   6.414   2.392  1.0901  2.3878 -1.3090
  107MOL    H9844830   5.394   6.569   2.527  0.8535 -0.6944 -1.2310
  107MOL    H9944831   5.479   6.453   2.617 -1.4659 -1.0933  1.4963
  107MOL   H10044832   5.299   6.464   2.635  0.5291  0.3588  1.1776
  107MOL   H10144833   5.338   6.204   2.593 -2.1474  1.0539 -0.3294
  107MOL   H10244834   5.350   6.156   2.424 -2.7923 -0.3070  1.0724
  107MOL   H10344835   5.486   6.209   2.506 -0.8516 -1.5202 -0.3095
  107MOL   H10444836   5.206   6.328   2.305 -1.7277 -1.0549  0.6496
  107MOL   H10544837   5.149   6.379   2.470 -0.3059  0.8812 -0.1498
  107MOL   H10644838   5.202   6.492   2.341 -0.4959 -0.3907  1.0007
  107MOL   C10744839   5.631   6.332   2.173  0.2540 -0.2223  0.0082
  107MOL   C10844840   5.724   6.245   2.258  0.5190 -0.2026  0.0151
  107MOL   C10944841   5.710   6.102   2.196 -0.3431 -0.1366  0.6425
  107MOL   C11044842   5.760   5.974   2.275 -0.1049 -0.3783  0.3977
  107MOL   C11144843   5.906   5.986   2.311 -0.8469 -0.2224  0.0078
  107MOL   C11244844   5.746   5.843   2.188 -0.2107 -0.2327 -0.5942
  107MOL   C11344845   5.680   5.962   2.413  0.2048  0.0135 -0.8577
  107MOL   H11444846   5.670   6.432   2.156 -2.0940  0.6516 -0.5248
  107MOL   H11544847   5.626   6.292   2.071 -0.7830 -0.3377  0.0970
  107MOL   H11644848   5.691   6.253   2.362 -1.4116 -1.7712 -0.4506
  107MOL   H11744849   5.603   6.084   2.182 -0.4285 -0.0178  1.1412
  107MOL   H11844850   5.768   6.096   2.104  0.2298 -1.7993  1.0879
  107MOL   H11944851   5.945   5.894   2.354  0.6858  0.4350  0.0535
  107MOL   H12044852   5.965   6.010   2.222 -1.0590  0.8790  0.1556
  107MOL   H12144853   5.936   6.061   2.384  1.6145 -2.6075  1.5283
  107MOL   H12244854   5.823   5.834   2.111 -1.9511 -0.1816 -2.3876
  107MOL   H12344855   5.643   5.833   2.156 -0.2990 -0.0330 -0.3732
  107MOL   H12444856   5.771   5.760   2.254  1.2603  0.0691 -0.7544
  107MOL   H12544857   5.718   5.883   2.477 -1.6000  0.2782  0.5994
  107MOL   H12644858   5.573   5.948   2.394  0.2782 -3.2302  0.7454
  107MOL   H12744859   5.699   6.053   2.469  0.7303  0.2122 -1.3523
  107MOL   C12844860   5.866   6.307   2.243  0.1882  0.5034  0.9852
  107MOL   C12944861   5.916   6.412   2.349 -0.5650 -0.7356  0.6031
  107MOL   C13044862   5.941   6.345   2.485  0.2211 -0.4669  0.1082
  107MOL   C13144863   5.930   6.425   2.620  0.6403 -0.0336  0.4085
  107MOL   C13244864   6.025   6.546   2.634  0.3381  0.3826  0.7853
  107MOL   C13344865   5.951   6.314   2.720 -0.3193  0.2000  0.2235
  107MOL   C13444866   5.787   6.474   2.639  0.5818  0.5244 -0.2464
  107MOL   H13544867   5.889   6.341   2.142  0.9044 -3.3333 -0.2247
  107MOL   H13644868   5.949   6.238   2.231 -0.8424 -0.1602 -2.9577
  107MOL   H13744869   5.837   6.485   2.370 -1.4317 -1.2165 -0.9044
  107MOL   H13844870   5.862   6.273   2.506 -0.9947  0.6248 -0.6438
  107MOL   H13944871   6.032   6.285   2.488  1.0107  0.8286  2.5873
  107MOL   H14044872   6.014   6.586   2.734 -0.6159  2.6515 -0.1904
  107MOL   H14144873   5.995   6.628   2.569  1.6953  0.4505  0.2361
  107MOL   H14244874   6.128   6.529   2.602  1.0923  3.2504  1.5290
  107MOL   H14344875   5.948   6.358   2.820 -0.4288  1.9918 -0.5366
  107MOL   H14444876   6.050   6.270   2.721 -1.8151 -3.3055  1.2372
  107MOL   H14544877   5.884   6.228   2.715  0.8628 -0.7930  1.2688
  107MOL   H14644878   5.717   6.392   2.619  0.2601  0.9300 -0.8099
  107MOL   H14744879   5.772   6.503   2.743  0.7189  1.8812 -0.5923
  107MOL   H14844880   5.749   6.549   2.569  1.0540  1.4786  0.5019
  107MOL   C14944881   6.048   6.478   2.306 -0.3233  0.3819  0.4589
  107MOL   C15044882   6.047   6.616   2.228  0.4336  0.3299  0.3241
  107MOL   C15144883   6.182   6.648   2.177  0.2500  0.5163 -0.0688
  107MOL   C15244884   6.302   6.681   2.279 -0.3752  0.1123 -0.2711
  107MOL   C15344885   6.399   6.771   2.198 -0.3039  0.3079 -0.2872
  107MOL   C15444886   6.382   6.557   2.323 -0.0902 -0.3985 -0.8866
  107MOL   C15544887   6.266   6.764   2.403  0.1415 -0.6465 -0.0712
  107MOL   H15644888   6.098   6.399   2.251 -0.0423  0.2962  0.8348
  107MOL   H15744889   6.103   6.484   2.400 -0.3967  0.1242  0.5213
  107MOL   H15844890   6.017   6.690   2.302 -1.0113 -0.6299  0.7364
  107MOL   H15944891   6.159   6.734   2.114 -1.2636  1.3294  1.5234
  107MOL   H16044892   6.223   6.574   2.109 -1.2421 -1.3013  0.9721
  107MOL   H16144893   6.348   6.865   2.175  0.0440  0.6284  0.2365
  107MOL   H16244894   6.487   6.800   2.256 -0.7719  1.1872 -0.0063
  107MOL   H16344895   6.424   6.735   2.098  0.9098 -1.3131  0.5792
  107MOL   H16444896   6.334   6.516   2.412 -0.1253  0.5467 -0.4653
  107MOL   H16544897   6.483   6.580   2.358  0.0704  1.4106 -2.4713
  107MOL   H16644898   6.401   6.487   2.241  1.7187 -0.5921 -0.3228
  107MOL   H16744899   6.192   6.721   2.471  0.8009  1.4507  2.0660
  107MOL   H16844900   6.360   6.788   2.454  0.5158 -1.4490 -0.3733
  107MOL   H16944901   6.218   6.858   2.375 -1.8286 -1.7651 -0.5087
  107MOL   C17044902   5.933   6.615   2.115  0.2806 -0.0448  0.8022
  107MOL   C17144903   5.879   6.759   2.072 -1.0355  0.7232  0.7069
  107MOL   C17244904   5.727   6.771   2.066  0.3521 -0.4124  0.1087
  107MOL   C17344905   5.660   6.811   2.207 -0.4566 -0.1833 -0.1032
  107MOL   C17444906   5.713   6.942   2.267  0.2856 -0.8305  0.4110
  107MOL   C17544907   5.681   6.710   2.317 -1.0355  0.1540  0.0269
  107MOL   C17644908   5.505   6.833   2.180 -0.0223  0.1479  0.0199
  107MOL   H17744909   5.844   6.567   2.156 -1.5271  1.3315 -1.4150
  107MOL   H17844910   5.969   6.542   2.043  0.1802 -0.5329  1.2482
  107MOL   H17944911   5.917   6.833   2.142  1.8559  0.1287 -0.1406
  107MOL   H18044912   5.693   6.843   1.992 -1.7755  0.5137  1.9155
  107MOL   H18144913   5.686   6.673   2.039 -1.0995 -0.5379  2.5796
  107MOL   H18244914   5.820   6.943   2.290  0.4779 -0.2325 -0.4703
  107MOL   H18344915   5.697   7.020   2.192  0.3392 -1.0631  0.1556
  107MOL   H18444916   5.666   6.960   2.364 -0.9976 -0.9007 -0.1923
  107MOL   H18544917   5.650   6.610   2.285 -1.3456 -1.0577  3.9452
  107MOL   H18644918   5.786   6.707   2.346 -1.0368 -1.1974 -0.0379
  107MOL   H18744919   5.606   6.737   2.391 -1.5455 -0.5472 -0.2229
  107MOL   H18844920   5.458   6.852   2.276  1.7532  0.2154  0.9077
  107MOL   H18944921   5.492   6.906   2.100  0.8817  0.6506  0.3226
  107MOL   H19044922   5.460   6.741   2.143 -0.3690  0.1752  0.3713
  107MOL   C19144923   5.935   6.796   1.936  0.2159  0.3916  0.2319
  107MOL   C19244924   5.949   6.946   1.914  0.6992 -0.2435 -0.5089
  107MOL   C19344925   5.963   6.972   1.758  0.5709  0.0151  0.3751
  107MOL   C19444926   5.845   7.023   1.670  0.2005  0.4538  0.3114
  107MOL   C19544927   5.762   7.133   1.740 -0.2357 -0.2287 -0.1290
  107MOL   C19644928   5.759   6.897   1.643 -0.3120  0.3070  0.4648
  107MOL   C19744929   5.903   7.071   1.539 -0.0664  0.2536 -0.2146
  107MOL   H19844930   6.032   6.753   1.913  0.4303  2.5161 -3.1981
  107MOL   H19944931   5.868   6.747   1.866  0.9372 -1.3968  0.7698
  107MOL   H20044932   5.868   7.009   1.951  1.8203  0.7932  0.2461
  107MOL   H20144933   5.998   6.883   1.706 -1.6921 -1.6547  1.5992
  107MOL   H20244934   6.040   7.049   1.748 -0.3221  1.0013  0.8723
  107MOL   H20344935   5.825   7.205   1.791  0.8447  0.2620 -2.1188
  107MOL   H20444936   5.696   7.180   1.667  1.3775  2.2981 -0.0331
  107MOL   H20544937   5.693   7.104   1.820 -0.5600 -0.0914 -0.3571
  107MOL   H20644938   5.707   6.849   1.726 -0.5290  0.7583  0.5949
  107MOL   H20744939   5.690   6.923   1.562  0.7729 -0.5386 -0.7594
  107MOL   H20844940   5.814   6.812   1.603 -2.4041 -2.2249  2.7768
  107MOL   H20944941   5.959   6.989   1.493  0.8451  1.3342 -1.0492
  107MOL   H21044942   5.824   7.096   1.469 -0.3538 -1.0798 -0.3780
  107MOL   H21144943   5.966   7.159   1.547  0.6945 -0.0130 -2.8302
  107MOL   C21244944   6.079   6.994   1.984 -0.3721  0.0706 -0.0831
  107MOL   C21344945   6.098   7.142   2.038 -0.6859 -0.3339 -0.6038
  107MOL   C21444946   6.253   7.160   2.065 -0.8159 -0.5821  0.2663
  107MOL   C21544947   6.345   7.220   1.954 -0.2130  0.2515 -0.2857
  107MOL   C21644948   6.301   7.189   1.808 -0.0648  0.1238  0.2440
  107MOL   C21744949   6.348   7.369   1.964 -0.3244  0.0708  0.3896
  107MOL   C21844950   6.487   7.159   1.979 -0.5316  0.1097  0.1230
  107MOL   H21944951   6.098   6.936   2.074  0.0811 -1.4406 -1.1421
  107MOL   H22044952   6.161   6.970   1.917  1.2399  0.3106  1.7684
  107MOL   H22144953   6.076   7.209   1.955 -1.7385  0.2966  0.1684
  107MOL   H22244954   6.298   7.064   2.089 -0.5010 -0.5859 -0.3270
  107MOL   H22344955   6.271   7.211   2.160  0.8398  0.2015 -0.4582
  107MOL   H22444956   6.305   7.081   1.795  1.6248  0.1743  0.2433
  107MOL   H22544957   6.363   7.226   1.726  1.0978 -0.3356  0.9022
  107MOL   H22644958   6.195   7.204   1.786 -0.1427 -2.0603 -1.0597
  107MOL   H22744959   6.252   7.418   1.945 -0.0513  0.5947  0.3557
  107MOL   H22844960   6.389   7.408   2.057 -1.3062 -0.1558  0.9253
  107MOL   H22944961   6.414   7.407   1.887 -1.8538  3.6554  0.7291
  107MOL   H23044962   6.566   7.174   1.906  0.8520 -1.2761  1.2861
  107MOL   H23144963   6.478   7.052   1.997  2.9546 -0.0014  1.5806
  107MOL   H23244964   6.525   7.202   2.072 -1.0509  0.4054  0.1989
  107MOL   C23344965   6.010   7.162   2.165  0.6115 -0.0910  0.6243
  107MOL   C23444966   5.964   7.300   2.194 -0.0228  0.3083  0.0441
  107MOL   C23544967   6.074   7.400   2.240  0.3070 -0.0151  0.5438
  107MOL   C23644968   6.113   7.416   2.392  0.1444 -0.0670  0.1097
  107MOL   C23744969   5.988   7.451   2.484 -0.0711  0.6261  0.2675
  107MOL   C23844970   6.179   7.294   2.447 -0.1458 -0.0269 -0.3637
  107MOL   C23944971   6.210   7.532   2.405 -0.2624  0.4422  0.1315
  107MOL   H24044972   6.052   7.118   2.255  0.4581 -0.2882  0.5995
  107MOL   H24144973   5.919   7.103   2.154  0.2011  0.8436 -1.1336
  107MOL   H24244974   5.883   7.278   2.264  1.2756  0.9181  1.7953
  107MOL   H24344975   6.156   7.388   2.170 -1.2050 -1.8566 -0.9960
  107MOL   H24444976   6.044   7.500   2.211 -1.2314 -1.1185 -1.8117
  107MOL   H24544977   5.939   7.539   2.442  0.9795  0.7390 -0.7368
  107MOL   H24644978   6.021   7.480   2.584  0.4016 -0.9752  0.5949
  107MOL   H24744979   5.913   7.372   2.495  1.2240 -0.5331  0.8696
  107MOL   H24844980   6.220   7.314   2.546 -2.8007 -1.3270  1.0498
  107MOL   H24944981   6.107   7.215   2.468  0.6675 -0.2598  1.5844
  107MOL   H25044982   6.260   7.272   2.377  1.0440  2.4794  0.1724
  107MOL   H25144983   6.297   7.515   2.341 -0.2107  3.5112 -0.7151
  107MOL   H25244984   6.171   7.628   2.370  2.3114  1.8448  0.9515
  107MOL   H25344985   6.243   7.545   2.508 -1.9897  1.8619  0.5347
  107MOL   C25444986   5.891   7.352   2.070 -0.4588 -0.0917 -0.4566
  107MOL   C25544987   5.781   7.444   2.101 -0.7650 -0.3171 -0.3676
  107MOL   C25644988   5.658   7.359   2.145 -1.2342  1.4455 -0.0653
  107MOL   C25744989   5.563   7.413   2.253 -1.0229 -0.5187  0.2113
  107MOL   C25844990   5.442   7.322   2.254  0.5634 -0.4278  0.5284
  107MOL   C25944991   5.514   7.559   2.218 -0.6049 -0.1302 -0.7381
  107MOL   C26044992   5.629   7.414   2.393 -0.2438  0.0774  0.2212
  107MOL   H26144993   5.844   7.275   2.009  0.3308  0.6580 -2.0566
  107MOL   H26244994   5.959   7.405   2.003 -2.4561  1.2183 -1.5308
  107MOL   H26344995   5.822   7.498   2.187  0.1909 -0.7075 -0.5800
  107MOL   H26444996   5.596   7.329   2.061  0.5295 -1.0554 -0.5356
  107MOL   H26544997   5.691   7.261   2.180  2.1922  2.8474  0.8577
  107MOL   H26644998   5.395   7.297   2.159 -0.1890 -0.7973  0.9878
  107MOL   H26744999   5.351   7.365   2.296  0.5904  0.8471 -0.7021
  107MOL   H26845000   5.464   7.226   2.301 -2.0227 -2.0477 -1.3779
  107MOL   H26945001   5.594   7.629   2.192 -0.7122 -0.3673 -1.7576
  107MOL   H27045002   5.465   7.590   2.310  0.8138 -1.4483  0.4925
  107MOL   H27145003   5.441   7.564   2.137 -1.9498 -0.0651  0.4651
  107MOL   H27245004   5.715   7.482   2.393  0.0838 -0.2924 -2.5358
  107MOL   H27345005   5.563   7.436   2.477  0.5778  0.6935  0.7277
  107MOL   H27445006   5.669   7.313   2.400 -0.3987 -0.0683 -0.9211
  107MOL   C27545007   5.759   7.535   1.981  0.4301  0.7313  0.0937
  107MOL   C27645008   5.868   7.644   1.954  0.2980 -0.4727  0.3765
  107MOL   C27745009   5.863   7.690   1.802 -0.5895  0.1055  0.6804
  107MOL   C27845010   5.947   7.612   1.695 -0.3148 -0.5864 -0.1468
  107MOL   C27945011   5.897   7.470   1.660 -0.7980 -0.5744 -0.1332
  107MOL   C28045012   5.946   7.699   1.567 -0.3181  0.0220 -0.3655
  107MOL   C28145013   6.093   7.600   1.743 -0.0384 -0.1898  0.1044
  107MOL   H28245014   5.734   7.487   1.886 -1.5642  1.7306  0.1001
  107MOL   H28345015   5.665   7.584   2.004  0.1088 -0.8760  2.3642
  107MOL   H28445016   5.971   7.615   1.972  0.3335  0.6287  1.9907
  107MOL   H28545017   5.917   0.019   1.800 -0.5518  0.0562 -0.8999
  107MOL   H28645018   5.760   7.712   1.776 -0.8884 -1.0370  0.9128
  107MOL   H28745019   5.892   7.402   1.746 -1.9579 -3.2880 -2.2562
  107MOL   H28845020   5.795   7.465   1.624 -1.0297  0.8268  0.2927
  107MOL   H28945021   5.955   7.415   1.585 -1.7213 -2.5512  0.5600
  107MOL   H29045022   5.850   7.697   1.514 -0.3710  0.2398 -0.2786
  107MOL   H29145023   6.016   7.667   1.490 -1.3624  2.2884 -2.3345
  107MOL   H29245024   5.964   0.039   1.586 -0.6974 -0.0242  0.2651
  107MOL   H29345025   6.101   7.523   1.820  0.9919 -1.3973 -1.1824
  107MOL   H29445026   6.135   7.697   1.771 -1.5356  1.2891 -2.5766
  107MOL   H29545027   6.160   7.566   1.663  0.4501  1.0814 -0.0382
  107MOL   C29645028   5.858   7.765   2.053 -0.5051 -0.1457  0.2772
  107MOL   C29745029   5.978   0.103   2.058 -0.0011 -0.2027  0.1096
  107MOL   C29845030   6.115   0.045   2.119 -0.5357  1.0329  0.2842
  107MOL   C29945031   6.255   0.106   2.096 -0.2428 -0.5585  0.5998
  107MOL   C30045032   6.294   0.101   1.951  0.2844  0.6009 -0.0224
  107MOL   C30145033   6.268   0.256   2.140  0.1953  0.0348 -0.4788
  107MOL   C30245034   6.359   0.029   2.190  0.3423 -0.2022 -0.1094
  107MOL   H30345035   5.844   7.745   2.159  2.1925 -1.5140  0.4107
  107MOL   H30445036   5.769   0.048   2.014 -0.1218  0.6875  0.4306
  107MOL   H30545037   6.000   0.129   1.954  1.3429 -1.2390  0.1215
  107MOL   H30645038   6.130   7.706   2.095 -3.0537  0.5451  0.7490
  107MOL   H30745039   6.101   0.045   2.227  1.3567  1.8536  0.5636
  107MOL   H30845040   6.388   0.153   1.936  0.7377 -0.5624 -1.2557
  107MOL   H30945041   6.330   7.765   1.937  0.3282  0.3212  1.9303
  107MOL   H31045042   6.218   0.118   1.875  0.1432 -1.0479 -0.2772
  107MOL   H31145043   6.371   0.280   2.118  0.6556 -3.8285 -3.0074
  107MOL   H31245044   6.202   0.314   2.075 -0.5180  1.7777  1.7372
  107MOL   H31345045   6.255   0.264   2.248 -0.3934 -2.3382 -0.3395
  107MOL   H31445046   6.320   0.035   2.292  1.7724  3.0579  0.3077
  107MOL   H31545047   6.388   7.694   2.161 -0.7226 -0.4700 -0.2819
  107MOL   H31645048   6.452   0.085   2.201  1.0603 -0.8314 -2.7484
  107MOL   C31745049   5.930   0.230   2.135 -0.3950 -0.0813 -0.3701
  107MOL   C31845050   5.824   0.319   2.068  0.4247  0.8426  0.5233
  107MOL   C31945051   5.776   0.430   2.164  0.7746 -0.2590  0.3902
  107MOL   C32045052   5.662   0.399   2.276  0.0968 -0.4176 -0.8278
  107MOL   C32145053   5.612   0.533   2.327  0.1861  0.3459  0.2444
  107MOL   C32245054   5.718   0.315   2.389  0.2691 -0.6071 -0.2328
  107MOL   C32345055   5.536   0.331   2.214 -0.0214  0.5510 -0.0427
  107MOL   H32445056   5.894   0.189   2.229 -1.5384 -0.7725 -1.0869
  107MOL   H32545057   6.013   0.286   2.177  0.2902 -0.2786 -1.4270
  107MOL   H32645058   5.738   0.254   2.055  0.4545 -0.0515  4.2103
  107MOL   H32745059   5.736   0.507   2.097  0.5472 -0.4568  0.2959
  107MOL   H32845060   5.864   0.473   2.212  0.2951  1.8597 -0.5726
  107MOL   H32945061   5.504   0.544   2.338  0.3225  3.0618 -0.5707
  107MOL   H33045062   5.627   0.624   2.269 -0.8082  0.4446  0.1211
  107MOL   H33145063   5.656   0.554   2.424  1.5924 -0.8039 -0.1295
  107MOL   H33245064   5.719   0.207   2.378  0.0064 -0.7407  0.9261
  107MOL   H33345065   5.816   0.351   2.420  0.7115 -0.7083 -1.5097
  107MOL   H33445066   5.656   0.322   2.479 -0.1457  2.1446 -0.6869
  107MOL   H33545067   5.449   0.336   2.280  0.9790 -1.1359  1.4511
  107MOL   H33645068   5.550   0.229   2.177 -1.8153  0.4298 -0.4464
  107MOL   H33745069   5.498   0.388   2.129 -2.4074 -1.6450 -0.5277
  107MOL   C33845070   5.883   0.394   1.943  0.2264 -0.3609  0.4084
  107MOL   C33945071   5.804   0.389   1.811  0.2761  0.0031  0.2791
  107MOL   C34045072   5.892   0.459   1.699  0.9892 -0.0966  0.2288
  107MOL   C34145073   5.978   0.376   1.601  0.1601  0.4702 -0.1892
  107MOL   C34245074   6.068   0.474   1.530 -0.0892  0.7258  0.0779
  107MOL   C34345075   6.075   0.280   1.673 -0.1482 -0.5723 -0.1353
  107MOL   C34445076   5.884   0.298   1.504 -0.1132 -0.0454 -0.4165
  107MOL   H34545077   5.986   0.362   1.926  0.5809  0.5218  0.8778
  107MOL   H34645078   5.901   0.500   1.958  0.7058 -0.3771 -0.0080
  107MOL   H34745079   5.798   0.284   1.784  1.8160  0.0866 -0.3676
  107MOL   H34845080   5.961   0.537   1.732  0.8774  0.0375  0.1403
  107MOL   H34945081   5.823   0.525   1.647  0.7773 -1.8371 -1.7788
  107MOL   H35045082   6.008   0.546   1.473  1.5691  1.4757 -0.7543
  107MOL   H35145083   6.138   0.530   1.591 -1.7008  3.0363 -0.1415
  107MOL   H35245084   6.125   0.417   1.457 -0.8101  0.2595 -0.1280
  107MOL   H35345085   6.155   0.320   1.735 -0.4822  0.7823 -0.5430
  107MOL   H35445086   6.026   0.226   1.753 -0.3095 -1.3303 -0.7383
  107MOL   H35545087   6.125   0.215   1.601  0.2634  0.7922 -1.1169
  107MOL   H35645088   5.946   0.230   1.446  1.4959 -0.5192  1.7792
  107MOL   H35745089   5.819   0.236   1.565 -1.8010  2.6478  0.6338
  107MOL   H35845090   5.829   0.358   1.432  1.4076  1.0815 -0.6779
  107MOL   C35945091   5.668   0.446   1.845  0.1573 -0.6396  0.2586
  107MOL   C36045092   5.557   0.444   1.742 -0.6446  0.4194 -0.0176
  107MOL   C36145093   5.434   0.500   1.803  0.2743 -0.2724  0.4066
  107MOL   C36245094   5.417   0.643   1.848  0.5570  0.5942  0.2120
  107MOL   C36345095   5.271   0.688   1.836 -0.6626 -0.1689  0.3636
  107MOL   C36445096   5.505   0.741   1.768 -0.3959 -0.0515 -0.1486
  107MOL   C36545097   5.463   0.652   1.995  0.5362  0.5526 -0.9492
  107MOL   H36645098   5.689   0.550   1.870  0.0391 -0.0154 -2.0808
  107MOL   H36745099   5.631   0.394   1.933  0.9059  0.5150  1.2597
  107MOL   H36845100   5.595   0.505   1.660  0.7092  0.0068  0.2994
  107MOL   H36945101   5.358   0.502   1.724 -0.6557  1.3786  1.3242
  107MOL   H37045102   5.409   0.432   1.885  0.8700  0.4177  1.1522
  107MOL   H37145103   5.195   0.614   1.861  1.4834 -2.7287 -0.3777
  107MOL   H37245104   5.251   0.776   1.897 -0.2097  0.3634 -0.2601
  107MOL   H37345105   5.250   0.717   1.734 -2.7613  1.4487  1.2217
  107MOL   H37445106   5.475   0.733   1.663  0.9769 -1.0554 -0.4758
  107MOL   H37545107   5.614   0.729   1.764 -0.4903 -1.1112  0.3854
  107MOL   H37645108   5.477   0.842   1.800  0.3486  0.5433 -1.3286
  107MOL   H37745109   5.397   0.597   2.063  2.3543 -0.4122  0.0668
  107MOL   H37845110   5.469   0.758   2.019  0.2764  0.2909  0.3350
  107MOL   H37945111   5.563   0.611   2.012 -0.0731 -0.6178 -0.0572
  107MOL   C38045112   5.530   0.305   1.689  0.0157 -0.4148 -0.0513
  107MOL   C38145113   5.433   0.298   1.568  0.1999  0.0425  0.2097
  107MOL   C38245114   5.280   0.269   1.609  0.5504 -0.4466  0.7394
  107MOL   C38345115   5.172   0.319   1.517 -0.1895  0.1087  0.5580
  107MOL   C38445116   5.203   0.292   1.378  0.1661 -0.2163 -0.2532
  107MOL   C38545117   5.156   0.479   1.536  0.9926 -0.1619  0.0789
  107MOL   C38645118   5.033   0.261   1.555  0.2429  0.6592  0.4855
  107MOL   H38745119   5.496   0.239   1.768 -0.5720  1.8795  1.6763
  107MOL   H38845120   5.627   0.264   1.661  0.1253 -1.1253  1.3017
  107MOL   H38945121   5.435   0.399   1.527 -1.5018 -1.0278 -2.7375
  107MOL   H39045122   5.258   0.163   1.625  1.7612 -0.8245  0.0014
  107MOL   H39145123   5.254   0.314   1.704 -0.3204 -0.5520  0.5576
  107MOL   H39245124   5.285   0.352   1.338  1.0713 -3.6787 -3.8419
  107MOL   H39345125   5.225   0.186   1.373 -0.6525 -0.4039 -0.0498
  107MOL   H39445126   5.126   0.324   1.308  0.1868  1.2475  0.3641
  107MOL   H39545127   5.242   0.540   1.507  2.0652 -0.8245  1.8166
  107MOL   H39645128   5.140   0.500   1.642 -0.6697 -0.3421 -0.1292
  107MOL   H39745129   5.074   0.527   1.483  1.1270 -0.4647 -0.4051
  107MOL   H39845130   5.046   0.153   1.546 -0.5877  0.6975 -1.3094
  107MOL   H39945131   4.952   0.292   1.490  1.2520 -1.5885 -1.9680
  107MOL   H40045132   4.990   0.284   1.652  1.5687  0.3979  1.1567
  107MOL   C40145133   5.501   0.205   1.464 -0.2513 -1.0618  0.2845
  107MOL   C40245134   5.502   0.059   1.502 -0.4108 -0.5961 -0.3270
  107MOL   C40345135   5.576   7.751   1.386  0.2821  0.1165 -0.3563
  107MOL   C40445136   5.535   7.605   1.388 -0.5769 -0.0872 -0.3058
  107MOL   C40545137   5.409   7.569   1.307  1.1214 -0.4935  0.4862
  107MOL   C40645138   5.525   7.542   1.528 -0.0158  0.5332  0.2012
  107MOL   C40745139   5.645   7.524   1.320  0.1290 -0.0075 -0.0403
  107MOL   H40845140   5.438   0.227   1.378 -1.2502  0.1415  1.2947
  107MOL   H40945141   5.598   0.250   1.441  0.3997 -2.2399  0.7415
  107MOL   H41045142   5.552   0.046   1.598  1.3098  2.6993 -0.7024
  107MOL   H41145143   5.684   7.765   1.391  0.8115 -4.0891  1.7207
  107MOL   H41245144   5.541   0.028   1.292 -2.6292 -1.3762 -0.0064
  107MOL   H41345145   5.409   7.460   1.296  1.4551 -0.4513  0.0406
  107MOL   H41445146   5.420   7.613   1.207 -0.8541 -0.1484  0.4009
  107MOL   H41545147   5.313   7.610   1.338  1.2754  0.7890 -0.6743
  107MOL   H41645148   5.611   7.554   1.593  1.6745  1.4930 -2.1432
  107MOL   H41745149   5.502   7.439   1.500  3.6104  0.4660 -3.0156
  107MOL   H41845150   5.438   7.579   1.582 -1.3046  1.5977 -2.4894
  107MOL   H41945151   5.620   7.418   1.327  1.0072 -0.3080 -1.3123
  107MOL   H42045152   5.664   7.539   1.214 -0.0892  1.5189  0.1283
  107MOL   H42145153   5.737   7.541   1.377 -0.2551 -0.1622  0.6294
  107MOL   H42245154   5.401   0.018   1.509 -1.1117  0.9037 -1.4444
  108MOL     C145155   6.095   2.785   5.051  0.0519  0.5497  0.2352
  108MOL     C245156   6.215   2.805   5.140  0.3227  0.4986 -0.0147
  108MOL     C345157   6.345   2.816   5.056 -0.4543 -0.3914  0.2290
  108MOL     C445158   6.342   2.891   4.918 -0.1608  0.4480 -0.7874
  108MOL     C545159   6.487   2.881   4.865 -0.4575  0.9547 -0.8574
  108MOL     C645160   6.262   2.834   4.796  1.0570  0.1385 -0.1669
  108MOL     C745161   6.312   3.036   4.949  0.5795 -0.5796 -0.5274
  108MOL     H845162   6.005   2.746   5.097 -0.4039  0.7026 -0.5202
  108MOL     H945163   6.065   2.869   4.990  0.7320  0.0253 -0.8453
  108MOL    H1045164   6.218   2.902   5.189  1.2243 -0.3455  1.6552
  108MOL    H1145165   6.379   2.716   5.027  0.0125 -0.2905  0.4264
  108MOL    H1245166   6.423   2.856   5.121 -2.7867  0.7284  2.3729
  108MOL    H1345167   6.507   2.929   4.769  2.0204  0.7312 -0.5119
  108MOL    H1445168   6.520   2.778   4.855  1.3612  1.3448  0.7646
  108MOL    H1545169   6.559   2.920   4.937  1.8714  1.4088 -3.3414
  108MOL    H1645170   6.155   2.855   4.798  1.1246  0.9383 -2.8738
  108MOL    H1745171   6.298   2.872   4.700  2.2040  2.0677  0.9961
  108MOL    H1845172   6.271   2.726   4.798 -2.2590 -0.2080 -0.6509
  108MOL    H1945173   6.212   3.047   4.990  1.3023  2.3974  0.5489
  108MOL    H2045174   6.305   3.100   4.861  1.4979  2.0402  1.2359
  108MOL    H2145175   6.383   3.082   5.018  0.3780 -0.1121 -0.6287
  108MOL    H2245176   6.120   2.699   4.988  1.3497  0.6655  0.5694
  108MOL    C2345177   6.231   2.704   5.254 -0.5066 -0.3846 -0.2178
  108MOL    C2445178   6.125   2.724   5.372 -0.3604 -0.6357  0.0924
  108MOL    C2545179   6.162   2.848   5.468 -0.4460 -0.6510  0.1321
  108MOL    C2645180   6.049   2.936   5.535 -0.4907  0.0707  0.0246
  108MOL    C2745181   6.110   3.061   5.595 -0.4201  0.1446 -0.3244
  108MOL    C2845182   5.937   2.970   5.433 -0.1910  0.9954 -0.3582
  108MOL    C2945183   5.987   2.859   5.659 -0.0969  0.5008 -0.1689
  108MOL    H3045184   6.217   2.603   5.217 -0.6793 -0.4555  0.0347
  108MOL    H3145185   6.331   2.702   5.296 -1.6869  0.2176  2.7614
  108MOL    H3245186   6.026   2.745   5.330 -0.8162 -1.5703  0.6970
  108MOL    H3345187   6.216   2.919   5.405 -2.5452  0.1687 -0.8074
  108MOL    H3445188   6.236   2.819   5.542 -0.9175 -2.7364 -0.1905
  108MOL    H3545189   6.026   3.119   5.634 -0.5916 -1.3577  1.5987
  108MOL    H3645190   6.175   3.047   5.682 -0.8342  2.7589  0.4585
  108MOL    H3745191   6.166   3.123   5.525  0.7050 -1.0418 -0.4784
  108MOL    H3845192   5.867   3.046   5.469 -0.3045  0.2624  1.0213
  108MOL    H3945193   5.992   3.023   5.355 -0.3626  0.0929 -1.0934
  108MOL    H4045194   5.884   2.885   5.390  1.7126 -1.2929  1.7460
  108MOL    H4145195   6.065   2.848   5.734  0.8521  0.6586 -1.1350
  108MOL    H4245196   5.940   2.763   5.639  1.0620 -0.5623  2.0353
  108MOL    H4345197   5.904   2.916   5.701  1.3310  2.0808  0.5688
  108MOL    C4445198   6.132   2.599   5.454 -0.2724  0.4019 -0.0540
  108MOL    C4545199   6.046   2.477   5.397  0.4266 -0.2660  0.5522
  108MOL    C4645200   5.907   2.479   5.455  0.9988 -0.5955 -0.9020
  108MOL    C4745201   5.797   2.463   5.352  0.1588  0.1383  0.6579
  108MOL    C4845202   5.791   2.577   5.250  0.1393  0.3901 -0.6449
  108MOL    C4945203   5.666   2.468   5.429  0.0321  0.0027  0.2096
  108MOL    C5045204   5.800   2.323   5.275  0.7003  0.0290  0.9608
  108MOL    H5145205   6.237   2.572   5.464 -0.4043 -1.1095 -2.3894
  108MOL    H5245206   6.103   2.612   5.558  0.9241 -0.2351  0.3618
  108MOL    H5345207   6.046   2.476   5.288  0.7949 -2.9591  0.5499
  108MOL    H5445208   5.886   2.577   5.498  1.8914 -1.3135  1.1981
  108MOL    H5545209   5.898   2.417   5.543 -0.4062 -1.6752 -1.7764
  108MOL    H5645210   5.697   2.564   5.195  0.4564  0.7742 -1.2698
  108MOL    H5745211   5.875   2.577   5.181  1.3304 -0.8459  0.7703
  108MOL    H5845212   5.782   2.670   5.306  0.3152  0.7620 -1.2399
  108MOL    H5945213   5.667   2.387   5.502  2.6724 -1.2425 -1.1543
  108MOL    H6045214   5.653   2.568   5.469  0.8136  1.0119 -2.0247
  108MOL    H6145215   5.572   2.446   5.378  0.5886 -1.3614 -0.2708
  108MOL    H6245216   5.713   2.320   5.209  2.4439 -0.3683 -1.4240
  108MOL    H6345217   5.888   2.310   5.211  0.5942  1.4061  0.5200
  108MOL    H6445218   5.787   2.240   5.344 -0.1030  0.0409  0.8239
  108MOL    C6545219   6.132   2.350   5.428 -0.0457 -0.9487 -0.5569
  108MOL    C6645220   6.249   2.307   5.335  1.0706  0.3789 -0.1332
  108MOL    C6745221   6.208   2.211   5.223  0.0480 -0.8969  0.4574
  108MOL    C6845222   6.267   2.223   5.079 -0.2415  0.0550 -0.1413
  108MOL    C6945223   6.419   2.196   5.083 -0.1342  0.4950 -0.2351
  108MOL    C7045224   6.198   2.126   4.986  0.5038  0.0719 -0.2839
  108MOL    C7145225   6.243   2.365   5.016  0.3949  0.3267  0.0422
  108MOL    H7245226   6.181   2.373   5.523 -0.2316 -0.4051 -0.5955
  108MOL    H7345227   6.064   2.266   5.443 -1.1528  0.3099  1.7540
  108MOL    H7445228   6.283   2.400   5.289 -1.6725  0.7768 -1.4763
  108MOL    H7545229   6.100   2.218   5.208  0.2157  0.3982 -0.2407
  108MOL    H7645230   6.225   2.110   5.260  1.5422 -1.0355 -0.6149
  108MOL    H7745231   6.449   2.205   4.979  1.8913 -1.2137  0.1895
  108MOL    H7845232   6.464   2.274   5.144  1.9382 -0.7722 -0.1166
  108MOL    H7945233   6.457   2.102   5.124  0.6078  1.5884  1.6717
  108MOL    H8045234   6.234   2.129   4.883 -1.6748 -0.0793 -1.0741
  108MOL    H8145235   6.092   2.145   4.969  0.3348 -0.7258 -0.1563
  108MOL    H8245236   6.206   2.023   5.022 -1.8345 -0.3619 -0.9185
  108MOL    H8345237   6.291   2.442   5.076  0.3995 -0.6286  1.2875
  108MOL    H8445238   6.137   2.391   5.012  0.8373  2.3386  0.7518
  108MOL    H8545239   6.285   2.366   4.916  0.4514 -0.0324  0.0622
  108MOL    C8645240   6.367   2.248   5.414  0.1892 -0.1649  0.2002
  108MOL    C8745241   6.467   2.357   5.469 -0.0198 -0.5821 -0.1047
  108MOL    C8845242   6.558   2.411   5.355 -0.1193 -0.1755  0.0438
  108MOL    C8945243   6.652   2.536   5.376  0.6186  0.4473 -0.0769
  108MOL    C9045244   6.591   2.634   5.481  0.0547  0.2743 -0.0530
  108MOL    C9145245   6.653   2.609   5.237  0.1186 -0.0296 -0.1261
  108MOL    C9245246   6.796   2.498   5.408 -0.2053  0.2959 -0.3190
  108MOL    H9345247   6.435   2.201   5.343  0.1270 -2.1286  1.4091
  108MOL    H9445248   6.329   2.165   5.473 -1.3380 -1.6969 -2.8351
  108MOL    H9545249   6.399   2.436   5.503  0.2843 -0.6430  0.6385
  108MOL    H9645250   6.485   2.449   5.283 -0.3681 -0.3775  0.1884
  108MOL    H9745251   6.619   2.332   5.312  0.6099 -0.2560  1.2042
  108MOL    H9845252   6.591   2.589   5.580 -0.0329  0.4569  0.0298
  108MOL    H9945253   6.493   2.668   5.448  0.0044  1.6288  1.4678
  108MOL   H10045254   6.654   2.722   5.495  1.7479 -0.9409  0.1947
  108MOL   H10145255   6.562   2.657   5.200 -0.5343  0.4396  2.0161
  108MOL   H10245256   6.720   2.693   5.248 -0.7573  0.6435  0.1754
  108MOL   H10345257   6.686   2.537   5.162 -2.2010 -1.2625 -0.0368
  108MOL   H10445258   6.863   2.583   5.423 -0.3259  0.0934  1.5023
  108MOL   H10545259   6.799   2.430   5.493  0.3602 -2.0983 -2.2294
  108MOL   H10645260   6.831   2.432   5.329 -1.7381 -1.8275  0.7380
  108MOL   C10745261   6.563   2.301   5.583 -0.2328  0.3846 -0.1850
  108MOL   C10845262   6.507   2.266   5.725 -0.2667  0.5822 -0.5411
  108MOL   C10945263   6.618   2.220   5.827  0.2742  0.4836 -0.0167
  108MOL   C11045264   6.698   2.087   5.810  0.2851 -0.0289  0.5960
  108MOL   C11145265   6.796   2.097   5.690  0.9044 -0.6194  0.7566
  108MOL   C11245266   6.606   1.968   5.784 -0.0068 -0.5609 -0.0590
  108MOL   C11345267   6.780   2.057   5.938 -0.0324 -0.4144 -0.4935
  108MOL   H11445268   6.649   2.366   5.596 -0.1917  0.6016 -1.4692
  108MOL   H11545269   6.613   2.217   5.536 -0.8772 -0.2268  0.1969
  108MOL   H11645270   6.441   2.179   5.717  2.0425 -1.0421 -2.4465
  108MOL   H11745271   6.689   2.295   5.861  0.0318  0.5647  0.3133
  108MOL   H11845272   6.562   2.208   5.920 -0.5082  0.7217 -0.4539
  108MOL   H11945273   6.764   2.040   5.603 -3.9090  2.8079  0.1079
  108MOL   H12045274   6.805   2.197   5.648  0.3228 -0.0315  1.9915
  108MOL   H12145275   6.893   2.053   5.714  1.2216 -0.7404 -0.6963
  108MOL   H12245276   6.556   1.944   5.878  0.3867 -0.3209  0.2155
  108MOL   H12345277   6.670   1.884   5.755 -0.2003 -0.6661 -0.1843
  108MOL   H12445278   6.529   1.982   5.709 -1.0619 -0.7134  0.9853
  108MOL   H12545279   6.851   2.137   5.960  2.5033 -1.8895 -2.9888
  108MOL   H12645280   6.843   1.969   5.928 -1.0779 -1.4638  1.7906
  108MOL   H12745281   6.716   2.030   6.022 -0.0086  0.6261 -0.1350
  108MOL   C12845282   6.439   2.393   5.792  0.2449 -0.0191  0.3984
  108MOL   C12945283   6.337   2.372   5.909  0.3995  0.0088  0.0843
  108MOL   C13045284   6.322   2.513   5.974  0.3099  0.4398  0.7342
  108MOL   C13145285   6.381   2.530   6.113  0.6350  0.5184  0.5778
  108MOL   C13245286   6.524   2.493   6.115 -0.1253  0.2198  0.1665
  108MOL   C13345287   6.303   2.451   6.212  0.0110  0.4593 -0.6669
  108MOL   C13445288   6.368   2.681   6.147 -0.4771  0.1608 -0.1771
  108MOL   H13545289   6.386   2.451   5.716 -0.4880 -1.6581 -0.3701
  108MOL   H13645290   6.522   2.458   5.822  1.5197 -1.2584 -0.3509
  108MOL   H13745291   6.384   2.294   5.970  2.2601 -0.9968 -2.5201
  108MOL   H13845292   6.372   2.586   5.910 -0.3694 -0.0088 -0.3216
  108MOL   H13945293   6.216   2.535   5.969 -0.0164 -1.2138  0.1894
  108MOL   H14045294   6.590   2.519   6.198 -0.7323  1.1556  0.3619
  108MOL   H14145295   6.574   2.526   6.024 -2.7240 -0.0944 -1.4211
  108MOL   H14245296   6.535   2.384   6.118  1.9699  0.4050  0.4218
  108MOL   H14345297   6.350   2.356   6.237  1.2686  1.2079 -0.0976
  108MOL   H14445298   6.199   2.436   6.185 -1.0655 -1.2001  3.9259
  108MOL   H14545299   6.298   2.504   6.307 -1.3355  0.1642 -0.5603
  108MOL   H14645300   6.425   2.716   6.233  0.0293 -2.6833  0.6947
  108MOL   H14745301   6.419   2.740   6.071 -0.0333 -0.4939 -0.3971
  108MOL   H14845302   6.271   2.725   6.169  0.3334  1.7416  0.2892
  108MOL   C14945303   6.209   2.315   5.853  0.6232 -0.0057  0.5019
  108MOL   C15045304   6.108   2.268   5.954  0.2568 -0.2306 -0.1493
  108MOL   C15145305   5.962   2.251   5.886  0.4881  0.5173 -0.3281
  108MOL   C15245306   5.863   2.369   5.882 -0.2365 -0.7663 -0.1990
  108MOL   C15345307   5.813   2.382   6.023 -0.9783  0.4480  0.0910
  108MOL   C15445308   5.747   2.336   5.792 -0.1341  0.0458  0.0918
  108MOL   C15545309   5.929   2.500   5.828 -0.1608  0.4313 -0.6115
  108MOL   H15645310   6.224   2.228   5.789 -1.9259  1.0973 -1.7077
  108MOL   H15745311   6.170   2.387   5.780 -0.3485  0.8137  1.8204
  108MOL   H15845312   6.090   2.347   6.027 -0.3240  0.3297 -0.8888
  108MOL   H15945313   5.907   2.177   5.945  0.4386 -0.0817 -1.1181
  108MOL   H16045314   5.966   2.227   5.780  1.0240  1.7522 -0.6000
  108MOL   H16145315   5.773   2.481   6.045 -1.0454  0.5807 -0.6222
  108MOL   H16245316   5.735   2.309   6.042 -1.9410  1.4707  0.1151
  108MOL   H16345317   5.895   2.372   6.095  1.1934  0.0244 -2.3738
  108MOL   H16445318   5.696   2.432   5.787 -0.7955 -0.2061  1.6938
  108MOL   H16545319   5.674   2.265   5.833 -0.4810 -0.1004 -0.7609
  108MOL   H16645320   5.783   2.302   5.695  2.7090  1.4422  0.6065
  108MOL   H16745321   6.010   2.522   5.898 -1.1784 -1.8873  1.3583
  108MOL   H16845322   5.975   2.505   5.729  0.1228 -0.0118 -0.5012
  108MOL   H16945323   5.860   2.585   5.822  1.0031  1.3891 -0.5665
  108MOL   C17045324   6.143   2.134   6.030 -0.1029  0.8689  0.0206
  108MOL   C17145325   6.136   2.128   6.185  0.2180  0.1527  0.4994
  108MOL   C17245326   6.219   2.007   6.247  0.3160 -0.3824 -0.8161
  108MOL   C17345327   6.369   2.018   6.286  0.5762  0.2534 -0.4483
  108MOL   C17445328   6.444   2.079   6.168 -0.6030  0.6197  0.0551
  108MOL   C17545329   6.408   1.881   6.328 -0.1287 -0.4198  0.7193
  108MOL   C17645330   6.384   2.120   6.395 -0.1009  0.3209  0.1452
  108MOL   H17745331   6.242   2.103   5.997 -0.9150 -0.7872 -0.9368
  108MOL   H17845332   6.085   2.048   5.996 -1.6612  1.5145  0.9742
  108MOL   H17945333   6.161   2.221   6.237 -1.0955  0.3779  0.7682
  108MOL   H18045334   6.177   1.963   6.337  0.4221 -1.6940 -1.3888
  108MOL   H18145335   6.217   1.925   6.175  1.1456 -1.0710 -0.0596
  108MOL   H18245336   6.553   2.072   6.171 -0.5658  0.5691 -1.0493
  108MOL   H18345337   6.422   2.021   6.078 -1.0909 -0.0616  0.6123
  108MOL   H18445338   6.417   2.184   6.155  1.2801  1.2977  1.3920
  108MOL   H18545339   6.393   1.801   6.256  0.6586 -1.8032  2.0758
  108MOL   H18645340   6.514   1.886   6.352  0.1862 -2.4088 -0.1508
  108MOL   H18745341   6.359   1.855   6.421 -0.1117  0.3983  0.9582
  108MOL   H18845342   6.339   2.085   6.488 -1.8670  0.0726 -0.7877
  108MOL   H18945343   6.491   2.119   6.415  0.3376  2.3271 -1.9193
  108MOL   H19045344   6.344   2.221   6.386  1.0366  0.7467 -0.2110
  108MOL   C19145345   5.989   2.105   6.232 -0.3740 -0.1678 -0.4476
  108MOL   C19245346   5.950   2.145   6.374  0.1210 -0.1631  0.6124
  108MOL   C19345347   5.821   2.065   6.411 -0.0425  0.2488  1.1738
  108MOL   C19445348   5.831   1.930   6.489 -0.7065  0.1358  1.0782
  108MOL   C19545349   5.903   1.932   6.623 -0.4181 -0.0109 -0.3837
  108MOL   C19645350   5.905   1.831   6.388  0.4403 -0.0801  0.0434
  108MOL   C19745351   5.682   1.876   6.520 -0.4167  0.4874 -0.5909
  108MOL   H19845352   5.915   2.144   6.162  0.3873  1.6611 -0.2702
  108MOL   H19945353   5.978   1.998   6.211  0.6256 -0.6854  1.5181
  108MOL   H20045354   6.032   2.123   6.442  0.6835 -1.1745 -0.3642
  108MOL   H20145355   5.765   2.058   6.317  0.2521 -1.8368  1.1120
  108MOL   H20245356   5.758   2.133   6.468 -0.9175  1.1907 -0.8679
  108MOL   H20345357   6.004   1.972   6.613 -0.0631 -0.4749  1.1804
  108MOL   H20445358   5.843   1.990   6.693 -0.2479 -2.3153  1.7346
  108MOL   H20545359   5.909   1.833   6.669 -1.2547  0.6550  1.1769
  108MOL   H20645360   5.892   1.740   6.446 -2.1180  0.4588  0.3652
  108MOL   H20745361   5.851   1.820   6.294  0.8466 -2.6758  0.0784
  108MOL   H20845362   6.011   1.844   6.367  0.3186  1.1796  0.1759
  108MOL   H20945363   5.675   1.782   6.574 -0.5980  1.0869  0.4269
  108MOL   H21045364   5.628   1.947   6.583  2.6617  1.9108  0.5176
  108MOL   H21145365   5.620   1.867   6.430 -1.8674 -3.0563  0.6655
  108MOL   C21245366   5.920   2.299   6.370  0.1596 -0.1735 -0.9077
  108MOL   C21345367   5.946   2.388   6.497  0.0052 -0.0645  0.0959
  108MOL   C21445368   5.863   2.516   6.508  0.5101 -0.0396  0.1413
  108MOL   C21545369   5.716   2.512   6.560  0.3197 -0.1970  0.1700
  108MOL   C21645370   5.645   2.648   6.527  0.4423  0.3488 -0.4148
  108MOL   C21745371   5.625   2.404   6.490 -0.0030 -0.1262 -0.6013
  108MOL   C21845372   5.713   2.470   6.710  0.6868  0.4012 -0.6890
  108MOL   H21945373   5.988   2.339   6.295 -0.4880 -1.5505 -2.2502
  108MOL   H22045374   5.823   2.322   6.326 -0.4826  1.6828  1.3607
  108MOL   H22145375   5.921   2.331   6.587  0.3719 -1.3912 -0.6192
  108MOL   H22245376   5.863   2.557   6.407  0.0598 -0.6763 -0.1205
  108MOL   H22345377   5.912   2.581   6.580 -0.4466 -2.1904  2.8360
  108MOL   H22445378   5.540   2.643   6.555  0.4579  1.3679 -0.1437
  108MOL   H22545379   5.652   2.670   6.421 -0.6040 -1.5382 -0.8948
  108MOL   H22645380   5.686   2.727   6.590  2.6603 -0.1019 -1.2383
  108MOL   H22745381   5.660   2.303   6.512  1.7732  0.6576  0.2614
  108MOL   H22845382   5.529   2.404   6.540 -0.4350  2.6345 -1.3257
  108MOL   H22945383   5.605   2.410   6.383  1.7731 -1.9160 -1.0671
  108MOL   H23045384   5.628   2.496   6.774  1.7418 -1.6901  1.6457
  108MOL   H23145385   5.792   2.525   6.761  0.3778  2.4180 -2.3313
  108MOL   H23245386   5.734   2.364   6.719  1.7655  0.6887  0.3319
  108MOL   C23345387   6.096   2.428   6.504  0.5021 -0.0582  0.2864
  108MOL   C23445388   6.147   2.502   6.627 -0.6793 -0.0398  0.5466
  108MOL   C23545389   6.284   2.446   6.684  0.3148 -0.2842  0.7425
  108MOL   C23645390   6.284   2.324   6.782  0.3486  0.8656 -0.7748
  108MOL   C23745391   6.425   2.271   6.786  0.0052  0.1535 -0.0599
  108MOL   C23845392   6.240   2.381   6.918  0.2247  0.7930  0.2257
  108MOL   C23945393   6.185   2.213   6.746 -0.1426  0.8197  0.4150
  108MOL   H24045394   6.112   2.493   6.418 -1.4104 -3.2708 -2.5920
  108MOL   H24145395   6.163   2.342   6.494 -1.9035 -1.7976 -1.4450
  108MOL   H24245396   6.068   2.485   6.701 -0.3504 -0.0809  0.8917
  108MOL   H24345397   6.348   2.423   6.598 -0.1295  0.8139  0.1180
  108MOL   H24445398   6.342   2.524   6.734  0.0149  1.5649 -1.7072
  108MOL   H24545399   6.421   2.173   6.833 -1.4156 -1.0519 -2.5922
  108MOL   H24645400   6.490   2.338   6.843 -0.1388  0.9962 -0.8631
  108MOL   H24745401   6.463   2.264   6.684 -0.0339  1.5321 -0.1843
  108MOL   H24845402   6.284   2.477   6.943  3.0051 -0.4315  0.1945
  108MOL   H24945403   6.132   2.388   6.904  0.0242 -1.8837 -0.0026
  108MOL   H25045404   6.259   2.310   6.999 -2.1520 -1.4686 -1.0914
  108MOL   H25145405   6.201   2.157   6.654  1.0808 -1.4771  1.9964
  108MOL   H25245406   6.186   2.138   6.825 -0.5115 -0.2184 -0.5545
  108MOL   H25345407   6.084   2.253   6.755 -0.4681 -0.0365  0.5859
  108MOL   C25445408   6.155   2.654   6.599  0.1052  0.8411 -0.8992
  108MOL   C25545409   6.160   2.743   6.725  0.6455  0.1413 -0.0873
  108MOL   C25645410   6.020   2.749   6.792 -0.1023 -0.1695  0.3128
  108MOL   C25745411   5.995   2.783   6.943 -0.7336 -0.4588 -0.3893
  108MOL   C25845412   6.055   2.669   7.022 -1.0036  0.5608 -0.5962
  108MOL   C25945413   5.842   2.776   6.969  0.5720  0.2298 -0.1662
  108MOL   C26045414   6.044   2.918   6.988 -0.6932  0.4958  0.0550
  108MOL   H26145415   6.076   2.695   6.537  0.5022  1.4392 -1.0111
  108MOL   H26245416   6.242   2.664   6.535  0.6500 -1.2109 -0.5189
  108MOL   H26345417   6.229   2.696   6.795  0.2452 -0.3994 -0.0512
  108MOL   H26445418   5.968   2.827   6.736 -0.2209 -1.6779 -1.7587
  108MOL   H26545419   5.966   2.656   6.777 -2.4065  0.8329  2.1226
  108MOL   H26645420   6.016   2.571   6.991  0.1184 -0.4554  1.1086
  108MOL   H26745421   6.026   2.667   7.128  0.7232 -1.9113 -0.1411
  108MOL   H26845422   6.161   2.650   7.006 -0.5009  2.0902  0.8125
  108MOL   H26945423   5.806   2.675   6.953 -0.4577  0.5483  0.1034
  108MOL   H27045424   5.783   2.849   6.913  0.6169  0.3465 -0.0609
  108MOL   H27145425   5.825   2.804   7.073 -0.9024 -1.3705  0.0444
  108MOL   H27245426   6.153   2.919   6.988 -0.6594  0.5838  2.5515
  108MOL   H27345427   6.022   3.007   6.929 -2.6261 -1.5145 -2.3253
  108MOL   H27445428   6.025   2.943   7.093 -3.1472  0.9472 -0.4534
  108MOL   C27545429   6.209   2.888   6.685 -0.3658  0.5655 -0.3668
  108MOL   C27645430   6.360   2.907   6.649 -0.0300  0.9169 -0.0228
  108MOL   C27745431   6.379   3.056   6.584 -0.0578  0.2285 -0.4024
  108MOL   C27845432   6.404   3.061   6.430  0.3705  0.1188 -0.5719
  108MOL   C27945433   6.539   3.007   6.396  0.1828  0.1281 -0.5598
  108MOL   C28045434   6.302   2.974   6.356  0.0783 -0.0210  0.3459
  108MOL   C28145435   6.401   3.205   6.386  0.2740 -0.6959 -0.4240
  108MOL   H28245436   6.148   2.916   6.600 -1.7702  1.9240  1.0571
  108MOL   H28345437   6.191   2.952   6.771  0.0781 -3.2005  2.7084
  108MOL   H28445438   6.390   2.836   6.572 -1.5608  2.2156 -1.8489
  108MOL   H28545439   6.466   3.105   6.627  0.6658  0.1821 -1.7769
  108MOL   H28645440   6.287   3.112   6.600  0.2663  0.5654  0.2980
  108MOL   H28745441   6.554   2.911   6.446  0.5733  1.0184  1.0693
  108MOL   H28845442   6.550   2.996   6.288  1.2197 -2.4470 -0.2467
  108MOL   H28945443   6.621   3.072   6.428  1.4758 -1.2320 -1.0044
  108MOL   H29045444   6.307   2.974   6.247  1.8145 -0.8871  0.4052
  108MOL   H29145445   6.200   2.995   6.389  0.9214  0.7550  2.5303
  108MOL   H29245446   6.311   2.870   6.388 -0.6063 -0.2611 -0.2133
  108MOL   H29345447   6.425   3.212   6.279  0.2566  0.3235 -0.3667
  108MOL   H29445448   6.475   3.264   6.439 -0.1580  1.6570 -2.3508
  108MOL   H29545449   6.303   3.243   6.416  2.3794  2.8530  2.3002
  108MOL   C29645450   6.432   2.882   6.780  0.4677  0.3033  0.0627
  108MOL   C29745451   6.574   2.826   6.767  0.5800 -0.2799  0.5794
  108MOL   C29845452   6.589   2.681   6.716 -0.2820 -0.4710  0.5585
  108MOL   C29945453   6.725   2.637   6.644 -0.2973  0.2828  0.9182
  108MOL   C30045454   6.822   2.566   6.741  0.0805 -0.0465 -0.4883
  108MOL   C30145455   6.694   2.534   6.534  0.7585  0.1826 -0.0040
  108MOL   C30245456   6.787   2.755   6.562 -0.4516 -0.1242 -0.0071
  108MOL   H30345457   6.376   2.826   6.854 -0.8390 -0.0196 -1.1361
  108MOL   H30445458   6.443   2.983   6.819 -1.5702  0.3426  0.6089
  108MOL   H30545459   6.616   2.894   6.693 -1.8075 -1.0138 -1.5365
  108MOL   H30645460   6.505   2.677   6.646 -0.1760  0.4248  0.3780
  108MOL   H30745461   6.558   2.612   6.794  0.1498 -2.2733 -0.8254
  108MOL   H30845462   6.769   2.480   6.784  2.1728 -1.3882 -0.5299
  108MOL   H30945463   6.907   2.522   6.689  1.2066 -0.4548  1.6789
  108MOL   H31045464   6.868   2.635   6.811  0.5714  1.7097 -2.4782
  108MOL   H31145465   6.629   2.572   6.456 -0.3870  0.5397  1.1230
  108MOL   H31245466   6.785   2.510   6.479 -0.2867 -0.8603 -1.2975
  108MOL   H31345467   6.658   2.438   6.573  0.4463 -0.0213 -0.7896
  108MOL   H31445468   6.821   2.839   6.622 -1.8659  0.6560 -0.2677
  108MOL   H31545469   6.877   2.728   6.507  0.8742  1.8859  1.1279
  108MOL   H31645470   6.712   2.804   6.499 -1.3634 -0.6964  0.6144
  108MOL   C31745471   6.657   2.840   6.899  0.0463 -0.6194 -1.1499
  108MOL   C31845472   6.703   2.982   6.946 -0.5735  0.5898 -0.2602
  108MOL   C31945473   6.759   2.980   7.090  0.1563 -0.3397  0.6886
  108MOL   C32045474   6.671   2.983   7.217 -1.0076 -0.5581 -0.3802
  108MOL   C32145475   6.612   3.128   7.248 -0.7597  0.6050 -0.3152
  108MOL   C32245476   6.772   2.956   7.341  0.6919  0.2926  1.0516
  108MOL   C32345477   6.557   2.886   7.208  0.1417  0.4848  0.5624
  108MOL   H32445478   6.587   2.797   6.970 -1.9907 -0.6379 -3.1129
  108MOL   H32545479   6.751   2.785   6.885  2.3049  2.6317  0.5411
  108MOL   H32645480   6.615   3.045   6.955  1.1763  2.6126  4.0381
  108MOL   H32745481   6.837   3.055   7.092  1.3042 -1.4438 -0.8156
  108MOL   H32845482   6.810   2.884   7.096  0.1016 -0.4351 -0.1967
  108MOL   H32945483   6.687   3.204   7.270 -0.3554 -0.5935  2.7081
  108MOL   H33045484   6.542   3.128   7.330 -2.1808 -2.6477 -1.4544
  108MOL   H33145485   6.561   3.158   7.157 -1.3274  0.7421  0.0507
  108MOL   H33245486   6.788   2.848   7.338 -0.9164  0.0232  1.5584
  108MOL   H33345487   6.862   3.018   7.344  1.0410 -0.0405 -1.8547
  108MOL   H33445488   6.726   2.969   7.439  0.9663 -2.6755  1.6116
  108MOL   H33545489   6.481   2.906   7.132  0.8396  0.3484 -0.1841
  108MOL   H33645490   6.510   2.891   7.306  0.2536  1.5639  0.5637
  108MOL   H33745491   6.599   2.785   7.210 -0.6032  0.1830  1.3657
  108MOL   C33845492   6.817   3.039   6.859  0.0369 -0.2072 -0.2217
  108MOL   C33945493   6.820   3.189   6.855 -0.0594 -0.0389 -0.2030
  108MOL   C34045494   6.706   3.250   6.776  0.2924 -0.6251  0.2841
  108MOL   C34145495   6.655   3.392   6.806  0.3487 -0.2242 -0.0563
  108MOL   C34245496   6.580   3.387   6.946 -0.3490  0.8062 -0.0501
  108MOL   C34345497   6.769   3.486   6.800  0.5276  0.0330 -0.9967
  108MOL   C34445498   6.541   3.437   6.712  0.4124 -0.2723  0.2075
  108MOL   H34545499   6.819   2.984   6.765  0.2590 -1.0693  0.2828
  108MOL   H34645500   6.910   2.998   6.898  0.7362  1.5093 -0.0498
  108MOL   H34745501   6.809   3.229   6.956  3.4330  0.3044  0.1161
  108MOL   H34845502   6.619   3.185   6.773 -1.1331  1.2777 -0.6680
  108MOL   H34945503   6.738   3.258   6.672 -1.4380 -2.5407 -0.4098
  108MOL   H35045504   6.647   3.359   7.027  0.7413 -0.3048 -1.2849
  108MOL   H35145505   6.534   3.477   6.983 -0.3920  1.1929 -1.0218
  108MOL   H35245506   6.494   3.321   6.943  0.3169 -0.0795 -0.0601
  108MOL   H35345507   6.796   3.504   6.695  0.0973 -0.9159 -1.2703
  108MOL   H35445508   6.738   3.581   6.844 -1.1129 -1.5548  1.3572
  108MOL   H35545509   6.853   3.462   6.864 -0.4691 -0.3179  0.1985
  108MOL   H35645510   6.460   3.486   6.767  0.9873  0.5741  0.3131
  108MOL   H35745511   6.573   3.490   6.622 -1.4892  1.8680  0.7351
  108MOL   H35845512   6.501   3.347   6.666 -2.1032  0.5835  0.6523
  108MOL   C35945513   6.966   3.221   6.802  0.5585 -0.0956 -0.4965
  108MOL   C36045514   7.085   3.200   6.896  0.3661 -0.8865  0.0168
  108MOL   C36145515   7.075   3.306   7.012  0.0426 -0.2314 -0.0355
  108MOL   C36245516   7.135   3.278   7.154 -0.6284  0.4303 -0.6368
  108MOL   C36345517   7.289   3.260   7.154  0.1570 -0.2696  0.0029
  108MOL   C36445518   7.063   3.158   7.222  0.0576  0.4003  1.0566
  108MOL   C36545519   7.111   3.404   7.235 -0.9640  0.0693  0.2542
  108MOL   H36645520   6.970   3.326   6.773  0.6852  0.4811  1.5295
  108MOL   H36745521   6.980   3.173   6.705 -1.5024  1.3356 -1.5208
  108MOL   H36845522   7.072   3.100   6.939  2.3821 -1.4992 -0.7027
  108MOL   H36945523   7.106   3.405   6.977  2.9024 -0.7402  0.9338
  108MOL   H37045524   6.972   3.322   7.044 -0.7077 -1.0772 -1.9769
  108MOL   H37145525   7.349   3.341   7.113 -0.1317 -1.1382 -2.2128
  108MOL   H37245526   7.336   3.246   7.251 -0.7929  1.5675  0.7506
  108MOL   H37345527   7.311   3.170   7.097 -1.6194 -0.6175 -0.1596
  108MOL   H37445528   7.096   3.064   7.176  1.4281  1.9498 -1.2694
  108MOL   H37545529   6.955   3.170   7.211  0.3537  0.5423 -2.4039
  108MOL   H37645530   7.085   3.138   7.327 -3.1283  2.1947  2.1167
  108MOL   H37745531   7.003   3.416   7.245 -1.0283  0.3059 -0.6495
  108MOL   H37845532   7.154   3.495   7.193 -1.2036 -0.4300 -1.1008
  108MOL   H37945533   7.153   3.390   7.334 -1.6384 -2.0134  0.2694
  108MOL   C38045534   7.218   3.213   6.821 -0.3478  0.2144 -0.2583
  108MOL   C38145535   7.284   3.080   6.766 -0.4807  0.4676 -0.8725
  108MOL   C38245536   7.305   2.969   6.864 -0.0528  0.2485 -0.3880
  108MOL   C38345537   7.293   2.820   6.821  0.7394 -0.6881 -1.0797
  108MOL   C38445538   7.381   2.779   6.703  0.1077 -1.7503  0.1132
  108MOL   C38545539   7.148   2.785   6.788  0.7180 -0.0883 -0.4642
  108MOL   C38645540   7.329   2.732   6.945  0.4058 -0.3199  0.2536
  108MOL   H38745541   7.292   3.276   6.869  2.9704 -2.2883 -1.8696
  108MOL   H38845542   7.196   3.271   6.731 -1.9731  0.9365  0.5907
  108MOL   H38945543   7.215   3.040   6.691  1.7266 -3.2222 -1.0455
  108MOL   H39045544   7.397   2.996   6.916  0.1266  0.0021 -0.5725
  108MOL   H39145545   7.247   2.984   6.954  4.0102  1.3484  2.1663
  108MOL   H39245546   7.361   2.681   6.660  0.2416 -0.5345 -2.9268
  108MOL   H39345547   7.365   2.849   6.620 -1.0470 -0.9011  1.0380
  108MOL   H39445548   7.485   2.788   6.733 -0.3787 -1.1582  1.6651
  108MOL   H39545549   7.116   2.835   6.697 -1.3069 -1.0309 -0.3041
  108MOL   H39645550   7.077   2.799   6.870 -0.5492 -0.4392 -1.4806
  108MOL   H39745551   7.126   2.678   6.785 -0.5088 -0.0421  3.8118
  108MOL   H39845552   7.274   2.769   7.032 -1.3678 -0.9945 -0.5522
  108MOL   H39945553   7.432   2.763   6.965 -0.1370  1.2991  0.6324
  108MOL   H40045554   7.318   2.625   6.926 -0.5777 -0.4699  1.5906
  108MOL   C40145555   7.408   3.116   6.684 -0.1340 -0.3489  0.2607
  108MOL   C40245556   7.376   3.181   6.551  0.7685 -0.6776  1.1330
  108MOL   C40345557   7.502   3.209   6.471 -0.6244 -0.3534 -0.0622
  108MOL   C40445558   7.505   3.288   6.341 -0.0016  0.2431  0.2848
  108MOL   C40545559   7.413   3.415   6.361  0.2880  0.0683  0.2935
  108MOL   C40645560   7.456   3.201   6.225 -0.0026  0.2659  0.2026
  108MOL   C40745561   7.647   3.341   6.299 -0.5051 -0.0456 -0.6241
  108MOL   H40845562   7.461   3.191   6.742  0.8381  0.4839 -1.6796
  108MOL   H40945563   7.477   3.033   6.675 -1.3068 -1.0716 -2.5995
  108MOL   H41045564   7.304   3.129   6.488  1.9072 -1.0681  0.1299
  108MOL   H41145565   7.552   3.117   6.443  0.6640  0.4378 -0.4356
  108MOL   H41245566   7.574   3.260   6.536  0.9365 -0.1713 -1.8718
  108MOL   H41345567   7.422   3.483   6.276  1.1688  1.4736  1.4914
  108MOL   H41445568   7.445   3.480   6.442  0.2372  1.6793 -0.9536
  108MOL   H41545569   7.306   3.394   6.362 -0.3870  3.2676 -0.2262
  108MOL   H41645570   7.521   3.113   6.216 -1.2338 -0.5567 -0.8512
  108MOL   H41745571   7.469   3.251   6.129 -1.5747 -0.8667 -0.6265
  108MOL   H41845572   7.358   3.153   6.225 -0.3250  0.9143 -0.6238
  108MOL   H41945573   7.717   3.258   6.305 -2.5378 -1.8292 -0.8033
  108MOL   H42045574   7.651   3.383   6.198 -0.0666 -0.0078 -0.5905
  108MOL   H42145575   7.690   3.417   6.364 -1.7088  0.5480 -0.4980
  108MOL   H42245576   7.325   3.276   6.565  1.9735  0.5440 -2.3128
  109MOL     C145577   7.565   1.957   7.090 -0.7062  0.3368 -0.1932
  109MOL     C245578   7.629   2.093   7.133 -0.6942 -0.0038 -0.7206
  109MOL     C345579   7.718   2.165   7.021  0.3252  0.0331  0.2873
  109MOL     C445580   7.635   2.255   6.920  0.5195  0.1573 -0.1730
  109MOL     C545581   7.522   2.343   6.977 -0.4931 -0.6713  0.6661
  109MOL     C645582   7.729   2.342   6.829  0.2841 -0.2350 -0.0028
  109MOL     C745583   7.572   2.155   6.819 -0.0500  0.1766  0.3271
  109MOL     H845584   7.496   1.970   7.007  0.1234  2.8585 -0.5259
  109MOL     H945585   7.652   1.896   7.062 -1.8577 -1.9460  1.0198
  109MOL    H1045586   7.545   2.152   7.168 -1.9838 -1.2071 -1.7119
  109MOL    H1145587   0.022   2.097   6.972 -0.2512 -0.6022  0.3451
  109MOL    H1245588   0.023   2.233   7.068 -1.6117  0.3825  2.8340
  109MOL    H1345589   7.568   2.398   7.059  1.1559 -0.2853 -0.4993
  109MOL    H1445590   7.431   2.292   7.008 -0.9285  0.3948  1.1934
  109MOL    H1545591   7.484   2.415   6.903  0.5128  0.7182  1.4698
  109MOL    H1645592   0.016   2.417   6.887  0.1723  0.2624 -0.5451
  109MOL    H1745593   0.037   2.270   6.793  1.0580  1.7369 -2.4413
  109MOL    H1845594   7.681   2.385   6.741  0.9066 -0.1592 -0.3070
  109MOL    H1945595   7.502   2.086   6.866  1.1140 -1.7707 -0.7126
  109MOL    H2045596   7.639   2.086   6.767 -0.0296 -0.1497  0.7850
  109MOL    H2145597   7.517   2.219   6.750  2.1800  1.0816 -0.6517
  109MOL    H2245598   7.518   1.907   7.174  1.6969 -0.4389  0.7621
  109MOL    C2345599   7.723   2.072   7.257  0.4827 -0.5001 -1.2008
  109MOL    C2445600   7.691   2.176   7.363 -0.7316 -0.5155  0.0079
  109MOL    C2545601   0.042   2.187   7.464  0.6454  0.3007  0.5900
  109MOL    C2645602   0.148   2.299   7.441 -0.0930  0.1657  0.2928
  109MOL    C2745603   0.087   2.440   7.431  0.3553  0.4870  0.3890
  109MOL    C2845604   0.257   2.288   7.557 -0.4168  0.6039  0.0288
  109MOL    C2945605   0.221   2.280   7.305  0.4176  0.2000  0.1331
  109MOL    H3045606   7.711   1.972   7.299  0.9987 -0.6442 -1.3894
  109MOL    H3145607   0.063   2.088   7.237  1.3919 -1.4073  2.4948
  109MOL    H3245608   7.685   2.276   7.321  1.5815 -1.2277 -2.1467
  109MOL    H3345609   0.097   2.093   7.475 -0.7969 -0.4122  1.9707
  109MOL    H3445610   0.005   2.200   7.566 -1.9722  0.3688 -0.3458
  109MOL    H3545611   0.159   2.519   7.411 -0.6645  1.6407  1.1813
  109MOL    H3645612   0.012   2.444   7.352 -0.3513 -0.0750  1.0198
  109MOL    H3745613   0.044   2.469   7.527 -0.3811  0.1947  0.1530
  109MOL    H3845614   0.329   2.368   7.538 -2.2819  1.8487 -2.0675
  109MOL    H3945615   0.203   2.297   7.651  0.3517  1.2839  0.4069
  109MOL    H4045616   0.308   2.192   7.566 -1.5188 -0.2227 -2.1335
  109MOL    H4145617   0.299   2.355   7.295  0.3351  0.3840  0.8391
  109MOL    H4245618   0.156   2.289   7.219  1.7464 -0.6278 -0.9920
  109MOL    H4345619   0.265   2.180   7.310  0.7687  0.1958 -2.2777
  109MOL    C4445620   7.561   2.144   7.437 -0.7119 -0.9686  0.1363
  109MOL    C4545621   7.499   2.265   7.506 -0.1409  0.3647  0.1627
  109MOL    C4645622   7.395   2.230   7.614 -0.4616 -0.4161 -0.5616
  109MOL    C4745623   7.434   2.235   7.764 -0.2412 -0.1009  0.0435
  109MOL    C4845624   7.460   2.379   0.044 -0.3951  0.7369  0.4046
  109MOL    C4945625   7.545   2.142   0.035  0.1821 -0.0096  0.2818
  109MOL    C5045626   7.305   2.189   0.075 -0.6156  0.2992  0.1571
  109MOL    H5145627   7.491   2.092   7.372 -3.1112  1.9567  0.2558
  109MOL    H5245628   7.575   2.072   7.518 -1.6028 -0.4248  0.7853
  109MOL    H5345629   7.572   2.327   7.559 -0.1946  2.2902 -1.9375
  109MOL    H5445630   7.356   2.130   7.599  0.4268 -1.0907  1.4177
  109MOL    H5545631   7.309   2.296   7.603 -1.5600 -1.6917  0.2898
  109MOL    H5645632   7.556   2.415   0.007  0.4588 -2.4535 -0.6657
  109MOL    H5745633   7.461   2.383   0.153  0.5270  1.6558  0.3697
  109MOL    H5845634   7.386   2.446   0.002 -1.6311 -0.6043  0.4163
  109MOL    H5945635   7.518   2.037   0.046  0.0512  0.1490  1.5510
  109MOL    H6045636   7.636   2.147   7.740  0.8277  0.2759  1.2631
  109MOL    H6145637   7.579   2.165   0.136  1.3673  1.7250 -0.4865
  109MOL    H6245638   7.337   2.186   0.180 -1.2928  0.6482  0.3776
  109MOL    H6345639   7.219   2.256   0.071  0.3234  1.4164 -1.8111
  109MOL    H6445640   7.276   2.088   0.049  0.3338 -0.2260  1.0670
  109MOL    C6545641   7.429   2.342   7.395  0.2773 -0.4664  0.1747
  109MOL    C6645642   7.388   2.487   7.440  0.9020  0.6824  0.4087
  109MOL    C6745643   7.294   2.534   7.322  0.3825  0.0480 -0.0589
  109MOL    C6845644   7.140   2.534   7.354  0.7146 -0.1765  0.3329
  109MOL    C6945645   7.080   2.400   7.413 -0.2140 -0.2368 -0.1008
  109MOL    C7045646   7.099   2.652   7.443  0.1433  0.0726 -0.4776
  109MOL    C7145647   7.072   2.562   7.219 -0.1476  0.1619  0.1087
  109MOL    H7245648   7.479   2.353   7.298 -3.5785  2.5081 -1.6227
  109MOL    H7345649   7.340   2.285   7.370  1.7866 -3.4159  1.2270
  109MOL    H7445650   7.332   2.488   7.533 -1.6869 -2.1676 -1.0287
  109MOL    H7545651   7.304   2.465   7.237 -2.3755 -0.4103 -0.0866
  109MOL    H7645652   7.332   2.629   7.284 -0.5293  0.4225 -0.0488
  109MOL    H7745653   7.093   2.317   7.342 -0.2355  0.2868 -0.7240
  109MOL    H7845654   7.127   2.381   7.509  1.0705 -0.5411 -0.7709
  109MOL    H7945655   6.971   2.405   7.413 -0.1369  1.7423  0.7991
  109MOL    H8045656   7.147   2.742   7.404  0.8722 -0.0902  0.0345
  109MOL    H8145657   7.125   2.626   7.546 -1.0432 -0.0668 -0.2074
  109MOL    H8245658   6.993   2.678   7.437  0.2157  1.4550  2.9180
  109MOL    H8345659   7.119   2.644   7.165  0.8147  0.7735  1.8166
  109MOL    H8445660   6.964   2.575   7.229  0.0380  1.4038  0.6469
  109MOL    H8545661   7.086   2.475   7.156 -0.0449  0.6009 -0.4765
  109MOL    C8645662   7.514   2.572   7.449 -0.1631 -0.0998  0.5538
  109MOL    C8745663   7.506   2.715   7.511 -0.0537  0.2099 -0.2853
  109MOL    C8845664   7.643   2.788   7.494 -0.0531  0.1437 -1.0608
  109MOL    C8945665   7.675   2.886   7.378  0.3174 -0.1951 -0.8700
  109MOL    C9045666   0.054   2.921   7.405 -0.0156  0.1227 -0.5143
  109MOL    C9145667   7.587   3.017   7.407  0.0833  0.2721  0.6028
  109MOL    C9245668   7.644   2.830   7.238 -0.2934  0.1465 -0.3062
  109MOL    H9345669   7.567   2.592   7.356  0.9035 -0.7508  1.0131
  109MOL    H9445670   7.591   2.531   7.514  0.7900  0.3289 -0.2795
  109MOL    H9545671   7.427   2.771   7.461 -1.4436  1.5657  3.3106
  109MOL    H9645672   7.718   2.709   7.504 -1.2604 -1.1380 -1.8476
  109MOL    H9745673   7.648   2.840   7.590  1.2841  0.8694 -1.5151
  109MOL    H9845674   0.107   2.982   7.331  2.6576  0.9149  1.9707
  109MOL    H9945675   0.117   2.832   7.408  0.7072  0.6484  0.4168
  109MOL   H10045676   0.054   2.975   7.500 -0.3264  1.0446 -1.0275
  109MOL   H10145677   7.481   2.991   7.399  0.2507  0.2650 -1.9634
  109MOL   H10245678   7.606   3.047   7.510  1.7797 -0.3193  0.4755
  109MOL   H10345679   7.597   3.097   7.335 -0.5363  0.4912  0.7532
  109MOL   H10445680   7.668   2.901   7.159 -0.4591 -1.1216 -1.5247
  109MOL   H10545681   7.698   2.735   7.226 -0.7567  0.2295 -3.7199
  109MOL   H10645682   7.541   2.796   7.236 -0.0828 -0.4818 -1.0087
  109MOL   C10745683   7.451   2.723   7.652  0.0087 -0.1445  0.7717
  109MOL   C10845684   7.389   2.857   7.712 -0.7665  0.0540 -0.1592
  109MOL   C10945685   7.247   2.881   7.670 -0.0509  0.8635  0.2831
  109MOL   C11045686   7.185   3.028   7.675  0.2971  0.1253 -0.1652
  109MOL   C11145687   7.053   3.019   7.600  0.1948 -0.2446 -0.1341
  109MOL   C11245688   7.273   3.125   7.599 -0.4615 -0.0871 -0.2624
  109MOL   C11345689   7.155   3.082   0.052 -0.2745  0.1198  0.3594
  109MOL   H11445690   7.537   2.685   7.708  0.9467 -0.0412 -0.5906
  109MOL   H11545691   7.377   2.643   7.657 -0.1943 -0.0800 -1.0127
  109MOL   H11645692   7.452   2.938   7.676 -0.8812  0.1953 -0.0440
  109MOL   H11745693   7.246   2.845   7.568  1.8057  1.2468  0.0985
  109MOL   H11845694   7.185   2.809   7.722  0.1240 -1.5474 -2.7528
  109MOL   H11945695   7.015   3.120   7.584  2.9827  1.4000  3.0032
  109MOL   H12045696   7.070   2.969   7.504  0.9967  0.5778 -0.4327
  109MOL   H12145697   6.974   2.960   7.645 -0.2845  0.1825 -0.4182
  109MOL   H12245698   7.238   3.226   7.579  1.6334  0.6780 -0.1371
  109MOL   H12345699   7.320   3.090   7.507 -0.5170  0.5747 -0.5428
  109MOL   H12445700   7.359   3.141   7.664 -0.2888 -1.5018 -0.1276
  109MOL   H12545701   7.109   3.016   0.125  0.2093  1.9856  2.3924
  109MOL   H12645702   7.087   3.168   0.049 -0.2647  0.2279  2.5821
  109MOL   H12745703   7.242   3.127   0.099 -1.9501 -0.1153  3.8460
  109MOL   C12845704   7.410   2.850   0.108  0.1468 -0.0543 -0.6034
  109MOL   C12945705   7.549   2.894   0.161 -0.0786  0.0115 -0.1401
  109MOL   C13045706   7.580   3.051   0.139  0.0954 -0.6323  0.0055
  109MOL   C13145707   7.723   3.133   0.157  0.1997  0.4002  1.7336
  109MOL   C13245708   0.057   3.059   0.063 -0.2117  0.1129 -0.2903
  109MOL   C13345709   0.006   3.130   0.303  0.2956 -0.0156  0.2637
  109MOL   C13445710   7.712   3.273   0.107  0.2384  0.5021 -0.0424
  109MOL   H13545711   7.378   2.753   0.147 -2.0004  0.8928  0.0840
  109MOL   H13645712   7.336   2.920   0.148 -0.1509 -1.0494  0.6278
  109MOL   H13745713   7.628   2.839   0.109  0.2420 -0.1998  0.5659
  109MOL   H13845714   7.564   3.067   0.033  0.8000 -1.5433 -0.2454
  109MOL   H13945715   7.504   3.105   0.196  0.7195 -0.8142  1.0264
  109MOL   H14045716   0.039   3.092   7.727  0.7274 -0.6098 -0.6926
  109MOL   H14145717   0.049   2.951   0.072 -0.4069  0.2949  1.9127
  109MOL   H14245718   0.162   3.076   0.087 -0.1093  1.1000 -1.3895
  109MOL   H14345719   0.080   3.206   0.327 -2.3832  2.5238  0.7815
  109MOL   H14445720   0.052   3.042   0.349 -0.1405 -0.7089 -0.6154
  109MOL   H14545721   7.685   3.151   0.366 -1.8943  3.4501 -3.6711
  109MOL   H14645722   0.041   3.327   0.107 -0.2432  1.3726  0.2620
  109MOL   H14745723   7.652   3.280   0.016  0.4213  3.2998 -0.0001
  109MOL   H14845724   7.655   3.341   0.171  1.2888  0.4878  0.9200
  109MOL   C14945725   7.556   2.855   0.315 -0.3516  0.5821 -0.4255
  109MOL   C15045726   7.623   2.717   0.336  0.5517  0.4584  0.4424
  109MOL   C15145727   0.012   2.727   0.305  0.2452 -0.2281  0.5974
  109MOL   C15245728   0.086   2.614   0.230 -0.0472  0.7139 -0.2922
  109MOL   C15345729   0.236   2.628   0.250 -0.4716 -0.0205 -0.2170
  109MOL   C15445730   0.058   2.632   0.080 -0.3847  0.5726  0.2292
  109MOL   C15545731   0.045   2.468   0.279 -0.0473  0.4910 -0.1276
  109MOL   H15645732   7.453   2.853   0.350 -0.5645 -0.6369 -1.1068
  109MOL   H15745733   7.623   2.922   0.369  0.2053  0.3110 -0.7778
  109MOL   H15845734   7.573   2.653   0.263  1.3769  0.6862 -0.3278
  109MOL   H15945735   0.066   2.741   0.398 -0.0689  2.4954  0.4032
  109MOL   H16045736   0.030   2.822   0.255  0.4740 -0.2144  0.7058
  109MOL   H16145737   0.271   2.590   0.345 -2.2204  1.5579  1.0917
  109MOL   H16245738   0.288   2.561   0.182  0.9853  0.3123  0.5547
  109MOL   H16345739   0.279   2.728   0.235 -1.5494  0.5571  0.4817
  109MOL   H16445740   0.130   2.591   0.010 -1.4058 -2.1500  0.7039
  109MOL   H16545741   0.038   2.736   0.056 -0.6419  0.5323  0.2619
  109MOL   H16645742   7.732   2.578   0.057  0.5750 -0.7543 -0.6044
  109MOL   H16745743   7.712   2.454   0.236 -1.4764  4.7176  1.5120
  109MOL   H16845744   0.111   2.390   0.239  0.5379  1.1075 -0.3778
  109MOL   H16945745   0.047   2.454   0.387 -1.4562 -1.8823 -0.3813
  109MOL   C17045746   7.607   2.663   0.479  0.2291 -0.3449  0.2810
  109MOL   C17145747   7.470   2.611   0.532  0.0627 -0.4634  0.8691
  109MOL   C17245748   7.476   2.550   0.676  0.7335  0.3131  0.0198
  109MOL   C17345749   7.438   2.632   0.806 -0.2347  0.4437 -0.2211
  109MOL   C17445750   7.547   2.733   0.842  0.3798 -0.2482 -0.4572
  109MOL   C17545751   7.448   2.525   0.911  0.7049 -0.4778 -0.4630
  109MOL   C17645752   7.297   2.686   0.793 -0.3033  0.0482 -0.5516
  109MOL   H17745753   7.653   2.723   0.557 -2.1547  0.3518  1.1865
  109MOL   H17845754   7.676   2.579   0.490 -1.1361 -1.2644  1.9503
  109MOL   H17945755   7.410   2.702   0.540  0.5836 -0.0309 -0.0999
  109MOL   H18045756   7.388   2.487   0.673  0.9426  0.0691 -1.0346
  109MOL   H18145757   7.566   2.492   0.697  0.3543 -0.2549  0.0804
  109MOL   H18245758   7.548   2.800   0.756  0.8495 -0.8625 -0.9369
  109MOL   H18345759   7.517   2.792   0.928 -2.0709 -1.5134 -0.4206
  109MOL   H18445760   7.649   2.695   0.856  0.4486  0.1164  0.0512
  109MOL   H18545761   7.551   2.492   0.923  0.9443  0.4314  0.0364
  109MOL   H18645762   7.422   2.576   1.004 -5.1969  1.3416 -2.8550
  109MOL   H18745763   7.382   2.439   0.915  1.0899 -0.8549 -2.1528
  109MOL   H18845764   7.265   2.730   0.887  0.2940  1.1636 -0.8552
  109MOL   H18945765   7.284   2.773   0.728  0.9146 -0.4569 -1.5039
  109MOL   H19045766   7.223   2.613   0.759  1.2686 -1.0119 -1.8030
  109MOL   C19145767   7.408   2.504   0.439  0.4056  0.6067  0.1429
  109MOL   C19245768   7.255   2.488   0.444 -0.2438  0.2604  0.2907
  109MOL   C19345769   7.196   2.343   0.402 -0.0557 -0.3857 -0.1257
  109MOL   C19445770   7.176   2.238   0.511 -0.0187  0.6995 -0.4524
  109MOL   C19545771   7.308   2.198   0.578  0.9498 -0.7400 -0.4277
  109MOL   C19645772   7.110   2.113   0.446 -0.6873 -0.1529 -0.3694
  109MOL   C19745773   7.073   2.284   0.622  0.0143  0.5097 -0.2741
  109MOL   H19845774   7.429   2.522   0.333 -0.5711 -1.7987 -0.5013
  109MOL   H19945775   7.458   2.410   0.461 -0.3493  0.7143  2.4498
  109MOL   H20045776   7.218   2.497   0.546 -2.4465 -1.7675 -0.2870
  109MOL   H20145777   7.256   2.304   0.321  1.2634 -0.6559  0.9622
  109MOL   H20245778   7.095   2.358   0.363  0.1980  1.8023 -0.0085
  109MOL   H20345779   7.384   2.190   0.500  0.0954  2.1947 -1.6550
  109MOL   H20445780   7.351   2.274   0.643 -0.4938  0.3617 -0.7303
  109MOL   H20545781   7.283   2.110   0.636 -0.3086  0.8680  1.5538
  109MOL   H20645782   7.179   2.050   0.390  3.0127  2.6845  0.8575
  109MOL   H20745783   7.073   2.039   0.516  0.8138 -0.0130  0.5733
  109MOL   H20845784   7.029   2.147   0.381  0.0321  0.3058 -1.0319
  109MOL   H20945785   7.060   2.226   0.713  0.0994 -0.4077 -0.8382
  109MOL   H21045786   7.097   2.382   0.663 -2.0945  1.4915 -1.3420
  109MOL   H21145787   6.977   2.286   0.571  0.0808 -0.8218 -0.4750
  109MOL   C21245788   7.191   2.613   0.362  0.5570 -0.3098 -0.4886
  109MOL   C21345789   7.036   2.627   0.371  1.0333 -0.2254  0.5827
  109MOL   C21445790   6.988   2.693   0.245 -0.0126  0.2311  0.0906
  109MOL   C21545791   6.940   2.599   0.134 -0.7380 -0.1899  0.3443
  109MOL   C21645792   7.054   2.519   0.073 -0.9313  0.2683 -0.3891
  109MOL   C21745793   6.828   2.503   0.182  0.3678 -0.0980 -0.2911
  109MOL   C21845794   6.877   2.693   0.026 -0.2910  0.0616 -0.0196
  109MOL   H21945795   7.219   2.704   0.415 -1.5637  0.3548 -0.4634
  109MOL   H22045796   7.230   2.614   0.260  1.2578 -1.1246 -0.2283
  109MOL   H22145797   6.982   2.534   0.391  0.3228 -0.9429 -4.2200
  109MOL   H22245798   7.063   2.763   0.208  1.9238 -1.4457  0.7580
  109MOL   H22345799   6.901   2.755   0.269  0.1023 -0.2192  1.6974
  109MOL   H22445800   7.151   2.569   0.079  0.1073 -1.2845 -3.3434
  109MOL   H22545801   7.029   2.488   7.738  2.8857 -0.7265 -1.0994
  109MOL   H22645802   7.070   2.430   0.134  0.7438  2.3601  2.3873
  109MOL   H22745803   6.865   2.416   0.236  0.7621  0.2302 -0.0311
  109MOL   H22845804   6.751   2.554   0.239 -1.0742 -0.7684 -1.6069
  109MOL   H22945805   6.775   2.464   0.095 -0.7286  1.5853 -0.3973
  109MOL   H23045806   6.850   2.640   7.701  1.5953  1.3865 -1.3851
  109MOL   H23145807   6.958   2.762   0.002  0.0215 -0.3885 -0.2574
  109MOL   H23245808   6.796   2.756   0.062  0.3118  0.7507  0.1415
  109MOL   C23345809   6.996   2.716   0.502 -0.2414 -0.4171  0.0726
  109MOL   C23445810   6.851   2.740   0.543 -0.0445  0.0067 -0.6131
  109MOL   C23545811   6.785   2.605   0.585  0.0515 -0.3049 -0.8090
  109MOL   C23645812   6.630   2.604   0.593 -1.0952  0.1662  0.5091
  109MOL   C23745813   6.568   2.665   0.723  0.5353  0.3764 -0.1877
  109MOL   C23845814   6.574   2.686   0.472  0.5906 -1.0363 -0.5612
  109MOL   C23945815   6.589   2.457   0.578 -0.8965  0.5692 -0.1437
  109MOL   H24045816   7.033   2.817   0.482  0.2507  0.0260  2.9098
  109MOL   H24145817   7.052   2.673   0.585  0.9290  0.5040 -0.2135
  109MOL   H24245818   6.798   2.774   0.455 -0.6595  1.3588  0.2537
  109MOL   H24345819   6.818   2.526   0.518  0.0173 -2.1920  1.3158
  109MOL   H24445820   6.810   2.582   0.689 -0.7567 -0.3753 -0.6270
  109MOL   H24545821   6.636   2.655   0.808 -2.1394  3.3033  2.4335
  109MOL   H24645822   6.478   2.606   0.743 -0.7559  2.2500 -0.3837
  109MOL   H24745823   6.534   2.767   0.710 -2.8776 -1.0501 -3.1021
  109MOL   H24845824   6.620   2.643   0.383  0.1595 -0.9608 -0.8232
  109MOL   H24945825   6.466   2.668   0.475  0.6411 -1.2608  0.1399
  109MOL   H25045826   6.562   2.794   0.478 -0.2333 -1.2499  2.5209
  109MOL   H25145827   6.640   2.395   0.505  0.5093  2.3372 -0.6916
  109MOL   H25245828   6.609   2.421   0.679  2.0209  1.3146 -0.4086
  109MOL   H25345829   6.481   2.444   0.570 -0.7343 -0.1583 -1.3582
  109MOL   C25445830   6.834   2.848   0.647 -0.1596  0.3237 -0.0285
  109MOL   C25545831   6.897   2.982   0.634 -0.3948 -0.3006 -0.1204
  109MOL   C25645832   6.841   3.077   0.746 -0.7019  0.1097  0.2524
  109MOL   C25745833   6.886   3.041   0.895  0.3933  0.5389 -0.7176
  109MOL   C25845834   6.791   2.953   0.974  0.2840  0.4168  0.0329
  109MOL   C25945835   6.893   3.178   0.969 -0.0390 -0.1130 -0.4069
  109MOL   C26045836   7.033   2.990   0.905  0.2423  0.1538 -0.3866
  109MOL   H26145837   6.865   2.806   0.742  1.3990 -0.9413 -1.0534
  109MOL   H26245838   6.726   2.859   0.652 -0.0715  0.8586  0.6991
  109MOL   H26345839   7.006   2.985   0.635 -0.3175 -2.0535 -1.2508
  109MOL   H26445840   6.872   3.181   0.732 -0.1941 -0.3080 -1.8229
  109MOL   H26545841   6.733   3.069   0.736 -0.9135  1.2557  1.4066
  109MOL   H26645842   6.687   2.968   0.945  0.5591 -0.5261 -1.4821
  109MOL   H26745843   6.793   2.982   1.079  3.8375 -1.7652  0.6362
  109MOL   H26845844   6.816   2.848   0.966  0.0426  0.5095 -2.0849
  109MOL   H26945845   6.799   3.233   0.971 -0.6801 -1.0583 -2.7448
  109MOL   H27045846   6.960   3.247   0.919 -0.6550  0.0155 -1.0727
  109MOL   H27145847   6.942   3.173   1.066 -1.6935 -1.2376  0.4017
  109MOL   H27245848   7.105   3.043   0.842  1.1631  0.8071  1.1655
  109MOL   H27345849   7.062   2.995   1.011  2.0109  0.0073 -0.8383
  109MOL   H27445850   7.038   2.884   0.879  1.4107  0.2113 -0.4524
  109MOL   C27545851   6.851   3.042   0.497  0.9286 -0.1946  0.3792
  109MOL   C27645852   6.926   3.183   0.459  0.1179  0.1275  0.3896
  109MOL   C27745853   7.073   3.158   0.409 -0.3783 -0.3972 -0.2603
  109MOL   C27845854   7.179   3.279   0.413  0.2517 -0.2779  0.6932
  109MOL   C27945855   7.166   3.369   0.286 -0.0475 -0.5720 -0.3945
  109MOL   C28045856   7.156   3.358   0.543 -0.0609 -0.3176  0.2923
  109MOL   C28145857   7.324   3.231   0.420  0.1762  0.3007 -0.1941
  109MOL   H28245858   6.877   2.976   0.414 -0.6967  1.8100 -1.7700
  109MOL   H28345859   6.743   3.053   0.498  0.8259 -1.2258  2.2305
  109MOL   H28445860   6.909   3.244   0.548  0.9397 -2.3262  2.3010
  109MOL   H28545861   7.071   3.120   0.306 -0.5728 -0.2272 -0.3200
  109MOL   H28645862   7.118   3.081   0.472  4.0792  0.7028 -1.8970
  109MOL   H28745863   7.073   3.415   0.254  1.2130  0.4290 -2.7071
  109MOL   H28845864   7.240   3.448   0.296  0.3989 -1.1384  0.9077
  109MOL   H28945865   7.184   3.311   0.195  1.0976 -1.7110  0.5329
  109MOL   H29045866   7.227   3.440   0.558  0.8490 -0.5793 -2.3461
  109MOL   H29145867   7.150   3.292   0.630 -0.8784  0.7613  1.0633
  109MOL   H29245868   7.062   3.410   0.527  1.1448  1.6463 -0.5069
  109MOL   H29345869   7.330   3.168   0.331 -1.0770  0.5111 -0.4402
  109MOL   H29445870   7.353   3.158   0.496  2.2808 -1.1994 -2.3559
  109MOL   H29545871   7.394   3.314   0.408  0.8643 -0.4322 -1.3043
  109MOL   C29645872   6.846   3.254   0.348  0.4125 -0.2623  0.1773
  109MOL   C29745873   6.708   3.298   0.390  0.7238 -0.8335  0.1757
  109MOL   C29845874   6.626   3.350   0.271 -0.1941 -0.2031  0.7785
  109MOL   C29945875   6.523   3.246   0.206 -0.7382  0.0100  0.0739
  109MOL   C30045876   6.463   3.325   0.087 -0.3455  0.4948 -0.1182
  109MOL   C30145877   6.585   3.124   0.150 -0.2961 -0.4559 -0.4401
  109MOL   C30245878   6.406   3.194   0.297 -0.9260 -0.4850 -0.2411
  109MOL   H30345879   6.852   3.187   0.263 -1.3546 -0.5051  0.2154
  109MOL   H30445880   6.897   3.347   0.325  0.9599 -0.0367  2.1631
  109MOL   H30545881   6.653   3.218   0.438 -0.7721 -0.2262 -0.4996
  109MOL   H30645882   6.685   3.401   0.195  0.4198 -0.6947  0.9257
  109MOL   H30745883   6.561   3.432   0.300  1.9237  2.3471 -1.4502
  109MOL   H30845884   6.400   3.412   0.105 -0.7022  0.0379  0.8985
  109MOL   H30945885   6.545   3.357   0.023  1.7368 -0.9561  1.7362
  109MOL   H31045886   6.401   3.249   0.042 -0.3018 -0.1153  0.8397
  109MOL   H31145887   6.502   3.062   0.116 -2.0907  2.2847 -1.2101
  109MOL   H31245888   6.649   3.158   0.068 -0.3017  0.4079 -0.0881
  109MOL   H31345889   6.656   3.066   0.208  1.0797 -0.8658 -2.4567
  109MOL   H31445890   6.320   3.159   0.240 -1.2443 -0.8378  0.4560
  109MOL   H31545891   6.430   3.120   0.374 -2.4463  1.8513  2.5580
  109MOL   H31645892   6.373   3.276   0.360 -0.5664 -1.7060  1.5795
  109MOL   C31745893   6.720   3.419   0.483 -0.6487 -0.0358 -0.5563
  109MOL   C31845894   6.596   3.453   0.573 -0.2837 -0.3491  0.0998
  109MOL   C31945895   6.596   3.357   0.698  0.3993  0.5667  0.5683
  109MOL   C32045896   6.466   3.306   0.769  0.8912  0.6610  0.3708
  109MOL   C32145897   6.498   3.225   0.899 -0.1858  0.1925  0.0524
  109MOL   C32245898   6.384   3.214   0.672  0.1221 -0.4481 -0.3684
  109MOL   C32345899   6.377   3.419   0.813 -0.0784  0.5268 -0.5993
  109MOL   H32445900   6.812   3.422   0.541 -0.6074  2.4527 -0.6909
  109MOL   H32545901   6.747   3.504   0.421  1.4490 -0.0088  0.3658
  109MOL   H32645902   6.508   3.446   0.509  0.2264 -0.2153 -0.6148
  109MOL   H32745903   6.656   3.405   0.775  1.6135  2.5391 -1.5337
  109MOL   H32845904   6.651   3.263   0.683  0.3648  0.6899 -0.3527
  109MOL   H32945905   6.410   3.194   0.955  0.4383 -3.0488 -0.6968
  109MOL   H33045906   6.560   3.268   0.978 -0.3786 -1.6470  1.2348
  109MOL   H33145907   6.550   3.132   0.878  0.3463  0.3902  0.4861
  109MOL   H33245908   6.447   3.132   0.635  1.6241  1.4774 -2.1993
  109MOL   H33345909   6.299   3.176   0.727  0.0745  0.1783 -0.0096
  109MOL   H33445910   6.345   3.269   0.586  2.6909  0.7104 -0.8299
  109MOL   H33545911   6.431   3.487   0.879 -0.2745 -0.0933  0.2054
  109MOL   H33645912   6.296   3.383   0.876  1.0795 -0.2292  0.4800
  109MOL   H33745913   6.334   3.481   0.734  1.1063  0.7712 -1.0623
  109MOL   C33845914   6.605   3.596   0.634 -0.2774  0.8853  0.4702
  109MOL   C33945915   6.585   3.721   0.544 -1.4229 -0.3711 -0.0848
  109MOL   C34045916   6.648   3.853   0.599  0.0700  0.0288 -0.1892
  109MOL   C34145917   6.800   3.881   0.587  0.9201  0.0132 -1.1419
  109MOL   C34245918   6.843   3.919   0.447 -0.6153 -0.8206  0.1782
  109MOL   C34345919   6.838   4.006   0.675  0.2539  0.3049 -0.6281
  109MOL   C34445920   6.894   3.771   0.643 -0.1582  0.0740 -0.1630
  109MOL   H34545921   6.706   3.605   0.676 -0.0478 -2.2652  0.7367
  109MOL   H34645922   6.534   3.607   0.715 -1.2825 -0.5337 -0.1880
  109MOL   H34745923   6.645   3.691   0.458  2.3697 -0.0436  2.3397
  109MOL   H34845924   6.606   3.848   0.700 -1.9649  1.4671 -0.9318
  109MOL   H34945925   6.597   3.936   0.549  0.8856  0.7878  0.2272
  109MOL   H35045926   6.834   3.836   0.377 -0.0834 -1.3782  0.7602
  109MOL   H35145927   6.772   3.988   0.402  0.8114  0.8460  0.4289
  109MOL   H35245928   6.943   3.963   0.453 -0.8259 -0.1296 -1.2898
  109MOL   H35345929   6.781   4.096   0.651 -0.9032 -0.5842 -1.2621
  109MOL   H35445930   6.809   3.986   0.778 -1.3687  2.0998 -0.7180
  109MOL   H35545931   6.944   4.031   0.681  0.4018 -0.2889 -0.7401
  109MOL   H35645932   6.861   3.732   0.739  0.4867  0.7371  0.3304
  109MOL   H35745933   6.890   3.685   0.576 -2.9939  0.9755 -1.2531
  109MOL   H35845934   6.996   3.804   0.659  0.6754 -3.2796  1.8601
  109MOL   C35945935   6.431   3.736   0.518  0.2586 -0.7810  0.2336
  109MOL   C36045936   6.400   3.817   0.384  0.0477  0.6497 -0.2415
  109MOL   C36145937   6.261   3.876   0.402  0.0770  0.3592  0.3445
  109MOL   C36245938   6.251   4.018   0.468  0.1822  0.0160 -0.3425
  109MOL   C36345939   6.308   4.119   0.362 -0.3517 -0.0108 -0.6341
  109MOL   C36445940   6.317   4.029   0.602 -0.0988 -0.5341 -0.8918
  109MOL   C36545941   6.101   4.058   0.506  0.0854  0.7145  0.5192
  109MOL   H36645942   6.390   3.786   0.606  0.4932  0.9504 -0.6330
  109MOL   H36745943   6.389   3.635   0.519 -0.6916 -0.3814  0.7502
  109MOL   H36845944   6.469   3.901   0.376 -0.7510  1.0743 -3.0776
  109MOL   H36945945   6.209   3.892   0.307 -0.7796 -1.4740  0.4829
  109MOL   H37045946   6.201   3.800   0.452 -1.5187  1.4576  0.1300
  109MOL   H37145947   6.317   4.213   0.416 -1.6979 -0.9072  1.1846
  109MOL   H37245948   6.392   4.088   0.300  0.0552 -1.8996  0.8460
  109MOL   H37345949   6.230   4.125   0.286 -0.9634  0.7550  0.0462
  109MOL   H37445950   6.285   3.961   0.681 -1.6340  3.3827  2.0619
  109MOL   H37545951   6.303   4.133   0.631  2.8600 -0.6774  1.3570
  109MOL   H37645952   6.424   4.018   0.587  0.3781 -1.5284  2.7043
  109MOL   H37745953   6.071   4.009   0.599  0.4035 -0.2865  0.0935
  109MOL   H37845954   6.036   4.029   0.423  0.0761 -0.8759  1.0588
  109MOL   H37945955   6.088   4.165   0.520  1.7207  1.0192 -0.1967
  109MOL   C38045956   6.411   3.725   0.266  0.1258 -0.8662 -0.0054
  109MOL   C38145957   6.401   3.786   0.123  0.0644 -0.3096  0.0250
  109MOL   C38245958   6.347   3.695   0.019  0.4225 -0.7213  0.4732
  109MOL   C38345959   6.195   3.675   7.760  0.3223 -0.3410 -0.3477
  109MOL   C38445960   6.145   3.809   7.699 -0.1397  1.0180 -0.4998
  109MOL   C38545961   6.118   3.646   0.119  0.1637 -0.1324 -0.7457
  109MOL   C38645962   6.179   3.562   7.648 -0.1200 -0.1629  0.1885
  109MOL   H38745963   6.328   3.655   0.281 -1.2763  0.5010 -1.2552
  109MOL   H38845964   6.498   3.661   0.283  1.7286  0.8862 -1.4405
  109MOL   H38945965   6.328   3.867   0.128 -0.3268 -0.6114 -0.7222
  109MOL   H39045966   6.390   3.719   7.687 -2.0331  0.0917 -0.4426
  109MOL   H39145967   6.394   3.597   0.032  2.0420 -0.0758 -0.3516
  109MOL   H39245968   6.045   3.797   7.658  0.5860 -0.7695 -1.8208
  109MOL   H39345969   6.139   3.896   7.764  0.3985  1.3857 -0.9334
  109MOL   H39445970   6.214   3.831   7.618  1.0774  0.0622  0.2595
  109MOL   H39545971   6.120   3.728   0.191  3.1115  0.3449 -1.2982
  109MOL   H39645972   6.161   3.567   0.180  0.0933  0.4603  0.0776
  109MOL   H39745973   6.017   3.609   0.101  1.0159 -2.2779 -1.2496
  109MOL   H39845974   6.258   3.487   7.661 -1.2027 -1.2024  0.8690
  109MOL   H39945975   6.200   3.591   7.546 -1.8725  0.0388 -0.1281
  109MOL   H40045976   6.083   3.511   7.645 -0.4502  0.5530 -2.6039
  109MOL   C40145977   6.538   3.840   0.076  0.1378 -0.1670 -0.2186
  109MOL   C40245978   6.646   3.725   0.045  0.0049  0.0160  0.3150
  109MOL   C40345979   6.778   3.779   7.765 -0.9250 -0.5849 -0.4380
  109MOL   C40445980   6.887   3.676   7.726 -0.4488  0.1365  0.3114
  109MOL   C40545981   6.932   3.582   0.076 -0.2415 -0.2600  0.1974
  109MOL   C40645982   7.008   3.759   7.687  0.4235  0.0583 -0.9023
  109MOL   C40745983   6.853   3.586   7.607  0.1348  0.0725 -0.7598
  109MOL   H40845984   6.524   3.903   7.754  2.3428  1.0787  0.2805
  109MOL   H40945985   6.579   3.911   0.148 -0.3911  0.6533 -0.7126
  109MOL   H41045986   6.664   3.674   0.140 -2.8432  1.0557  1.4491
  109MOL   H41145987   6.812   3.845   0.078  1.7934 -0.7309 -1.4509
  109MOL   H41245988   6.766   3.851   7.684 -0.0915  2.4844  2.0477
  109MOL   H41345989   7.010   3.516   0.039 -1.0095  0.4580 -2.8480
  109MOL   H41445990   6.846   3.531   0.120 -1.6124  1.3181 -0.6177
  109MOL   H41545991   6.975   3.633   0.163 -0.8002  0.8866 -0.1926
  109MOL   H41645992   6.988   3.803   7.589  1.4758 -2.2315 -2.1880
  109MOL   H41745993   7.093   3.698   7.656 -0.0338 -1.5788  0.9948
  109MOL   H41845994   7.043   3.826   7.765  2.6814  0.0939 -1.9024
  109MOL   H41945995   6.888   3.626   7.513  0.9940  1.1441  0.0037
  109MOL   H42045996   6.904   3.492   7.630 -1.9254 -1.0108 -0.4947
  109MOL   H42145997   6.744   3.575   7.600  0.0235  2.3573 -3.2868
  109MOL   H42245998   6.613   3.662   7.727  0.3067  0.2527  0.0179
  110MOL     C145999   7.130   4.405   3.353  0.3292  0.8311  0.0182
  110MOL     C246000   7.038   4.389   3.226  0.6573 -0.3709  0.1322
  110MOL     C346001   6.998   4.236   3.213  1.1597 -0.2847 -0.5934
  110MOL     C446002   6.863   4.193   3.267  0.3488  0.2831 -0.2948
  110MOL     C546003   6.741   4.275   3.218 -0.1557  0.6536 -0.6425
  110MOL     C646004   6.849   4.041   3.220  0.0309  0.1881  0.4771
  110MOL     C746005   6.872   4.185   3.426  0.1689 -0.6218 -0.1344
  110MOL     H846006   7.091   4.356   3.443  0.3010  0.2478 -0.3116
  110MOL     H946007   7.218   4.347   3.325  1.3239  2.0435  0.5960
  110MOL    H1046008   6.945   4.441   3.250  0.1008  1.7144 -5.7869
  110MOL    H1146009   7.078   4.170   3.247  0.7601 -0.0314  0.8886
  110MOL    H1246010   7.004   4.215   3.106  0.9938 -2.1518 -0.2625
  110MOL    H1346011   6.736   4.292   3.111 -1.0142  0.3694 -0.6520
  110MOL    H1446012   6.727   4.372   3.267  1.7733  1.3347 -1.4076
  110MOL    H1546013   6.641   4.232   3.222  0.6480 -1.1941  0.0644
  110MOL    H1646014   6.810   4.025   3.119  0.5920  0.7494  0.1693
  110MOL    H1746015   6.937   3.980   3.238 -0.8166 -1.4015 -0.5894
  110MOL    H1846016   6.771   3.990   3.277  0.9345 -2.1951 -0.3527
  110MOL    H1946017   6.783   4.129   3.457 -0.1062  1.4300  2.8906
  110MOL    H2046018   6.857   4.283   3.470 -1.0261 -1.7826  2.1128
  110MOL    H2146019   6.960   4.127   3.451  0.3774  0.2976  1.2898
  110MOL    H2246020   7.150   4.510   3.377  3.4521  0.2162  0.2376
  110MOL    C2346021   7.102   4.457   3.111 -0.0081  0.3726 -0.4072
  110MOL    C2446022   7.024   4.476   2.982 -0.2290  0.0212  0.2241
  110MOL    C2546023   7.114   4.523   2.866  0.0884  0.7762 -0.1889
  110MOL    C2646024   7.184   4.422   2.772  0.3834  0.0950 -0.5913
  110MOL    C2746025   7.274   4.506   2.678 -0.6360  0.1426 -0.2003
  110MOL    C2846026   7.257   4.316   2.852  0.0720  0.2115  0.0431
  110MOL    C2946027   7.083   4.344   2.689 -0.4577 -0.0786  0.8199
  110MOL    H3046028   7.131   4.559   3.138 -1.3042  0.9543 -1.1679
  110MOL    H3146029   7.195   4.403   3.096 -0.6448 -0.4360 -1.4987
  110MOL    H3246030   6.984   4.383   2.942 -2.0054  0.0199  1.8770
  110MOL    H3346031   7.186   4.588   2.915  1.7581  0.6792 -2.4009
  110MOL    H3446032   7.056   4.595   2.808  0.0585 -1.2037 -2.7363
  110MOL    H3546033   7.364   4.544   2.726 -0.7668 -0.3675  0.4385
  110MOL    H3646034   7.317   4.441   2.602  1.6442 -0.3996  1.5158
  110MOL    H3746035   7.229   4.591   2.626  0.0535  1.1037  0.7497
  110MOL    H3846036   7.310   4.241   2.793  1.8070  0.0490  1.7785
  110MOL    H3946037   7.341   4.371   2.894  1.6204  0.0058 -2.5932
  110MOL    H4046038   7.202   4.258   2.926 -0.3430  0.6338  0.0650
  110MOL    H4146039   7.014   4.406   2.631 -0.9689 -0.9594  0.4842
  110MOL    H4246040   7.015   4.278   2.742 -2.0405  0.3371 -0.6294
  110MOL    H4346041   7.131   4.285   2.611  1.2729 -0.2007  1.9657
  110MOL    C4446042   6.895   4.558   2.994 -0.1163  0.1868 -0.6928
  110MOL    C4546043   6.908   4.711   3.020  0.9766  0.5948 -0.7417
  110MOL    C4646044   6.913   4.744   3.173 -0.9312  0.1866 -0.8037
  110MOL    C4746045   6.986   4.875   3.219  0.6187 -0.1208 -0.3273
  110MOL    C4846046   6.953   4.895   3.372 -0.5860 -0.4787  0.2659
  110MOL    C4946047   6.948   5.005   3.143 -0.6060 -0.3814 -0.5053
  110MOL    C5046048   7.135   4.849   3.205  0.2183  0.9281 -0.5809
  110MOL    H5146049   6.859   4.549   2.892 -0.8242  1.0585 -0.5218
  110MOL    H5246050   6.823   4.517   3.065  1.0570 -0.0800  0.3728
  110MOL    H5346051   7.000   4.744   2.971  1.2416 -1.8274 -1.9641
  110MOL    H5446052   6.943   4.661   3.236 -1.4581  1.1440  0.7360
  110MOL    H5546053   6.811   4.760   3.207 -0.4061  0.2709  0.7442
  110MOL    H5646054   6.983   4.804   3.424 -2.4125  0.9888  4.0798
  110MOL    H5746055   6.844   4.898   3.370 -0.5790 -0.8775 -2.1313
  110MOL    H5846056   6.994   4.984   3.419 -0.1203 -1.7993  2.4611
  110MOL    H5946057   7.025   5.081   3.157 -0.2887 -0.8741  0.4099
  110MOL    H6046058   6.943   4.988   3.035 -1.9506  2.0152 -0.8539
  110MOL    H6146059   6.852   5.045   3.176 -0.3389 -0.9708  1.0235
  110MOL    H6246060   7.173   4.818   3.107  1.1596  1.6026 -0.4380
  110MOL    H6346061   7.193   4.941   3.208 -1.2391  1.8431  0.5166
  110MOL    H6446062   7.174   4.791   3.289 -1.3624  0.5554 -0.0907
  110MOL    C6546063   6.782   4.781   2.961 -0.1239  0.0272 -0.3768
  110MOL    C6646064   6.777   4.784   2.807  0.5142 -0.3293 -0.2546
  110MOL    C6746065   6.828   4.918   2.749  0.5782  0.1884 -0.2438
  110MOL    C6846066   6.894   4.923   2.606  0.2828  0.6009 -0.5738
  110MOL    C6946067   6.789   4.904   2.492  0.1652 -0.3263  0.2714
  110MOL    C7046068   6.950   5.072   2.589  0.4012 -0.1315 -0.4245
  110MOL    C7146069   7.007   4.823   2.592  0.4228 -0.3100 -0.4561
  110MOL    H7246070   6.701   4.731   3.016  0.6094  0.0516  0.7472
  110MOL    H7346071   6.766   4.879   3.007  3.2735  0.0703  0.8064
  110MOL    H7446072   6.842   4.704   2.771  1.4354 -0.2618  1.1891
  110MOL    H7546073   6.909   4.934   2.821  0.7460  1.1799 -0.6399
  110MOL    H7646074   6.764   5.006   2.761  1.5894  1.2617 -2.4625
  110MOL    H7746075   6.755   4.800   2.482 -0.7466  0.0471 -0.6397
  110MOL    H7846076   6.699   4.964   2.499 -1.5179 -2.1651 -3.7383
  110MOL    H7946077   6.840   4.928   2.399 -0.9707  0.5260 -0.1429
  110MOL    H8046078   6.996   5.081   2.491  0.7557  0.4384 -0.2108
  110MOL    H8146079   7.022   5.095   2.667 -1.4215  0.4553  1.1273
  110MOL    H8246080   6.873   5.149   2.587  0.0091 -0.5075  0.1935
  110MOL    H8346081   7.054   4.832   2.494  1.4850  1.0189  0.1679
  110MOL    H8446082   6.979   4.718   2.594  0.6308 -0.3762 -0.9034
  110MOL    H8546083   7.086   4.838   2.665  0.4743  2.9352 -1.0813
  110MOL    C8646084   6.632   4.762   2.758  0.4164 -0.1252  0.0984
  110MOL    C8746085   6.566   4.612   2.769 -0.2540  0.1607 -0.0304
  110MOL    C8846086   6.614   4.536   2.638  0.1608  0.6857 -0.4879
  110MOL    C8946087   6.613   4.379   2.642  0.2858  0.0861  0.2785
  110MOL    C9046088   6.714   4.325   2.741 -0.7146  0.4535  0.7056
  110MOL    C9146089   6.643   4.337   2.502 -0.0959 -0.3708  0.0262
  110MOL    C9246090   6.475   4.311   2.680  0.6717 -0.2165 -0.2559
  110MOL    H9346091   6.622   4.781   2.651 -3.7242 -1.5689  0.1373
  110MOL    H9446092   6.576   4.832   2.819  0.2148 -1.2890  1.2582
  110MOL    H9546093   6.603   4.559   2.856  0.1636  2.5764  1.3115
  110MOL    H9646094   6.717   4.565   2.620  0.6664  0.6372  2.1431
  110MOL    H9746095   6.553   4.548   2.549 -0.6175  0.0119 -0.0499
  110MOL    H9846096   6.813   4.352   2.704  0.2701 -2.7674  0.7580
  110MOL    H9946097   6.711   4.216   2.753  2.9519  0.3348  1.1678
  110MOL   H10046098   6.697   4.355   2.844  0.3750 -0.4569  1.1777
  110MOL   H10146099   6.743   4.366   2.470  0.2085 -0.2526  1.0564
  110MOL   H10246100   6.631   4.230   2.481 -1.6881 -0.2529  0.2864
  110MOL   H10346101   6.579   4.382   2.426 -1.0478  1.0357  1.6258
  110MOL   H10446102   6.451   4.316   2.786  1.0840 -1.6322 -0.0845
  110MOL   H10546103   6.390   4.354   2.628  0.5139 -1.6301 -1.1843
  110MOL   H10646104   6.467   4.205   2.659 -1.9155  0.0974 -1.0052
  110MOL   C10746105   6.414   4.626   2.790 -0.2572 -0.2808  0.4629
  110MOL   C10846106   6.357   4.679   2.923  0.3772  0.5097 -0.0608
  110MOL   C10946107   6.207   4.727   2.918  0.0619 -0.1216  0.2674
  110MOL   C11046108   6.161   4.869   2.900  0.4112  0.1432  0.6203
  110MOL   C11146109   6.236   4.923   2.776  0.1096 -0.3103 -0.2739
  110MOL   C11246110   6.205   4.950   3.029  0.5642  0.4955 -0.0808
  110MOL   C11346111   6.007   4.870   2.875  0.0874  0.3390 -0.1325
  110MOL   H11446112   6.371   4.528   2.768  0.4205 -1.2168  3.1553
  110MOL   H11546113   6.372   4.691   2.713 -0.6687  1.6095  2.2639
  110MOL   H11646114   6.418   4.761   2.962  1.7146 -0.4726 -0.0613
  110MOL   H11746115   6.155   4.667   2.843 -0.6717  1.5466 -0.5820
  110MOL   H11846116   6.172   4.704   3.019 -0.9033  0.7306  0.1305
  110MOL   H11946117   6.211   5.029   2.770 -2.5085 -0.8683  0.1554
  110MOL   H12046118   6.341   4.897   2.784  0.2321  0.4690  0.6686
  110MOL   H12146119   6.198   4.895   2.678 -1.1413  0.1424  0.0707
  110MOL   H12246120   6.311   4.969   3.040  0.7507 -1.6522  2.3310
  110MOL   H12346121   6.175   4.913   3.127  0.9454  1.0514  0.2439
  110MOL   H12446122   6.154   5.046   3.016  0.1784  0.2393 -0.4981
  110MOL   H12546123   5.984   4.806   2.790 -0.5449  0.8686 -0.3659
  110MOL   H12646124   5.964   4.968   2.853 -1.7247 -0.2512  0.6976
  110MOL   H12746125   5.958   4.830   2.964  1.8582 -1.4374  0.0795
  110MOL   C12846126   6.379   4.564   3.033  0.7998  0.5097  0.7914
  110MOL   C12946127   6.368   4.592   3.178 -0.3860  0.0045 -0.2310
  110MOL   C13046128   6.316   4.470   3.263 -0.1598  0.3523 -0.2879
  110MOL   C13146129   6.164   4.428   3.248 -0.2498  0.7491 -0.8501
  110MOL   C13246130   6.072   4.543   3.298 -0.3061  0.0340  0.3204
  110MOL   C13346131   6.138   4.302   3.327 -0.1419 -0.1597 -0.3759
  110MOL   C13446132   6.110   4.398   3.104  0.3618 -0.2075  0.3628
  110MOL   H13546133   6.480   4.526   3.020  0.1664  0.0052 -3.1891
  110MOL   H13646134   6.314   4.482   3.001  0.2509  0.9816  0.6841
  110MOL   H13746135   6.296   4.674   3.180 -1.3342 -0.8421  1.3132
  110MOL   H13846136   6.385   4.388   3.242 -1.4353 -0.4189 -1.6059
  110MOL   H13946137   6.322   4.503   3.367 -4.1145  1.5095 -0.3412
  110MOL   H14046138   6.076   4.622   3.224 -0.9216 -0.0511  0.1972
  110MOL   H14146139   6.086   4.591   3.396  1.1005 -0.9315  0.6052
  110MOL   H14246140   5.967   4.513   3.293 -0.3137  0.4912 -3.0440
  110MOL   H14346141   6.163   4.324   3.431  1.8532  1.0493 -1.0913
  110MOL   H14446142   6.184   4.211   3.289  1.8591 -0.5713  2.8541
  110MOL   H14546143   6.029   4.300   3.320 -0.0597  1.6605 -2.3351
  110MOL   H14646144   6.007   4.364   3.118 -0.1741  0.8992 -0.7616
  110MOL   H14746145   6.111   4.482   3.035 -1.1829 -0.8610 -0.4810
  110MOL   H14846146   6.160   4.310   3.062 -0.7526 -1.1057  0.8697
  110MOL   C14946147   6.508   4.639   3.236 -0.1824  0.2861  0.3299
  110MOL   C15046148   6.506   4.733   3.361  0.0296 -0.3915  0.9391
  110MOL   C15146149   6.627   4.721   3.451  0.1461 -0.5144 -0.7249
  110MOL   C15246150   6.625   4.638   3.580 -0.0718 -0.7283  0.0297
  110MOL   C15346151   6.771   4.637   3.621  0.0136  0.1917  0.3079
  110MOL   C15446152   6.586   4.493   3.558 -0.9506  0.4753  0.1356
  110MOL   C15546153   6.536   4.709   3.689  0.0836  0.4249 -0.0241
  110MOL   H15646154   6.577   4.679   3.163  0.3332  3.3080  2.4014
  110MOL   H15746155   6.556   4.548   3.273  2.6639  1.8925  0.6965
  110MOL   H15846156   6.414   4.707   3.413 -0.2933  2.1531  1.7538
  110MOL   H15946157   6.671   4.819   3.468  1.9483 -1.2252 -1.1680
  110MOL   H16046158   6.698   4.658   3.398 -0.2394 -0.2396 -1.5782
  110MOL   H16146159   6.830   4.560   3.571  0.1047  2.5815 -3.4346
  110MOL   H16246160   6.828   4.728   3.602  1.9688 -1.2429 -0.8487
  110MOL   H16346161   6.778   4.620   3.729  0.7626 -2.1669 -0.0779
  110MOL   H16446162   6.600   4.422   3.640  0.3129 -1.0638 -1.3887
  110MOL   H16546163   6.623   4.446   3.467  1.3745 -0.4090  1.5133
  110MOL   H16646164   6.477   4.488   3.567 -0.9545  2.7035  1.6140
  110MOL   H16746165   6.563   4.815   3.690  0.3723  0.3432  2.3548
  110MOL   H16846166   6.431   4.689   3.666  0.2751  0.9008 -1.4064
  110MOL   H16946167   6.565   4.672   3.787 -0.2024 -0.6656 -0.3464
  110MOL   C17046168   6.479   4.880   3.318 -0.1658  0.1988 -0.0298
  110MOL   C17146169   6.419   4.969   3.420  0.1501 -0.4142 -0.2926
  110MOL   C17246170   6.262   4.941   3.412 -0.2330 -0.0143 -0.1717
  110MOL   C17346171   6.170   4.965   3.539 -0.6550  0.5181  0.5458
  110MOL   C17446172   6.024   4.941   3.484  0.5462 -0.2719  0.9329
  110MOL   C17546173   6.183   5.105   3.607 -0.0784  0.0878  0.4093
  110MOL   C17646174   6.186   4.848   3.645  0.0256 -0.2210 -0.5333
  110MOL   H17746175   6.425   4.887   3.224  2.2282 -0.5995 -1.5307
  110MOL   H17846176   6.581   4.911   3.294  0.0438  0.3478  1.0066
  110MOL   H17946177   6.453   4.942   3.520  1.6418  2.3645  0.0019
  110MOL   H18046178   6.223   4.993   3.325 -1.8247  0.0373  0.5382
  110MOL   H18146179   6.252   4.840   3.371  1.0640  0.5692 -1.9868
  110MOL   H18246180   6.024   4.861   3.410 -0.0971  1.7936 -1.3801
  110MOL   H18346181   5.952   4.902   3.557 -0.8871 -2.2354 -1.4752
  110MOL   H18446182   5.974   5.026   3.437  0.1809 -0.1245  1.5670
  110MOL   H18546183   6.119   5.118   3.694 -1.2712  0.5150 -0.5164
  110MOL   H18646184   6.281   5.127   3.650  1.3605 -2.0175 -1.6370
  110MOL   H18746185   6.170   5.180   3.530 -2.7191  0.2044  0.9131
  110MOL   H18846186   6.282   4.859   3.695  0.0308  1.3028 -0.8536
  110MOL   H18946187   6.105   4.834   3.716  0.1922  1.5441  0.0294
  110MOL   H19046188   6.206   4.762   3.582  2.1062  1.4094 -2.1791
  110MOL   C19146189   6.452   5.113   3.372 -0.3906  0.4944  0.3006
  110MOL   C19246190   6.585   5.173   3.429 -0.6030  0.0925  0.2368
  110MOL   C19346191   6.594   5.175   3.581 -0.0440 -0.1481 -0.7333
  110MOL   C19446192   6.722   5.236   3.646 -0.5121  0.0188  0.7417
  110MOL   C19546193   6.847   5.206   3.563 -0.6108  0.4256  0.2289
  110MOL   C19646194   6.734   5.167   3.785 -0.1743 -0.2825 -0.1271
  110MOL   C19746195   6.711   5.382   3.686 -0.5982  0.3329 -0.2627
  110MOL   H19846196   6.435   5.111   3.264  0.3311 -1.0189  0.1963
  110MOL   H19946197   6.376   5.179   3.413 -1.9621  0.0119 -1.7338
  110MOL   H20046198   6.670   5.117   3.391 -0.6537  0.8514 -1.0193
  110MOL   H20146199   6.586   5.070   3.610 -0.0321 -0.5041 -1.9607
  110MOL   H20246200   6.508   5.236   3.606  1.1945  1.8349 -1.2031
  110MOL   H20346201   6.878   5.103   3.578  1.1984  0.5782 -2.1621
  110MOL   H20446202   6.835   5.220   3.455 -0.8941  0.6399  0.2867
  110MOL   H20546203   6.930   5.265   3.601  0.1127  0.5378 -1.4676
  110MOL   H20646204   6.757   5.063   3.761  0.6249 -0.7267  2.4262
  110MOL   H20746205   6.820   5.210   3.838  0.9827 -0.9904 -1.3994
  110MOL   H20846206   6.641   5.169   3.840 -0.4765  0.0080 -0.6446
  110MOL   H20946207   6.612   5.389   3.731  0.4038  0.1236  2.0480
  110MOL   H21046208   6.793   5.403   3.755  0.3668 -1.6397 -0.7714
  110MOL   H21146209   6.734   5.452   3.606  1.0642  0.2517  0.1288
  110MOL   C21246210   6.598   5.316   3.380  0.4320  0.0232 -0.3029
  110MOL   C21346211   6.556   5.357   3.240  0.2003 -0.4132 -0.1978
  110MOL   C21446212   6.668   5.321   3.126  0.2549 -0.5247  0.0290
  110MOL   C21546213   6.623   5.270   2.987  0.4749  0.2021  0.5077
  110MOL   C21646214   6.741   5.262   2.892 -0.0656 -0.5914  0.0266
  110MOL   C21746215   6.562   5.133   3.011  0.1877 -0.1548  0.4690
  110MOL   C21846216   6.521   5.359   2.924  0.9482 -0.1782  0.2973
  110MOL   H21946217   6.525   5.370   3.441 -0.9936 -0.2964 -1.6677
  110MOL   H22046218   6.693   5.361   3.405  0.2394 -1.6544  3.7240
  110MOL   H22146219   6.461   5.309   3.216  0.3710  0.8392 -3.6503
  110MOL   H22246220   6.731   5.243   3.167  0.4033 -0.4810 -0.1185
  110MOL   H22346221   6.735   5.406   3.115  0.3098 -0.3528  1.5630
  110MOL   H22446222   6.704   5.214   2.801  0.3737  3.7211 -2.6177
  110MOL   H22546223   6.820   5.191   2.916 -0.9936 -1.6657 -0.0459
  110MOL   H22646224   6.788   5.354   2.857 -2.3974  0.9976  0.9442
  110MOL   H22746225   6.578   5.060   2.931 -0.8738  0.4251 -0.2859
  110MOL   H22846226   6.609   5.077   3.092  0.9346 -3.7140 -2.2529
  110MOL   H22946227   6.455   5.137   3.027  0.0849 -0.3849 -0.1467
  110MOL   H23046228   6.494   5.335   2.822  2.4606 -0.6404 -0.0158
  110MOL   H23146229   6.548   5.465   2.918  1.0911 -0.2792 -0.8566
  110MOL   H23246230   6.427   5.357   2.979 -0.0632 -1.3390 -1.4379
  110MOL   C23346231   6.539   5.510   3.241 -0.1096 -0.4759 -0.2891
  110MOL   C23446232   6.413   5.574   3.304  0.1422 -0.0057 -0.2305
  110MOL   C23546233   6.442   5.728   3.316  0.7124 -0.3249  0.4495
  110MOL   C23646234   6.484   5.781   3.448  0.1961 -0.5481  0.0001
  110MOL   C23746235   6.629   5.740   3.483  0.3380 -0.1258 -0.2546
  110MOL   C23846236   6.459   5.938   3.440  0.0206  0.2713 -0.2018
  110MOL   C23946237   6.378   5.730   3.549  0.2151  0.1215  0.7649
  110MOL   H24046238   6.545   5.535   3.135 -0.3749  1.8174  0.2075
  110MOL   H24146239   6.630   5.555   3.281  0.4795 -1.0025 -1.0239
  110MOL   H24246240   6.391   5.526   3.399 -1.6956 -1.7541 -1.5000
  110MOL   H24346241   6.508   5.767   3.237  0.4915 -0.6141  0.1197
  110MOL   H24446242   6.349   5.773   3.283  0.3653 -0.4492  1.2624
  110MOL   H24546243   6.704   5.748   3.404  0.5325  2.3500  0.1489
  110MOL   H24646244   6.630   5.634   3.511  0.0859  0.3098  1.4424
  110MOL   H24746245   6.665   5.781   3.577  0.1212 -1.7760  0.5826
  110MOL   H24846246   6.503   5.979   3.531 -1.4705 -0.7815  1.0152
  110MOL   H24946247   6.518   5.975   3.356 -0.6303  1.7320 -0.0165
  110MOL   H25046248   6.353   5.960   3.443  0.3365  1.6054  1.4695
  110MOL   H25146249   6.395   5.791   3.638  0.2204  1.1869  0.0431
  110MOL   H25246250   6.276   5.733   3.512  0.6169  0.4389 -0.3220
  110MOL   H25346251   6.400   5.626   3.576  0.5679 -0.3092 -1.0737
  110MOL   C25446252   6.288   5.555   3.200 -0.2111  0.0361  0.3161
  110MOL   C25546253   6.135   5.573   3.247 -0.8480  0.6182 -0.1456
  110MOL   C25646254   6.101   5.491   3.369  0.2649  0.1023 -0.2106
  110MOL   C25746255   5.983   5.536   3.460 -0.1747 -0.0955  0.3697
  110MOL   C25846256   6.027   5.655   3.539 -0.0268 -0.2433  0.4127
  110MOL   C25946257   5.950   5.416   3.554 -0.3779  0.1222 -0.3066
  110MOL   C26046258   5.854   5.578   3.394  0.0410  0.4972 -0.2247
  110MOL   H26146259   6.300   5.452   3.167  0.9402  0.3395 -0.2385
  110MOL   H26246260   6.302   5.623   3.117 -1.0962  0.8749  0.8414
  110MOL   H26346261   6.121   5.676   3.281 -0.1371  1.0502 -1.1168
  110MOL   H26446262   6.087   5.392   3.326  1.9456  0.5627 -1.8631
  110MOL   H26546263   6.187   5.481   3.436 -1.0519 -0.5941  1.4274
  110MOL   H26646264   6.116   5.652   3.602  0.0436 -0.0339  0.3248
  110MOL   H26746265   5.947   5.669   3.612 -0.9315  1.1283 -0.8162
  110MOL   H26846266   6.042   5.735   3.467 -1.1392  1.2047  1.7575
  110MOL   H26946267   6.045   5.385   3.597 -1.4437  0.1296  2.1625
  110MOL   H27046268   5.898   5.329   3.514 -0.2125  0.4275 -1.2072
  110MOL   H27146269   5.883   5.442   3.636 -0.3808 -0.5495 -0.0979
  110MOL   H27246270   5.856   5.670   3.335 -0.5320  0.2875 -0.5821
  110MOL   H27346271   5.831   5.493   3.329  0.3666 -0.4167  0.8256
  110MOL   H27446272   5.783   5.578   3.476 -0.6019  1.0947 -0.7765
  110MOL   C27546273   6.048   5.549   3.118  0.1994  0.0809 -0.3788
  110MOL   C27646274   6.028   5.663   3.010 -0.3825  0.0847 -0.1881
  110MOL   C27746275   5.963   5.594   2.885  0.6363 -0.0307 -0.2099
  110MOL   C27846276   6.053   5.537   2.780 -0.3165 -0.3746  0.1828
  110MOL   C27946277   6.097   5.392   2.809 -0.1490  0.1913  0.7046
  110MOL   C28046278   5.980   5.517   2.648 -0.0279  0.0059  0.9463
  110MOL   C28146279   6.179   5.626   2.749 -0.0752  0.3815 -0.3321
  110MOL   H28246280   6.100   5.466   3.070 -0.4353  0.7224 -2.2127
  110MOL   H28346281   5.952   5.501   3.137  0.2039  0.9318  1.8721
  110MOL   H28446282   6.127   5.704   2.989 -0.0620  0.5962  2.1914
  110MOL   H28546283   5.896   5.666   2.838 -2.1760 -1.3801  1.5905
  110MOL   H28646284   5.895   5.519   2.927 -1.0612  2.6879  2.0955
  110MOL   H28746285   6.146   5.342   2.725 -0.0509 -2.1741  2.1312
  110MOL   H28846286   6.172   5.390   2.888 -1.2270 -1.9179  1.7222
  110MOL   H28946287   6.017   5.322   2.832  0.3093 -1.4471 -2.3078
  110MOL   H29046288   5.900   5.443   2.637 -0.9918  1.3012 -1.2740
  110MOL   H29146289   6.048   5.493   2.567  0.5527  2.0502  0.8205
  110MOL   H29246290   5.921   5.607   2.630  0.0253 -0.1571 -0.0518
  110MOL   H29346291   6.249   5.631   2.832 -0.4510  1.0075 -0.0491
  110MOL   H29446292   6.145   5.726   2.721  1.6655  0.8297 -0.8883
  110MOL   H29546293   6.242   5.596   2.666  0.8010  1.4227 -0.0555
  110MOL   C29646294   5.941   5.782   3.061 -0.1695  0.2901 -0.5117
  110MOL   C29746295   5.920   5.917   2.980 -0.0470  0.3504 -0.7635
  110MOL   C29846296   6.053   5.967   2.911 -0.2987 -0.2426  0.2234
  110MOL   C29946297   6.176   6.044   2.980  0.3334 -0.2284  0.2034
  110MOL   C30046298   6.220   5.981   3.114  0.6393  0.0150  0.0451
  110MOL   C30146299   6.303   6.043   2.888  0.3350  0.2213  0.8201
  110MOL   C30246300   6.144   6.191   3.000  0.3187 -0.0988  0.6278
  110MOL   H30346301   5.984   5.806   3.158 -0.0803 -2.2691  0.0935
  110MOL   H30446302   5.844   5.744   3.093 -1.1911  3.1584  0.0097
  110MOL   H30546303   5.865   5.891   2.889 -0.3560  0.0458 -0.4904
  110MOL   H30646304   6.007   6.028   2.833 -0.3953  2.0418  2.0365
  110MOL   H30746305   6.083   5.880   2.851  0.5510 -0.3989  0.8565
  110MOL   H30846306   6.313   6.028   3.148 -0.2614  2.1101 -0.3332
  110MOL   H30946307   6.155   5.998   3.200  0.9603 -0.8044  0.4576
  110MOL   H31046308   6.240   5.874   3.109 -2.1602 -0.6425  1.7962
  110MOL   H31146309   6.381   6.102   2.935 -0.9741  1.4063  1.5402
  110MOL   H31246310   6.338   5.941   2.868  0.4590  0.4884 -0.3454
  110MOL   H31346311   6.279   6.085   2.791  1.5783 -0.3547  0.2512
  110MOL   H31446312   6.051   6.203   3.055 -0.4325  2.6470 -1.1486
  110MOL   H31546313   6.217   6.242   3.063 -1.0016  0.6398  1.5752
  110MOL   H31646314   6.142   6.265   2.920  1.1280 -0.6530  0.0840
  110MOL   C31746315   5.840   6.030   3.061  0.2096  0.1646  0.2895
  110MOL   C31846316   5.694   5.988   3.097  0.3124 -0.1625 -0.9461
  110MOL   C31946317   5.607   5.916   2.979  0.0654  0.3743 -0.0330
  110MOL   C32046318   5.551   6.001   2.852 -0.3933  0.0365 -0.3061
  110MOL   C32146319   5.448   6.114   2.892 -0.9807 -0.0586 -0.0427
  110MOL   C32246320   5.493   5.908   2.742 -0.2558 -0.1872 -0.4789
  110MOL   C32346321   5.667   6.072   2.782  0.0496  0.3497 -0.7197
  110MOL   H32446322   5.906   6.058   3.144  1.8757 -1.6668 -0.3801
  110MOL   H32546323   5.834   6.124   3.006 -2.1154  0.3648  0.8286
  110MOL   H32646324   5.648   6.088   3.093  0.9120  0.1321 -0.4732
  110MOL   H32746325   5.516   5.874   3.022  2.2176 -1.3821  3.0184
  110MOL   H32846326   5.653   5.819   2.958  0.7804  0.3797  1.5029
  110MOL   H32946327   5.361   6.081   2.949 -0.4403  0.7664  1.2926
  110MOL   H33046328   5.401   6.152   2.801  0.2138 -0.3837 -0.8015
  110MOL   H33146329   5.496   6.203   2.933 -0.1238  0.5754 -2.3249
  110MOL   H33246330   5.397   5.875   2.782  0.6482 -1.2359  0.8948
  110MOL   H33346331   5.473   5.967   2.653 -0.1864  2.1517  1.0256
  110MOL   H33446332   5.555   5.826   2.704 -0.1210  0.2107 -1.1159
  110MOL   H33546333   5.624   6.125   2.697 -0.7496 -1.6399 -1.5883
  110MOL   H33646334   5.746   6.005   2.749 -1.4851 -2.0665  0.3318
  110MOL   H33746335   5.700   6.150   2.851 -0.0805  0.2119 -0.4966
  110MOL   C33846336   5.673   5.925   3.239  0.7390 -0.3232 -0.0017
  110MOL   C33946337   5.609   6.026   3.341 -0.6446 -0.3815 -0.4444
  110MOL   C34046338   5.628   5.970   3.484 -0.2541  0.3734 -0.6134
  110MOL   C34146339   5.755   6.032   3.557 -0.2274 -0.1484 -0.5005
  110MOL   C34246340   5.885   6.023   3.475 -0.0667 -1.5367 -0.4108
  110MOL   C34346341   5.723   6.181   3.597 -0.7243  0.3410 -0.1054
  110MOL   C34446342   5.776   5.962   3.688  0.4766 -0.0428 -0.1839
  110MOL   H34546343   5.772   5.905   3.279  1.0471  1.3258  0.1200
  110MOL   H34646344   5.629   5.826   3.233 -1.6511  0.6778  0.2590
  110MOL   H34746345   5.660   6.121   3.332 -1.2173  0.1220  1.5123
  110MOL   H34846346   5.638   5.861   3.480  0.2836  0.3991 -0.0064
  110MOL   H34946347   5.545   5.990   3.552  0.1168  0.9029 -0.3087
  110MOL   H35046348   5.923   5.927   3.442 -1.6972 -2.0522 -0.8513
  110MOL   H35146349   5.862   6.086   3.389 -1.6113 -0.5515  0.6885
  110MOL   H35246350   5.968   6.069   3.527 -0.0853 -2.8116  0.7603
  110MOL   H35346351   5.711   6.243   3.507  0.8474  0.2581 -0.3770
  110MOL   H35446352   5.637   6.197   3.662 -0.5253  1.4313 -0.1091
  110MOL   H35546353   5.798   6.234   3.654 -1.2039  2.6257 -1.5370
  110MOL   H35646354   5.821   5.867   3.660 -2.6490 -2.1733  1.7044
  110MOL   H35746355   5.843   6.008   3.760  0.9112 -1.9171  0.6301
  110MOL   H35846356   5.682   5.948   3.742  1.0598 -0.2201  0.7883
  110MOL   C35946357   5.462   6.045   3.296 -0.7598 -0.1735 -0.6712
  110MOL   C36046358   5.382   6.173   3.329  0.1013  1.0173 -0.1681
  110MOL   C36146359   5.229   6.165   3.320 -0.7267  0.3764  0.3567
  110MOL   C36246360   5.155   6.118   3.447 -0.3750 -0.2030 -0.2570
  110MOL   C36346361   5.000   6.118   3.421  0.0175 -0.6234  0.4442
  110MOL   C36446362   5.172   6.220   3.560  0.2748  1.0606 -0.5575
  110MOL   C36546363   5.215   5.983   3.491  0.3816  0.6919 -0.9486
  110MOL   H36646364   5.415   5.952   3.331  0.9087 -0.8069 -0.0942
  110MOL   H36746365   5.459   6.038   3.187 -2.1485 -1.0756 -0.5923
  110MOL   H36846366   5.409   6.202   3.431 -0.8622 -0.2106  0.4449
  110MOL   H36946367   5.186   6.264   3.303  0.1191  1.0242  1.8071
  110MOL   H37046368   5.197   6.099   3.240  0.9844  2.0450 -1.7678
  110MOL   H37146369   4.968   6.218   3.393  0.4358 -0.6261 -0.0711
  110MOL   H37246370   4.964   6.054   3.340  1.9957 -1.2059 -0.0281
  110MOL   H37346371   4.960   6.081   3.515 -1.5394  2.2919  0.9636
  110MOL   H37446372   5.270   6.218   3.609 -0.6687  1.6295  1.3958
  110MOL   H37546373   5.103   6.207   3.643 -0.8294  1.2736 -1.4463
  110MOL   H37646374   5.146   6.321   3.529  1.1100  1.6157  0.4830
  110MOL   H37746375   5.320   5.997   3.518  0.4442  0.5288 -1.1080
  110MOL   H37846376   5.200   5.916   3.407 -0.3904 -0.7752  0.3277
  110MOL   H37946377   5.160   5.944   3.577  1.4151  0.3523 -0.4350
  110MOL   C38046378   5.445   6.280   3.243 -0.3188 -0.5146 -0.9913
  110MOL   C38146379   5.448   6.427   3.286  0.5130 -1.1089  0.3556
  110MOL   C38246380   5.534   6.510   3.177 -0.0969 -0.7150 -0.7880
  110MOL   C38346381   5.456   6.590   3.065 -0.2860  0.2550  0.3762
  110MOL   C38446382   5.378   6.489   2.986  0.2549  0.0285  0.1393
  110MOL   C38546383   5.559   6.661   2.973 -0.0840 -0.1140 -0.5246
  110MOL   C38646384   5.355   6.685   3.132  0.3198 -0.0089  0.2255
  110MOL   H38746385   5.418   6.274   3.138 -0.7276 -0.4323 -0.8900
  110MOL   H38846386   5.551   6.253   3.237 -0.6667 -2.5216  1.0172
  110MOL   H38946387   5.342   6.453   3.278  0.7329  0.6974  2.7589
  110MOL   H39046388   5.605   6.570   3.235 -0.4545  1.2477 -2.3382
  110MOL   H39146389   5.602   6.442   3.125  2.1118  0.4876  0.4282
  110MOL   H39246390   5.303   6.436   3.045  0.5003 -1.2926 -0.7211
  110MOL   H39346391   5.321   6.552   2.918  0.2970 -0.6655 -0.5472
  110MOL   H39446392   5.443   6.422   2.930 -1.1980 -0.4581 -0.9933
  110MOL   H39546393   5.634   6.590   2.939 -0.0412 -0.5226  0.4206
  110MOL   H39646394   5.623   6.738   3.016  0.7177 -0.0166 -1.8800
  110MOL   H39746395   5.506   6.703   2.887 -2.5675 -1.3891  0.3057
  110MOL   H39846396   5.402   6.743   3.211  1.3691 -0.2794 -0.1880
  110MOL   H39946397   5.274   6.623   3.171 -1.0972  0.6985 -1.5176
  110MOL   H40046398   5.310   6.758   3.065 -1.4909 -1.3341 -0.0497
  110MOL   C40146399   5.488   6.452   3.435 -0.1620  0.5602  0.2799
  110MOL   C40246400   5.454   6.599   3.489  0.1796  0.1519  0.0071
  110MOL   C40346401   5.496   6.632   3.631  0.2744 -0.4008 -0.1387
  110MOL   C40446402   5.427   6.755   3.691  0.2427 -0.0096 -0.0842
  110MOL   C40546403   5.267   6.761   3.683  0.1078  0.1295  0.3742
  110MOL   C40646404   5.487   6.886   3.628 -0.2121  0.4117  0.8198
  110MOL   C40746405   5.458   6.752   3.841  0.1976 -0.4907  1.3814
  110MOL   H40846406   5.438   6.387   3.507 -0.1840 -1.2726 -1.3384
  110MOL   H40946407   5.595   6.443   3.450  0.1236  3.1632  0.0406
  110MOL   H41046408   5.481   6.683   3.425 -1.5478  1.2879  0.7348
  110MOL   H41146409   5.603   6.650   3.642 -0.1479  1.9500  0.5738
  110MOL   H41246410   5.478   6.549   3.699  0.5186 -1.4440 -1.3484
  110MOL   H41346411   5.229   6.850   3.732 -1.3244  0.6933 -1.6981
  110MOL   H41446412   5.213   6.674   3.721  0.5189 -0.0247  0.6197
  110MOL   H41546413   5.232   6.767   3.580  0.1094 -0.2106  0.3526
  110MOL   H41646414   5.447   6.974   3.679 -0.7985  1.1820 -0.9116
  110MOL   H41746415   5.474   6.893   3.520 -0.0226 -3.0805  0.5223
  110MOL   H41846416   5.595   6.888   3.636 -0.2284  3.1638  0.8688
  110MOL   H41946417   5.565   6.768   3.856  0.6424 -2.9591  1.1129
  110MOL   H42046418   5.413   6.835   3.896 -0.2636  0.7911 -0.8399
  110MOL   H42146419   5.425   6.663   3.894 -1.0100 -0.1211  1.2765
  110MOL   H42246420   5.345   6.592   3.489  0.2522 -1.5158 -2.0640
  111MOL     C146421   3.983   1.426   5.405  0.2873 -0.3381  0.2067
  111MOL     C246422   3.889   1.529   5.338 -0.6159 -0.3643  0.0293
  111MOL     C346423   3.909   1.525   5.182  0.1195 -0.6505 -0.3288
  111MOL     C446424   3.773   1.508   5.104 -0.1846  0.5077 -0.8519
  111MOL     C546425   3.805   1.542   4.955 -0.4116 -0.2113 -0.4634
  111MOL     C646426   3.734   1.356   5.112 -0.5359  0.6324 -0.5067
  111MOL     C746427   3.657   1.592   5.153  0.3247  0.0038 -0.1922
  111MOL     H846428   4.087   1.455   5.391 -0.1852  0.5113 -1.7106
  111MOL     H946429   3.968   1.414   5.512  1.0632  0.3456  0.3929
  111MOL    H1046430   3.789   1.492   5.361 -1.2248  1.3172  0.1771
  111MOL    H1146431   3.983   1.450   5.156  2.4819  0.6296  2.5032
  111MOL    H1246432   3.974   1.605   5.149  2.7282 -1.8147  1.8004
  111MOL    H1346433   3.821   1.649   4.943 -2.8353  0.1200 -0.9629
  111MOL    H1446434   3.726   1.525   4.883 -0.0276  1.1440 -1.2255
  111MOL    H1546435   3.895   1.493   4.918 -0.0374  0.1864 -0.0896
  111MOL    H1646436   3.637   1.318   5.080 -0.4544  0.0942 -0.1164
  111MOL    H1746437   3.810   1.292   5.067 -0.3952 -0.4705  1.2364
  111MOL    H1846438   3.755   1.323   5.214  2.9156 -1.0465 -1.6651
  111MOL    H1946439   3.669   1.700   5.148 -0.3722  0.0302 -1.3876
  111MOL    H2046440   3.631   1.563   5.255  0.6425  3.5426  0.9828
  111MOL    H2146441   3.575   1.575   5.084  0.6239 -1.1511 -0.2641
  111MOL    H2246442   3.960   1.328   5.362  2.5189 -0.8760  0.2044
  111MOL    C2346443   3.914   1.678   5.378 -0.2112  0.7810 -0.2585
  111MOL    C2446444   3.877   1.719   5.525  0.0255  0.0032 -0.3408
  111MOL    C2546445   3.731   1.702   5.567 -0.1678  0.7165 -0.0614
  111MOL    C2646446   3.695   1.651   5.709 -0.4972  0.3985  0.0803
  111MOL    C2746447   3.738   1.509   5.740 -0.1140  0.5712 -0.1034
  111MOL    C2846448   3.753   1.737   5.829  0.0933  0.3008 -0.5571
  111MOL    C2946449   3.545   1.651   5.718 -0.3229  0.4435  0.3433
  111MOL    H3046450   4.019   1.701   5.361 -0.1292 -0.6977 -1.8432
  111MOL    H3146451   3.847   1.737   5.315 -0.2506  2.1669  1.0506
  111MOL    H3246452   3.931   1.652   5.593 -0.2336  0.8544  0.7225
  111MOL    H3346453   3.687   1.623   5.506  0.3085  0.5353 -0.1659
  111MOL    H3446454   3.674   1.791   5.540  0.7911  0.8841 -1.6127
  111MOL    H3546455   3.712   1.466   5.837  0.4311  2.1136  0.7371
  111MOL    H3646456   3.706   1.429   5.674  0.6573 -0.2335  0.4766
  111MOL    H3746457   3.845   1.525   5.724 -0.1668  2.5507  1.3475
  111MOL    H3846458   3.859   1.759   5.828  0.2084 -0.0184  1.8503
  111MOL    H3946459   3.693   1.828   5.833 -0.9499 -0.4133  0.7593
  111MOL    H4046460   3.729   1.682   5.920 -2.5425  1.3910 -0.5460
  111MOL    H4146461   3.504   1.600   5.805  0.1607 -0.1605  0.2196
  111MOL    H4246462   3.506   1.596   5.632  1.4231 -0.0775 -0.1433
  111MOL    H4346463   3.502   1.752   5.717 -0.0371  0.5938 -3.3568
  111MOL    C4446464   3.923   1.864   5.544 -0.3125 -0.0677 -0.2113
  111MOL    C4546465   4.068   1.887   5.558  0.1888 -0.5030 -0.4161
  111MOL    C4646466   4.134   1.817   5.686 -0.4790  0.0928  0.8157
  111MOL    C4746467   4.261   1.727   5.676 -0.3347  0.0862 -0.1252
  111MOL    C4846468   4.298   1.687   5.820 -0.1032 -0.1375  0.3217
  111MOL    C4946469   4.369   1.828   5.630 -0.6147  0.2786  0.3619
  111MOL    C5046470   4.249   1.597   5.597  0.0443  0.9260 -0.2071
  111MOL    H5146471   3.872   1.928   5.473  0.1802 -0.3314 -0.8146
  111MOL    H5246472   3.874   1.903   5.633 -1.9829  1.4342 -1.7529
  111MOL    H5346473   4.117   1.844   5.471  0.9836  1.0965 -0.7809
  111MOL    H5446474   4.063   1.746   5.729 -0.5727 -0.9933 -1.0394
  111MOL    H5546475   4.140   1.898   5.758 -0.3547  0.9489 -0.1416
  111MOL    H5646476   4.295   1.770   5.891 -1.5550 -0.9554  1.2489
  111MOL    H5746477   4.392   1.633   5.829  1.0307  1.7255 -0.0020
  111MOL    H5846478   4.221   1.616   5.850  1.0656 -0.3863  2.8200
  111MOL    H5946479   4.381   1.915   5.694 -0.6725  0.5138  0.0541
  111MOL    H6046480   4.463   1.778   5.608 -0.3721  1.5991 -1.7808
  111MOL    H6146481   4.332   1.872   5.537  0.5480  1.8294  0.6086
  111MOL    H6246482   4.264   1.597   5.489  2.7460 -0.1598  0.1168
  111MOL    H6346483   4.333   1.532   5.624 -0.2770 -0.5789 -2.6698
  111MOL    H6446484   4.158   1.541   5.616  0.1866  0.9572  0.5525
  111MOL    C6546485   4.112   2.038   5.550 -0.7293  0.4905 -0.0782
  111MOL    C6646486   4.095   2.116   5.416  0.0801  0.1323  0.5811
  111MOL    C6746487   4.213   2.100   5.316 -0.3282  0.4399 -0.0811
  111MOL    C6846488   4.193   2.045   5.177 -0.2857  0.6600 -0.2972
  111MOL    C6946489   4.094   2.127   5.096 -0.2579 -0.5154 -0.4054
  111MOL    C7046490   4.333   2.059   5.113 -0.1746  0.2862  1.0002
  111MOL    C7146491   4.157   1.896   5.180  0.3057  0.0405  1.1521
  111MOL    H7246492   4.049   2.083   5.628 -1.4627  0.6474 -0.7533
  111MOL    H7346493   4.196   2.062   5.614  1.3179 -1.7721 -1.8450
  111MOL    H7446494   4.011   2.070   5.365 -0.4755  2.0663 -0.2983
  111MOL    H7546495   4.282   2.037   5.372 -2.9516 -3.3216 -0.8549
  111MOL    H7646496   4.270   2.192   5.319 -0.7935  0.7766 -1.2591
  111MOL    H7746497   4.126   2.231   5.092  0.4644 -0.7170  0.1078
  111MOL    H7846498   4.097   2.098   4.991  3.1131 -1.6578 -0.0559
  111MOL    H7946499   3.993   2.125   5.136 -0.7369 -0.6696 -1.5978
  111MOL    H8046500   4.400   1.975   5.129  1.7237  1.9027  1.8875
  111MOL    H8146501   4.393   2.141   5.153 -0.8309  0.4600  1.6393
  111MOL    H8246502   4.330   2.074   5.005 -0.7003 -1.3602  0.7803
  111MOL    H8346503   4.239   1.842   5.227  4.7574  1.1004 -4.8013
  111MOL    H8446504   4.149   1.867   5.075 -0.1878 -3.4974  2.1096
  111MOL    H8546505   4.066   1.885   5.239 -0.4217 -2.0273 -0.2747
  111MOL    C8646506   4.065   2.267   5.428  0.9378 -0.1980 -0.5409
  111MOL    C8746507   3.922   2.289   5.488  0.4780 -0.2940 -0.5379
  111MOL    C8846508   3.814   2.297   5.375 -0.0528  0.2136  0.7561
  111MOL    C8946509   3.654   2.274   5.417  0.3039 -0.0125  0.4132
  111MOL    C9046510   3.574   2.219   5.300  0.3666  0.4129  0.1305
  111MOL    C9146511   3.585   2.406   5.449  0.0229  0.5209 -1.1992
  111MOL    C9246512   3.647   2.171   5.526  0.0658 -0.0403  0.3858
  111MOL    H9346513   4.078   2.311   5.329  3.6667 -0.4371 -0.3355
  111MOL    H9446514   4.130   2.312   5.503  1.4679 -0.6269 -0.7475
  111MOL    H9546515   3.893   2.220   5.567 -0.8626  1.1060  0.2036
  111MOL    H9646516   3.842   2.213   5.311 -1.8538  0.2729 -0.1444
  111MOL    H9746517   3.832   2.385   5.313 -0.1786 -1.3294 -1.5409
  111MOL    H9846518   3.623   2.129   5.261 -2.5549 -1.5255  0.7891
  111MOL    H9946519   3.573   2.289   5.217 -0.3894  0.7364  0.4108
  111MOL   H10046520   3.474   2.197   5.336  0.0157 -1.0159 -1.6443
  111MOL   H10146521   3.478   2.393   5.436 -0.4160  1.6802  1.0569
  111MOL   H10246522   3.616   2.443   5.546  1.9645  1.3260 -2.0954
  111MOL   H10346523   3.613   2.482   5.375  2.4422 -0.4705 -1.3520
  111MOL   H10446524   3.690   2.075   5.495 -0.4769 -0.5733  1.2380
  111MOL   H10546525   3.695   2.196   5.621  1.2613  0.4694 -0.3429
  111MOL   H10646526   3.542   2.155   5.551  0.5428 -2.2920  1.0540
  111MOL   C10746527   3.922   2.413   5.586 -0.2635 -0.4600 -0.4020
  111MOL   C10846528   3.982   2.549   5.534 -0.3827 -0.4306 -0.8142
  111MOL   C10946529   3.876   2.646   5.480 -0.4678  0.5696 -0.0864
  111MOL   C11046530   3.909   2.732   5.354  1.0403  0.4318  0.2772
  111MOL   C11146531   3.780   2.772   5.284  0.6426  0.5218 -0.2579
  111MOL   C11246532   3.995   2.660   5.251  0.3303 -0.2379 -0.2082
  111MOL   C11346533   3.982   2.861   5.415  1.0439 -0.2988 -0.0227
  111MOL   H11446534   3.984   2.383   5.670  0.4261 -0.2054 -0.8186
  111MOL   H11546535   3.826   2.434   5.634  0.0216 -3.4454  1.6162
  111MOL   H11646536   4.048   2.535   5.449 -0.4953 -0.3157 -0.9206
  111MOL   H11746537   3.801   2.576   5.443  0.6709  0.6425 -2.5889
  111MOL   H11846538   3.830   2.700   5.563  2.6967  3.6944 -0.2593
  111MOL   H11946539   3.696   2.785   5.353  0.8161  2.9383 -0.4550
  111MOL   H12046540   3.783   2.864   5.224 -1.1243  1.9769  1.7786
  111MOL   H12146541   3.744   2.694   5.216  1.9518  0.9542 -1.4653
  111MOL   H12246542   4.007   2.714   5.157  1.1682  1.3127  0.7563
  111MOL   H12346543   3.950   2.565   5.223 -0.6356 -0.3985  1.8144
  111MOL   H12446544   4.102   2.649   5.271  0.5424 -1.5357 -1.9376
  111MOL   H12546545   4.024   2.924   5.336  1.6821  1.5921  1.7943
  111MOL   H12646546   4.068   2.840   5.479  0.2730  0.6093  1.3319
  111MOL   H12746547   3.916   2.925   5.473  2.0830  0.2680  0.5428
  111MOL   C12846548   4.054   2.622   5.647  0.0656 -0.5127  0.1047
  111MOL   C12946549   4.200   2.577   5.668  0.5904 -0.5334 -0.5983
  111MOL   C13046550   4.287   2.633   5.557  0.4068  0.1067 -0.1333
  111MOL   C13146551   4.425   2.577   5.529 -0.1837 -0.1410  0.5369
  111MOL   C13246552   4.534   2.632   5.628  0.1297 -0.7999 -0.1128
  111MOL   C13346553   4.472   2.621   5.386 -0.3306 -0.2602 -0.7978
  111MOL   C13446554   4.421   2.430   5.526  0.5533 -0.6410 -0.6856
  111MOL   H13546555   4.008   2.590   5.740 -1.6302 -1.5883 -1.0614
  111MOL   H13646556   4.039   2.729   5.653 -2.1886 -0.7257 -1.0942
  111MOL   H13746557   4.202   2.468   5.661 -4.3379 -0.7643 -0.6457
  111MOL   H13846558   4.234   2.630   5.462  0.7819 -0.9194 -0.3170
  111MOL   H13946559   4.304   2.739   5.574  0.5278 -0.1033  1.1136
  111MOL   H14046560   4.532   2.741   5.629  1.9132 -0.7509 -0.3598
  111MOL   H14146561   4.637   2.618   5.596  0.4031  0.1769  0.3365
  111MOL   H14246562   4.539   2.600   5.732  0.3644  2.5117  0.9544
  111MOL   H14346563   4.409   2.585   5.304  0.6149 -2.1060 -0.7356
  111MOL   H14446564   4.573   2.581   5.375  0.4173  1.2806  0.2804
  111MOL   H14546565   4.486   2.729   5.379  1.1367 -0.3068  1.1451
  111MOL   H14646566   4.520   2.407   5.486  0.9465 -1.8280  0.9149
  111MOL   H14746567   4.409   2.381   5.622 -1.6698  1.8751  0.3692
  111MOL   H14846568   4.348   2.398   5.451  0.6010  0.1883 -1.0886
  111MOL   C14946569   4.244   2.609   5.818  0.5184 -0.1852 -0.0347
  111MOL   C15046570   4.187   2.531   5.937 -0.1684  0.4313  0.0101
  111MOL   C15146571   4.258   2.392   5.943 -0.5204  0.1681  0.4388
  111MOL   C15246572   4.177   2.265   5.991 -0.8591  0.0609  0.6499
  111MOL   C15346573   4.138   2.285   6.139 -0.2312 -0.0735 -0.4734
  111MOL   C15446574   4.283   2.149   6.005 -0.1001 -0.1041 -0.0720
  111MOL   C15546575   4.056   2.224   5.911 -0.4624 -0.1386  0.0112
  111MOL   H15646576   4.194   2.705   5.829  0.7812  0.0096 -0.4862
  111MOL   H15746577   4.352   2.622   5.827  0.3866  0.5928  0.4594
  111MOL   H15846578   4.080   2.511   5.927  0.1373 -1.0994 -0.2488
  111MOL   H15946579   4.360   2.400   5.980 -0.5587 -0.4721  0.6932
  111MOL   H16046580   4.286   2.368   5.840  0.2216  2.1826  0.1537
  111MOL   H16146581   4.109   2.190   6.184  0.9808 -0.6156 -0.8168
  111MOL   H16246582   4.226   2.314   6.196  0.1518  1.3393 -1.7672
  111MOL   H16346583   4.057   2.356   6.146 -0.2957  0.1729 -3.1504
  111MOL   H16446584   4.363   2.143   5.932  0.0559 -1.1433  0.1723
  111MOL   H16546585   4.231   2.054   5.996 -0.3641  0.1583 -1.3660
  111MOL   H16646586   4.337   2.154   6.100  0.3715  1.6150 -0.4125
  111MOL   H16746587   4.013   2.138   5.962 -0.1737  0.3548  1.0928
  111MOL   H16846588   3.983   2.302   5.893 -0.5232  0.4980  2.8341
  111MOL   H16946589   4.092   2.192   5.813  3.8301  0.1339  1.3962
  111MOL   C17046590   4.211   2.605   6.076  0.5303 -0.1273 -0.5337
  111MOL   C17146591   4.125   2.737   6.107  0.1352  0.1547  0.4015
  111MOL   C17246592   4.180   2.831   6.216 -0.3801 -0.6234  0.0250
  111MOL   C17346593   4.280   2.941   6.169 -0.1778 -0.2368 -0.1880
  111MOL   C17446594   4.357   3.004   6.284  0.0974 -0.1925  0.0361
  111MOL   C17546595   4.204   3.066   6.115  0.1617  0.6583  0.1881
  111MOL   C17646596   4.389   2.903   6.060  0.5861 -0.2763  0.0792
  111MOL   H17746597   4.314   2.640   6.067  0.6691 -0.2482  0.5193
  111MOL   H17846598   4.211   2.536   6.160  0.0303 -1.4522 -1.6114
  111MOL   H17946599   4.125   2.799   6.017 -0.7002  0.4431  0.5938
  111MOL   H18046600   4.109   2.875   6.286  1.3589  0.9111  0.8890
  111MOL   H18146601   4.242   2.779   6.290  2.3490 -0.3434 -1.9762
  111MOL   H18246602   4.405   3.096   6.252  1.7734 -0.5018  1.5423
  111MOL   H18346603   4.288   3.042   6.360 -0.0789  2.2064 -1.2974
  111MOL   H18446604   4.428   2.937   6.333 -1.5019 -0.2901  2.3003
  111MOL   H18546605   4.126   3.102   6.183 -0.7951  2.1935 -1.6789
  111MOL   H18646606   4.272   3.149   6.095 -0.5791  1.7696  2.1197
  111MOL   H18746607   4.158   3.042   6.019  2.2309 -0.4814 -0.5440
  111MOL   H18846608   4.344   2.870   5.966  3.7230 -0.5000 -1.4042
  111MOL   H18946609   4.463   2.976   6.027  1.0349 -1.7317 -2.3061
  111MOL   H19046610   4.440   2.816   6.102  0.2101 -1.5540 -2.0162
  111MOL   C19146611   3.979   2.704   6.138  0.2819 -0.8550 -0.5826
  111MOL   C19246612   3.880   2.829   6.118  0.1559  0.5873 -0.0660
  111MOL   C19346613   3.745   2.807   6.187  0.0685 -0.0091  0.0631
  111MOL   C19446614   3.717   2.840   6.336  0.5607  0.4157 -0.4274
  111MOL   C19546615   3.581   2.766   6.362 -0.9387 -0.6335  0.2192
  111MOL   C19646616   3.704   2.990   6.363 -0.4596 -0.7620  0.2372
  111MOL   C19746617   3.829   2.791   6.428 -0.0932 -0.4757 -0.3357
  111MOL   H19846618   3.952   2.619   6.075 -2.1777 -1.4841  1.2652
  111MOL   H19946619   3.977   2.671   6.242  0.4440 -1.9377 -0.9211
  111MOL   H20046620   3.923   2.921   6.157  0.2923  0.8342 -0.7770
  111MOL   H20146621   3.734   2.699   6.188  0.9644 -0.1222  3.0517
  111MOL   H20246622   3.658   2.840   6.130  0.2570  2.0775  0.9205
  111MOL   H20346623   3.504   2.802   6.294  0.0809 -0.3094 -0.7783
  111MOL   H20446624   3.597   2.658   6.358 -0.3801 -0.5811  0.9589
  111MOL   H20546625   3.541   2.796   6.459 -1.9428  2.7991 -1.1988
  111MOL   H20646626   3.614   3.024   6.312 -1.7806 -2.6959  1.1807
  111MOL   H20746627   3.691   3.018   6.468  1.4380 -0.9189  0.5251
  111MOL   H20846628   3.798   3.035   6.331 -0.5216  0.5197  1.8128
  111MOL   H20946629   3.847   2.684   6.421  0.6273 -0.3926  0.1899
  111MOL   H21046630   3.920   2.850   6.415 -0.8661  0.5319 -1.2284
  111MOL   H21146631   3.809   2.819   6.532  1.8958  0.4968 -0.1970
  111MOL   C21246632   3.854   2.855   5.971 -0.3945  0.4692  0.0511
  111MOL   C21346633   3.760   2.978   5.936 -0.2397  0.3966  0.4331
  111MOL   C21446634   3.705   2.969   5.788 -0.9183 -0.1889  0.3963
  111MOL   C21546635   3.570   2.893   5.756 -0.3278  0.0405 -0.0838
  111MOL   C21646636   3.452   2.966   5.830  0.1292  0.4923 -0.0916
  111MOL   C21746637   3.556   2.903   5.608 -0.6824  0.1735  0.4846
  111MOL   C21846638   3.573   2.742   5.796  0.4974  0.4874 -0.7043
  111MOL   H21946639   3.947   2.859   5.915  0.8243 -2.0842  1.7918
  111MOL   H22046640   3.811   2.762   5.933 -1.6191  0.3357  1.6821
  111MOL   H22146641   3.671   2.991   5.998  0.5736  0.0323  1.6854
  111MOL   H22246642   3.788   2.927   5.730  0.3233  0.9629  1.3251
  111MOL   H22346643   3.688   3.063   5.735 -1.7461 -2.2477 -3.2156
  111MOL   H22446644   3.356   2.919   5.811  1.2020 -1.7067 -0.2668
  111MOL   H22546645   3.437   3.067   5.791 -1.9599 -0.3891 -1.6643
  111MOL   H22646646   3.465   2.957   5.938  1.0997  1.9844 -0.0577
  111MOL   H22746647   3.562   3.005   5.570  0.6413 -0.0237  0.1291
  111MOL   H22846648   3.636   2.856   5.550  1.5023  1.7829  2.0844
  111MOL   H22946649   3.467   2.852   5.573  0.5815 -0.0125 -2.6451
  111MOL   H23046650   3.477   2.694   5.775  0.6784 -0.5447  0.7589
  111MOL   H23146651   3.585   2.721   5.903 -1.3290  0.9455 -0.3872
  111MOL   H23246652   3.644   2.685   5.737 -0.4900 -1.3462 -0.1785
  111MOL   C23346653   3.852   3.106   5.941 -0.7436  0.2962 -0.3205
  111MOL   C23446654   3.801   3.252   5.911 -0.1089 -0.6059  0.5428
  111MOL   C23546655   3.723   3.304   6.045  0.3955 -0.3471  0.1045
  111MOL   C23646656   3.622   3.425   6.027  0.5508 -0.2574 -0.0507
  111MOL   C23746657   3.692   3.557   5.976 -0.1502 -0.3492 -0.9933
  111MOL   C23846658   3.504   3.391   5.933  0.7924 -0.3348  0.9334
  111MOL   C23946659   3.566   3.464   6.168 -0.6214 -0.1407 -0.4557
  111MOL   H24046660   3.939   3.092   5.877  0.1978 -0.1065  1.0427
  111MOL   H24146661   3.901   3.121   6.036 -0.2772  1.0945 -0.6757
  111MOL   H24246662   3.724   3.238   5.835 -0.5990  0.0372  0.9096
  111MOL   H24346663   3.666   3.223   6.090 -0.0817  0.1914  0.4706
  111MOL   H24446664   3.810   3.321   6.108  0.4118 -1.3421  0.3529
  111MOL   H24546665   3.742   3.557   5.879  1.0168 -0.8922 -0.3922
  111MOL   H24646666   3.769   3.578   6.050 -1.3000 -2.0418  0.7312
  111MOL   H24746667   3.620   3.639   5.973 -0.6490 -0.7735 -0.6328
  111MOL   H24846668   3.458   3.298   5.967 -0.4472  0.5484  1.6853
  111MOL   H24946669   3.426   3.466   5.940  0.9007 -0.1251 -0.0674
  111MOL   H25046670   3.539   3.377   5.831  0.4369  0.0962  0.7525
  111MOL   H25146671   3.622   3.528   6.236  0.5361 -0.0071 -1.5222
  111MOL   H25246672   3.468   3.506   6.146 -0.8392 -1.7896 -2.7846
  111MOL   H25346673   3.551   3.376   6.231  0.2655 -0.1993 -0.3180
  111MOL   C25446674   3.913   3.340   5.860  0.1856 -0.1697  0.4578
  111MOL   C25546675   3.920   3.348   5.702  0.6972  0.1267 -0.1295
  111MOL   C25646676   4.061   3.392   5.659  0.6697  0.7763 -0.3685
  111MOL   C25746677   4.158   3.278   5.602  0.4388 -0.3910  0.0364
  111MOL   C25846678   4.302   3.324   5.627 -0.5693  0.1826 -0.4019
  111MOL   C25946679   4.132   3.259   5.452 -0.2515  0.2411 -0.0844
  111MOL   C26046680   4.146   3.138   5.667 -0.6994  0.7321  1.0332
  111MOL   H26146681   4.009   3.315   5.904  0.4835 -1.1325 -0.7228
  111MOL   H26246682   3.907   3.442   5.897  0.9913  0.6605 -1.6433
  111MOL   H26346683   3.908   3.242   5.678  0.0663  0.2293 -0.2854
  111MOL   H26446684   4.047   3.457   5.572  2.5632  1.7331  0.0192
  111MOL   H26546685   4.110   3.451   5.736  1.7012 -0.5278 -0.0104
  111MOL   H26646686   4.383   3.256   5.602  0.7275  1.1866  0.9786
  111MOL   H26746687   4.307   3.342   5.735 -2.0529 -0.3022 -0.2296
  111MOL   H26846688   4.322   3.421   5.581 -0.2113 -0.1570 -0.9698
  111MOL   H26946689   4.154   3.356   5.409 -2.6496  0.9619  0.2634
  111MOL   H27046690   4.028   3.229   5.441 -0.4160  0.9807 -0.5436
  111MOL   H27146691   4.196   3.183   5.406 -0.9499  0.8099 -2.0407
  111MOL   H27246692   4.052   3.096   5.631  0.4284 -3.2591  2.4684
  111MOL   H27346693   4.228   3.083   5.622 -1.8327  1.0115 -1.4390
  111MOL   H27446694   4.148   3.146   5.776  0.0638  1.5157  0.9721
  111MOL   C27546695   3.807   3.434   5.643 -0.0699 -0.2239  0.5393
  111MOL   C27646696   3.795   3.451   5.485  0.5320  0.0586  0.1285
  111MOL   C27746697   3.733   3.315   5.436  0.1164 -0.5865  0.7292
  111MOL   C27846698   3.727   3.292   5.283 -0.5754  0.0297  0.2169
  111MOL   C27946699   3.850   3.349   5.207 -0.0487 -0.2578 -0.7365
  111MOL   C28046700   3.730   3.138   5.265 -0.2675 -0.0335 -0.0591
  111MOL   C28146701   3.591   3.351   5.229 -0.7553  0.0398  0.2124
  111MOL   H28246702   3.713   3.395   5.682 -0.8602  0.7740 -0.3223
  111MOL   H28346703   3.823   3.532   5.687  3.3593 -0.1873 -0.6594
  111MOL   H28446704   3.896   3.465   5.446  1.7614 -0.7602  2.8808
  111MOL   H28546705   3.635   3.297   5.478 -0.9460  1.0365 -0.9846
  111MOL   H28646706   3.805   3.246   5.481  0.9145  0.1621  0.6222
  111MOL   H28746707   3.838   3.326   5.101  3.5545 -0.8032 -1.1109
  111MOL   H28846708   3.866   3.457   5.207  1.5559 -0.4766 -0.2394
  111MOL   H28946709   3.940   3.297   5.238 -0.3410 -0.5097 -0.3172
  111MOL   H29046710   3.750   3.114   5.161 -0.6612 -0.5553 -0.0148
  111MOL   H29146711   3.630   3.099   5.283 -0.5904  0.0893 -1.4968
  111MOL   H29246712   3.802   3.093   5.333  0.1519 -0.9307 -1.0845
  111MOL   H29346713   3.574   3.314   5.127  1.2631  1.3799 -0.6258
  111MOL   H29446714   3.610   3.457   5.212  1.4331 -0.0651  1.9462
  111MOL   H29546715   3.509   3.335   5.300 -1.2901 -1.5778 -0.7322
  111MOL   C29646716   3.705   3.570   5.445  0.0014  0.1559  0.0032
  111MOL   C29746717   3.720   3.704   5.523 -0.4370 -0.0196 -0.2858
  111MOL   C29846718   3.612   3.802   5.477  0.6687  0.1199 -0.0323
  111MOL   C29946719   3.458   3.784   5.521 -0.5352 -0.4592  0.3755
  111MOL   C30046720   3.383   3.914   5.539 -0.2077 -0.5030  0.1911
  111MOL   C30146721   3.390   3.706   5.411  0.4065  0.0750 -0.0824
  111MOL   C30246722   3.443   3.705   5.655  0.1853  0.6737  0.0167
  111MOL   H30346723   3.602   3.537   5.456  0.0005 -0.4090 -1.5899
  111MOL   H30446724   3.718   3.584   5.338 -1.4861 -1.5415 -0.4191
  111MOL   H30546725   3.705   3.687   5.630  2.4154  2.5997  0.6114
  111MOL   H30646726   3.630   3.843   5.377  0.7347 -1.0231 -0.4985
  111MOL   H30746727   3.627   3.893   5.535 -0.4389 -0.5484  1.3302
  111MOL   H30846728   3.395   3.992   5.464  0.2274  0.4825  1.2637
  111MOL   H30946729   3.279   3.885   5.524 -0.1104  0.6793 -2.9176
  111MOL   H31046730   3.404   3.970   5.630  0.5684 -0.9162  0.2773
  111MOL   H31146731   3.282   3.701   5.416  0.3470 -1.3103 -2.0857
  111MOL   H31246732   3.420   3.736   5.311 -0.3798  3.3597  0.6350
  111MOL   H31346733   3.418   3.600   5.416  2.2501  0.5204 -0.4685
  111MOL   H31446734   3.502   3.614   5.661 -1.2644 -0.2824 -0.0197
  111MOL   H31546735   3.465   3.769   5.741  0.4566  0.9028 -0.2227
  111MOL   H31646736   3.340   3.673   5.674  0.4725 -1.4311 -1.7639
  111MOL   C31746737   3.867   3.759   5.504  0.0667 -0.1359  0.1734
  111MOL   C31846738   3.921   3.878   5.588 -0.5523 -0.3541 -0.1805
  111MOL   C31946739   3.963   3.824   5.735  0.0755 -0.5512 -0.0812
  111MOL   C32046740   3.926   3.911   5.851 -0.3843 -0.0749 -0.1006
  111MOL   C32146741   3.975   3.851   5.980  0.1567  0.2174  0.3202
  111MOL   C32246742   3.767   3.917   5.871 -0.3870  0.4233  0.4842
  111MOL   C32346743   4.005   4.049   5.851 -0.2072  0.5428 -0.3433
  111MOL   H32446744   3.939   3.680   5.524  0.6354 -0.3132 -2.3824
  111MOL   H32546745   3.880   3.779   5.398 -1.5187 -0.0954 -0.0229
  111MOL   H32646746   3.837   3.947   5.586 -1.9466 -2.0306 -1.1665
  111MOL   H32746747   4.067   3.796   5.720  0.2399 -0.0977  0.1942
  111MOL   H32846748   3.905   3.733   5.745 -1.5616  0.4456 -0.2127
  111MOL   H32946749   3.924   3.898   6.064 -1.3979  0.6190 -0.8277
  111MOL   H33046750   4.083   3.863   5.990  0.0564  1.5170 -0.1320
  111MOL   H33146751   3.954   3.744   5.988  1.1789 -0.0344 -0.1796
  111MOL   H33246752   3.722   3.969   5.786  1.8187  0.8032 -0.4888
  111MOL   H33346753   3.727   3.817   5.884  1.9848 -0.6305 -0.1956
  111MOL   H33446754   3.741   3.988   5.950  0.1703  1.6848 -0.4480
  111MOL   H33546755   4.110   4.020   5.849 -0.6724 -1.2927  0.8555
  111MOL   H33646756   3.990   4.119   5.933 -1.0302 -1.3910  1.1697
  111MOL   H33746757   3.987   4.106   5.759  0.4556  0.4916 -0.5070
  111MOL   C33846758   4.045   3.943   5.524  0.1077  0.7234  0.0816
  111MOL   C33946759   4.028   4.042   5.407 -1.0261  0.8025  0.3674
  111MOL   C34046760   4.153   4.056   5.326 -0.5977  0.1569 -0.4171
  111MOL   C34146761   4.174   3.984   5.194 -0.3797  0.6318  0.9630
  111MOL   C34246762   4.322   3.991   5.165 -0.2038  0.7396 -0.2148
  111MOL   C34346763   4.142   3.832   5.214  0.4374  0.0714 -0.2851
  111MOL   C34446764   4.096   4.044   5.080  0.1712  0.1010  0.2192
  111MOL   H34546765   4.116   3.863   5.504  0.5141  1.1883 -0.3286
  111MOL   H34646766   4.091   3.997   5.607 -1.0132 -1.1017  1.9120
  111MOL   H34746767   3.959   3.993   5.338  0.1754 -0.5973  0.1349
  111MOL   H34846768   4.227   4.014   5.395 -0.0337 -0.4069 -1.3545
  111MOL   H34946769   4.183   4.160   5.314  0.2794  0.2626  2.4347
  111MOL   H35046770   4.365   3.923   5.239 -1.5589  1.7340  1.5188
  111MOL   H35146771   4.348   3.949   5.068 -2.2958  1.6591 -1.1997
  111MOL   H35246772   4.353   4.094   5.180 -3.0408  1.7768 -1.1045
  111MOL   H35346773   4.202   3.779   5.288 -1.3508  0.5984  1.5902
  111MOL   H35446774   4.039   3.815   5.243  0.2479 -0.7189 -1.3827
  111MOL   H35546775   4.153   3.782   5.118 -0.5943 -1.4587  0.3928
  111MOL   H35646776   3.991   4.038   5.110  0.3245  0.4459  0.8281
  111MOL   H35746777   4.123   4.146   5.055 -0.1695 -0.8845 -4.6195
  111MOL   H35846778   4.112   4.001   4.981 -3.5294 -1.4803  0.2068
  111MOL   C35946779   3.978   4.171   5.460 -0.6237  0.5104  0.5434
  111MOL   C36046780   3.899   4.249   5.351  0.8574 -0.2861 -0.1428
  111MOL   C36146781   3.893   4.406   5.378  0.0913 -0.1205 -0.1522
  111MOL   C36246782   3.985   4.493   5.287 -0.0886  0.8597  0.1002
  111MOL   C36346783   4.132   4.434   5.275 -0.1605 -0.3779  0.4531
  111MOL   C36446784   4.000   4.628   5.363 -0.6324  0.3843 -0.7944
  111MOL   C36546785   3.928   4.529   5.151 -0.5400  0.0143 -0.4757
  111MOL   H36646786   4.069   4.219   5.499 -0.3177  0.3092  0.0716
  111MOL   H36746787   3.906   4.149   5.539 -1.5648  1.3067 -0.0876
  111MOL   H36846788   3.930   4.237   5.248 -1.9581  0.6193 -1.1498
  111MOL   H36946789   3.796   4.454   5.373  0.9002  1.6316  0.4205
  111MOL   H37046790   3.932   4.425   5.478 -0.2426  0.3150 -0.1037
  111MOL   H37146791   4.178   4.434   5.374  2.3775  0.2752 -0.6924
  111MOL   H37246792   4.138   4.336   5.229 -0.7442  1.1642 -3.0695
  111MOL   H37346793   4.200   4.496   5.216  1.0686  0.0997  2.3154
  111MOL   H37446794   3.901   4.661   5.392 -0.0430  3.1811 -1.7873
  111MOL   H37546795   4.063   4.705   5.319  0.2880  1.4288  2.2596
  111MOL   H37646796   4.055   4.620   5.457 -0.8225 -0.3141 -0.7339
  111MOL   H37746797   3.923   4.442   5.085 -0.9792 -0.6451  0.3964
  111MOL   H37846798   3.991   4.605   5.105  1.1113  0.6066  2.6305
  111MOL   H37946799   3.820   4.548   5.155 -0.8100 -1.0906 -1.8899
  111MOL   C38046800   3.749   4.195   5.339 -0.1132 -0.1021  0.6520
  111MOL   C38146801   3.657   4.245   5.228 -0.8972 -0.3010  0.4665
  111MOL   C38246802   3.509   4.221   5.262 -0.3626 -0.1811 -0.5724
  111MOL   C38346803   3.430   4.348   5.305 -0.5536  0.5815  0.7970
  111MOL   C38446804   3.278   4.306   5.333  0.2454 -0.6159 -0.0220
  111MOL   C38546805   3.431   4.455   5.190  0.0679 -0.1149 -0.1204
  111MOL   C38646806   3.486   4.398   5.437 -0.1265  0.0911  0.1366
  111MOL   H38746807   3.702   4.214   5.436 -1.6027  0.1877 -0.1229
  111MOL   H38846808   3.760   4.086   5.332 -0.4647 -0.0605 -0.5212
  111MOL   H38946809   3.664   4.354   5.219  0.2922 -0.2828  1.4320
  111MOL   H39046810   3.459   4.191   5.170 -0.4867 -0.9610 -0.2532
  111MOL   H39146811   3.486   4.133   5.323 -0.3008  1.0173  1.1995
  111MOL   H39246812   3.279   4.226   5.408  0.4699 -2.7187 -2.2067
  111MOL   H39346813   3.236   4.395   5.380  2.7719  0.7226 -0.1706
  111MOL   H39446814   3.227   4.274   5.243 -1.6091 -1.4582  1.2881
  111MOL   H39546815   3.359   4.531   5.222 -0.3715 -0.0966 -1.1490
  111MOL   H39646816   3.384   4.412   5.102 -0.6816 -0.5788  0.4957
  111MOL   H39746817   3.529   4.496   5.169  0.4726 -0.9185  0.1822
  111MOL   H39846818   3.417   4.465   5.489  1.8217  0.5529  2.2173
  111MOL   H39946819   3.575   4.458   5.418  0.5823 -1.2005 -0.7258
  111MOL   H40046820   3.494   4.316   5.509 -0.3397 -1.2283 -1.3179
  111MOL   C40146821   3.701   4.193   5.087  0.5577 -0.8558  0.1659
  111MOL   C40246822   3.707   4.048   5.050  0.3387  0.5074 -0.0857
  111MOL   C40346823   3.728   4.040   4.899  0.3277 -0.0821  0.6544
  111MOL   C40446824   3.738   3.899   4.837 -0.4992  0.0399  0.0217
  111MOL   C40546825   3.736   3.910   4.681 -0.0315 -0.3688 -0.5726
  111MOL   C40646826   3.616   3.812   4.870  0.0908  0.0798  0.0382
  111MOL   C40746827   3.871   3.830   4.867 -0.9582 -0.1799 -0.0520
  111MOL   H40846828   3.644   4.252   5.015  0.2413  0.6797  1.6690
  111MOL   H40946829   3.804   4.225   5.074  0.0541  2.0542  2.9387
  111MOL   H41046830   3.771   3.978   5.105  0.9318  0.9154 -0.2525
  111MOL   H41146831   3.819   4.094   4.872 -0.3091  1.7075  1.9822
  111MOL   H41246832   3.642   4.094   4.859  0.1204  1.0982  2.6220
  111MOL   H41346833   3.646   3.955   4.639 -0.6956 -1.8401 -0.7839
  111MOL   H41446834   3.733   3.812   4.633 -1.8328 -0.9330  0.6536
  111MOL   H41546835   3.824   3.959   4.640 -0.5283 -0.2010 -1.4527
  111MOL   H41646836   3.623   3.724   4.805 -2.2425  1.7839 -2.6579
  111MOL   H41746837   3.533   3.874   4.837 -0.4839 -0.5385  0.3222
  111MOL   H41846838   3.612   3.792   4.977 -0.2489 -0.5042 -0.0848
  111MOL   H41946839   3.957   3.883   4.826 -1.7687  0.8112 -0.4700
  111MOL   H42046840   3.882   3.838   4.976  2.0682 -0.3411 -0.2948
  111MOL   H42146841   3.874   3.722   4.850 -0.6917  0.2798 -3.0179
  111MOL   H42246842   3.607   4.016   5.079  1.1530 -1.3696  0.7634
  112MOL     C146843   5.157   4.516   1.860  0.1704  0.5706  0.1639
  112MOL     C246844   5.095   4.563   1.993 -0.1837 -0.0588  0.1898
  112MOL     C346845   4.957   4.508   2.008 -0.7130 -0.6852 -0.1485
  112MOL     C446846   4.919   4.456   2.151  0.7594 -0.3383  0.1446
  112MOL     C546847   4.933   4.557   2.263 -0.0208  0.0162  0.2014
  112MOL     C646848   4.772   4.412   2.139  0.9520 -0.6133 -0.3391
  112MOL     C746849   5.008   4.334   2.182  0.2464  0.0215  0.1735
  112MOL     H846850   5.108   4.555   1.770 -0.2836 -3.0889 -1.2694
  112MOL     H946851   5.261   4.550   1.857  0.0334  1.0486  0.7766
  112MOL    H1046852   5.159   4.523   2.071  0.5010  0.1753 -0.2472
  112MOL    H1146853   4.941   4.428   1.935 -1.9969 -0.2888 -0.3160
  112MOL    H1246854   4.885   4.584   1.980 -0.6885 -1.3301 -1.9990
  112MOL    H1346855   5.037   4.575   2.291 -0.0088  2.0948 -1.0857
  112MOL    H1446856   4.882   4.528   2.355  0.4984 -0.0617  0.4674
  112MOL    H1546857   4.891   4.656   2.244  0.6487  0.0871 -0.9145
  112MOL    H1646858   4.737   4.381   2.238 -1.5987 -0.0384 -1.0172
  112MOL    H1746859   4.713   4.500   2.113 -1.2346 -2.0652 -0.4255
  112MOL    H1846860   4.749   4.338   2.063 -2.9517 -0.1328  0.2645
  112MOL    H1946861   5.114   4.353   2.169  0.2778 -0.9024 -1.0693
  112MOL    H2046862   4.987   4.248   2.118 -0.8777 -0.1714  0.7790
  112MOL    H2146863   5.000   4.300   2.286  0.0935  0.5824  0.3474
  112MOL    H2246864   5.162   4.408   1.848 -0.5604  0.5920 -0.3678
  112MOL    C2346865   5.088   4.717   2.003 -0.7900 -0.6703  0.3691
  112MOL    C2446866   5.225   4.787   2.017 -0.0501  0.1045  0.4929
  112MOL    C2546867   5.271   4.763   2.157 -0.7482 -0.1207  1.1283
  112MOL    C2646868   5.414   4.716   2.183  0.3903 -0.5320  0.0696
  112MOL    C2746869   5.436   4.714   2.338  0.0982  0.1674 -0.5307
  112MOL    C2846870   5.429   4.570   2.131 -0.2385 -0.1996  0.2067
  112MOL    C2946871   5.507   4.809   2.105  0.0132  0.1251 -0.5404
  112MOL    H3046872   5.041   4.752   1.912  0.0161 -3.1539 -1.0548
  112MOL    H3146873   5.017   4.751   2.078 -0.1969  0.4282  0.4394
  112MOL    H3246874   5.290   4.745   1.941 -2.4091 -4.3720  0.7822
  112MOL    H3346875   5.217   4.682   2.206 -0.9648 -2.2270 -2.4438
  112MOL    H3446876   5.244   4.844   2.226 -0.0405  0.8913  0.2395
  112MOL    H3546877   5.540   4.698   2.366  0.1712  1.9162  0.3165
  112MOL    H3646878   5.423   4.815   2.376 -2.5555 -0.7277  1.0284
  112MOL    H3746879   5.365   4.651   2.391 -1.6045  0.0833 -2.8540
  112MOL    H3846880   5.533   4.539   2.143  0.5817  2.7865  1.3149
  112MOL    H3946881   5.369   4.493   2.179 -0.3582 -0.8185 -0.9269
  112MOL    H4046882   5.399   4.570   2.026  1.3370 -1.1646 -0.2695
  112MOL    H4146883   5.607   4.802   2.147 -0.8482  1.8600  1.8838
  112MOL    H4246884   5.477   4.911   2.126 -1.5258 -0.8367  2.1188
  112MOL    H4346885   5.511   4.779   2.000  0.9401 -0.2274 -0.4105
  112MOL    C4446886   5.213   4.940   1.994 -0.0728 -0.3972  0.0163
  112MOL    C4546887   5.201   4.980   1.846  0.3137 -0.3713 -0.0532
  112MOL    C4646888   5.347   4.973   1.784  0.2339 -0.2721  0.3715
  112MOL    C4746889   5.360   4.914   1.643 -0.4449 -0.3993 -0.4970
  112MOL    C4846890   5.510   4.926   1.599 -0.1027  0.3150 -0.4213
  112MOL    C4946891   5.269   4.976   1.535  0.2508  0.7267 -0.2409
  112MOL    C5046892   5.322   4.765   1.659 -0.4752  0.8211  0.1313
  112MOL    H5146893   5.115   4.966   2.034 -0.4024  0.4919 -1.3125
  112MOL    H5246894   5.290   4.992   2.049  0.1322 -1.1945  0.4961
  112MOL    H5346895   5.134   4.911   1.794 -0.1197  0.6249 -0.8430
  112MOL    H5446896   5.411   4.913   1.847  4.1021  0.9877 -2.1981
  112MOL    H5546897   5.388   5.074   1.789 -0.3072  0.0981 -2.0135
  112MOL    H5646898   5.543   5.029   1.594  1.9454 -0.3298 -0.3271
  112MOL    H5746899   5.516   4.875   1.502 -0.4284 -2.1401  0.7990
  112MOL    H5846900   5.576   4.868   1.663 -0.2889 -0.5971 -1.0335
  112MOL    H5946901   5.271   5.085   1.545 -0.3778  0.5157  2.6685
  112MOL    H6046902   5.303   4.948   1.436 -0.0035  0.1265 -0.1624
  112MOL    H6146903   5.164   4.946   1.541  1.4810 -4.4292 -1.8797
  112MOL    H6246904   5.392   4.707   1.718 -0.8288  0.5344  0.2710
  112MOL    H6346905   5.224   4.742   1.701 -0.9765  2.1391 -0.2615
  112MOL    H6446906   5.322   4.725   1.558 -1.7142  1.2934 -0.0765
  112MOL    C6546907   5.132   5.113   1.828  0.0500 -0.9511  0.4086
  112MOL    C6646908   5.007   5.158   1.904 -0.1631  0.0320 -0.6216
  112MOL    C6746909   4.898   5.054   1.882 -0.0703 -0.0228  0.2110
  112MOL    C6846910   4.762   5.052   1.969  0.6080  0.5907 -0.5094
  112MOL    C6946911   4.656   5.135   1.898  0.0539 -0.2659 -0.3866
  112MOL    C7046912   4.714   4.910   1.986  0.0864  0.2666 -0.3313
  112MOL    C7146913   4.797   5.118   2.103 -0.2728 -0.1693 -0.3146
  112MOL    H7246914   5.214   5.183   1.843 -2.5361  2.4214 -0.3809
  112MOL    H7346915   5.114   5.108   1.721  1.7597  0.6110  0.0335
  112MOL    H7446916   5.034   5.156   2.010  1.0182 -0.8728 -0.9209
  112MOL    H7546917   4.948   4.960   1.904  1.5769  1.0429  1.1706
  112MOL    H7646918   4.879   5.039   1.776  2.0640 -0.1571 -0.1702
  112MOL    H7746919   4.572   5.126   1.967 -0.4266  0.2869 -0.9073
  112MOL    H7846920   4.678   5.241   1.908 -1.2562 -0.1964  2.2777
  112MOL    H7946921   4.629   5.101   1.798 -0.6474  0.1630 -0.3436
  112MOL    H8046922   4.791   4.847   2.029  0.3554 -0.7925 -2.3169
  112MOL    H8146923   4.700   4.864   1.889  0.8385 -0.5168 -0.0659
  112MOL    H8246924   4.615   4.895   2.029 -1.0793 -2.2879 -3.6880
  112MOL    H8346925   4.888   5.082   2.151 -0.5712  1.1206  1.2855
  112MOL    H8446926   4.715   5.108   2.175 -0.1544 -2.0274 -0.4006
  112MOL    H8546927   4.808   5.223   2.075  3.2191 -0.4705 -0.3444
  112MOL    C8646928   4.965   5.304   1.856  0.3248 -0.2275  0.1262
  112MOL    C8746929   5.079   5.404   1.812  0.4913 -0.8836  0.0162
  112MOL    C8846930   5.177   5.446   1.927 -0.3462 -0.3347  0.5071
  112MOL    C8946931   5.327   5.491   1.894 -0.7241  0.0870 -0.2269
  112MOL    C9046932   5.329   5.613   1.799 -0.1726 -0.0555  0.2727
  112MOL    C9146933   5.425   5.384   1.838 -0.5503  0.4316 -0.2169
  112MOL    C9246934   5.386   5.543   2.025  0.8950 -0.1610  0.5929
  112MOL    H9346935   4.895   5.360   1.919 -0.1247 -1.3889  0.6742
  112MOL    H9446936   4.908   5.283   1.766 -0.0941 -1.0099  0.5787
  112MOL    H9546937   5.128   5.361   1.725 -3.5033 -2.6733 -1.4932
  112MOL    H9646938   5.179   5.370   2.005 -0.1894 -0.3573  0.4813
  112MOL    H9746939   5.122   5.528   1.972  3.2850  2.4611  0.0494
  112MOL    H9846940   5.427   5.640   1.761 -0.7230 -0.3110 -1.3781
  112MOL    H9946941   5.276   5.695   1.847 -1.9319 -0.8522 -0.2617
  112MOL   H10046942   5.270   5.586   1.711 -1.2468  3.8475 -0.2781
  112MOL   H10146943   5.392   5.330   1.749  1.6252 -0.0830 -0.7221
  112MOL   H10246944   5.524   5.424   1.817 -0.8571  1.0408 -0.5444
  112MOL   H10346945   5.427   5.305   1.913  0.5642  0.7375  0.0729
  112MOL   H10446946   5.317   5.614   2.070 -2.2629 -2.6853 -0.0313
  112MOL   H10546947   5.397   5.461   2.096  2.2313  1.9781  2.9442
  112MOL   H10646948   5.482   5.592   2.008  0.2802  0.9501  0.2941
  112MOL   C10746949   5.007   5.526   1.747 -0.4902  0.6525 -0.1537
  112MOL   C10846950   4.931   5.517   1.615  0.3955 -0.5347 -0.1161
  112MOL   C10946951   4.820   5.634   1.608  0.5753 -0.0656 -0.1995
  112MOL   C11046952   4.671   5.599   1.646  0.1293 -0.0374  0.5763
  112MOL   C11146953   4.653   5.554   1.795 -0.5496 -0.4888 -0.0574
  112MOL   C11246954   4.611   5.495   1.543  0.4653 -0.1248  0.1898
  112MOL   C11346955   4.586   5.731   1.647 -0.1171 -0.4024 -0.2824
  112MOL   H11446956   5.069   5.614   1.730  1.6166 -0.5478  1.1177
  112MOL   H11546957   4.946   5.557   1.832  1.3468  0.9325  1.0938
  112MOL   H11646958   4.880   5.420   1.615  0.5081 -0.6342  2.6797
  112MOL   H11746959   4.856   5.712   1.676  0.4612 -0.5186  0.3820
  112MOL   H11846960   4.822   5.677   1.508 -0.4263  1.3069  0.3547
  112MOL   H11946961   4.657   5.638   1.864  0.3545 -1.8376  1.5389
  112MOL   H12046962   4.560   5.506   1.823  0.4390 -2.3472  0.0961
  112MOL   H12146963   4.727   5.479   1.824  0.3828  0.1092 -0.8411
  112MOL   H12246964   4.687   5.426   1.507  0.9564 -0.9341  2.6749
  112MOL   H12346965   4.564   5.544   1.457 -1.0456 -2.3386 -0.2928
  112MOL   H12446966   4.528   5.432   1.575  0.2212  0.7018  1.2039
  112MOL   H12546967   4.581   5.784   1.552  0.1842  2.5486  1.2969
  112MOL   H12646968   4.602   5.787   1.739 -1.5584 -5.1984  3.1040
  112MOL   H12746969   4.479   5.710   1.647 -0.3858  0.4528 -4.7462
  112MOL   C12846970   5.025   5.512   1.500 -0.2380 -0.0207 -0.2301
  112MOL   C12946971   4.972   5.481   1.357  0.8454  0.0337 -0.6296
  112MOL   C13046972   5.095   5.501   1.249  0.8305 -0.0122  0.2287
  112MOL   C13146973   5.147   5.639   1.201 -0.4394  0.2889 -0.0098
  112MOL   C13246974   5.048   5.696   1.090 -0.2021 -0.1399 -0.5486
  112MOL   C13346975   5.290   5.626   1.142  0.4617 -0.2093  0.1064
  112MOL   C13446976   5.153   5.739   1.308 -0.0578 -0.8826  0.2907
  112MOL   H13546977   5.091   5.431   1.529 -1.3009 -0.1663  1.8987
  112MOL   H13646978   5.083   5.604   1.493 -0.9591  0.2584 -2.9095
  112MOL   H13746979   4.894   5.552   1.329  0.2818 -0.9986 -1.6763
  112MOL   H13846980   5.181   5.444   1.284  1.0798  1.7332  2.5945
  112MOL   H13946981   5.061   5.452   1.158  0.4725 -1.5907  1.2020
  112MOL   H14046982   5.041   5.619   1.013 -1.0735  0.6215 -1.2474
  112MOL   H14146983   5.088   5.786   1.043  0.0784  0.1624  0.2648
  112MOL   H14246984   4.949   5.724   1.125 -0.0631 -0.5254  0.1517
  112MOL   H14346985   5.374   5.610   1.210  0.3164  2.5394  0.9794
  112MOL   H14446986   5.314   5.720   1.092 -3.1489  0.4416 -0.5331
  112MOL   H14546987   5.286   5.549   1.065  0.0707  0.8764 -0.9678
  112MOL   H14646988   5.236   5.707   1.371  2.1262  1.1189 -1.4842
  112MOL   H14746989   5.184   5.836   1.270  0.7417 -0.7266  1.3014
  112MOL   H14846990   5.053   5.749   1.351 -0.4281 -0.9167 -0.5626
  112MOL   C14946991   4.913   5.339   1.346 -0.0559  0.3317  0.8762
  112MOL   C15046992   4.839   5.313   1.217 -0.2348 -0.5193 -0.2598
  112MOL   C15146993   4.852   5.164   1.168 -0.3898 -0.0777 -0.8600
  112MOL   C15246994   4.971   5.126   1.083 -0.6149  0.1618  0.3956
  112MOL   C15346995   5.100   5.141   1.165  0.6610  0.4997  0.4181
  112MOL   C15446996   4.990   5.212   0.960  0.4928  0.6593  0.4645
  112MOL   C15546997   4.951   4.977   1.046  0.5652 -0.3488 -0.3200
  112MOL   H15646998   4.853   5.323   1.435  1.8563 -1.7506  1.8455
  112MOL   H15746999   4.995   5.269   1.365 -1.2420 -0.7095  2.2506
  112MOL   H15847000   4.888   5.376   1.143  0.1446 -0.0697  0.3615
  112MOL   H15947001   4.764   5.142   1.107  0.2655 -1.8517 -1.1951
  112MOL   H16047002   4.848   5.092   1.249  2.1482  1.8550  1.0386
  112MOL   H16147003   5.103   5.081   1.256  1.2382 -0.5775 -0.2982
  112MOL   H16247004   5.185   5.103   1.109  0.1196 -0.1062 -0.0123
  112MOL   H16347005   5.134   5.242   1.187 -0.2562  1.1017 -0.8949
  112MOL   H16447006   4.906   5.201   0.891 -1.4058  1.0168  2.6724
  112MOL   H16547007   5.071   5.188   0.891 -0.8504  0.8619 -1.2221
  112MOL   H16647008   5.006   5.317   0.982 -0.2813  1.0969 -0.9365
  112MOL   H16747009   5.045   4.931   1.016  0.4002 -0.0351 -1.3292
  112MOL   H16847010   4.903   4.916   1.122  1.5059 -0.8412 -0.1132
  112MOL   H16947011   4.879   4.960   0.965 -1.2957 -2.2956  1.6855
  112MOL   C17047012   4.697   5.369   1.225 -0.3767 -0.3878 -0.1833
  112MOL   C17147013   4.612   5.392   1.092 -0.8294  0.0123 -0.9129
  112MOL   C17247014   4.666   5.530   1.030  0.2461  0.3563  0.0750
  112MOL   C17347015   4.674   5.534   0.872 -0.2611  0.0232  0.0197
  112MOL   C17447016   4.780   5.435   0.821  0.4321  0.5666  0.5429
  112MOL   C17547017   4.719   5.676   0.845  0.5716 -1.0187  0.0565
  112MOL   C17647018   4.548   5.513   0.796  0.4350  0.0876 -0.0653
  112MOL   H17747019   4.700   5.467   1.272 -1.7113 -0.7177  0.5983
  112MOL   H17847020   4.637   5.314   1.298  0.3157  0.2389  0.8740
  112MOL   H17947021   4.628   5.310   1.023 -2.5076 -1.5060  0.4688
  112MOL   H18047022   4.602   5.611   1.066 -0.1984  0.1451 -0.2376
  112MOL   H18147023   4.768   5.549   1.065  0.3973 -0.2977 -0.0134
  112MOL   H18247024   4.869   5.442   0.884  0.8728 -1.6432  0.2130
  112MOL   H18347025   4.750   5.330   0.810  2.2026 -0.1344  2.0418
  112MOL   H18447026   4.810   5.463   0.721  0.5513  0.3800  0.5257
  112MOL   H18547027   4.828   5.681   0.849  0.4842  0.5479  1.0174
  112MOL   H18647028   4.692   5.712   0.746 -1.8047 -3.0128 -0.0708
  112MOL   H18747029   4.684   5.755   0.911  2.6364 -0.9005  1.0554
  112MOL   H18847030   4.532   5.407   0.776  1.3754  0.1208 -1.0681
  112MOL   H18947031   4.467   5.553   0.857  0.1439 -0.2641 -0.2194
  112MOL   H19047032   4.544   5.566   0.701 -1.3849 -1.3401 -0.8072
  112MOL   C19147033   4.458   5.398   1.116  0.4228 -0.6279  0.2975
  112MOL   C19247034   4.373   5.262   1.105  0.8101 -0.2439 -0.0671
  112MOL   C19347035   4.215   5.284   1.114  0.5867 -0.2705  0.7217
  112MOL   C19447036   4.143   5.322   0.980  0.2953 -0.4844  0.2941
  112MOL   C19547037   4.169   5.469   0.944 -0.5262  0.2965 -0.1987
  112MOL   C19647038   3.988   5.311   0.995 -0.2193 -0.3916  0.4921
  112MOL   C19747039   4.179   5.240   0.859  0.3693 -0.2849 -0.0281
  112MOL   H19847040   4.449   5.434   1.218 -3.1325 -0.1353 -0.1305
  112MOL   H19947041   4.413   5.482   1.062  1.2227 -0.2580  0.2023
  112MOL   H20047042   4.404   5.221   1.009  3.0461  1.0303  0.0854
  112MOL   H20147043   4.188   5.352   1.195  3.6195  3.7645 -1.4376
  112MOL   H20247044   4.157   5.194   1.136  0.3266  0.1346  1.7138
  112MOL   H20347045   4.100   5.506   0.868 -3.1303  0.5183  2.1899
  112MOL   H20447046   4.169   5.540   1.026  0.9970  0.6627 -0.5190
  112MOL   H20547047   4.269   5.473   0.901 -0.3567  2.1238  0.3273
  112MOL   H20647048   3.951   5.212   1.023  3.3700 -1.9110  0.0977
  112MOL   H20747049   3.951   5.385   1.066 -0.3606  2.9871 -2.9557
  112MOL   H20847050   3.943   5.336   0.899  2.7837  0.5693 -0.7286
  112MOL   H20947051   4.117   5.263   0.772  0.7630 -0.1776 -0.2799
  112MOL   H21047052   4.278   5.262   0.821  1.2571 -2.4294  0.9626
  112MOL   H21147053   4.154   5.134   0.868  2.0421 -0.6410  0.5597
  112MOL   C21247054   4.432   5.164   1.207 -0.0875  0.0612  0.7224
  112MOL   C21347055   4.385   5.017   1.217 -0.4031 -0.1572 -0.0447
  112MOL   C21447056   4.448   4.955   1.353 -0.6384  0.0630 -0.0019
  112MOL   C21547057   4.368   4.957   1.488 -0.3536  0.3216 -0.2426
  112MOL   C21647058   4.244   4.864   1.464  1.2017  0.3908 -0.4270
  112MOL   C21747059   4.462   4.908   1.601 -0.3932  0.3228  0.5161
  112MOL   C21847060   4.317   5.095   1.528  0.3623  0.0204 -0.4665
  112MOL   H21947061   4.539   5.161   1.187 -0.1481  4.9397 -0.9694
  112MOL   H22047062   4.418   5.216   1.302 -0.1714  0.5436  0.4486
  112MOL   H22147063   4.277   5.021   1.221 -0.4148  0.2249 -0.5852
  112MOL   H22247064   4.552   4.986   1.367 -0.6737 -0.1147  0.6623
  112MOL   H22347065   4.457   4.850   1.327  4.8553  0.5270 -0.5805
  112MOL   H22447066   4.258   4.756   1.477 -1.1044  0.1745  0.4830
  112MOL   H22547067   4.185   4.879   1.374  0.0290  0.1309  0.2720
  112MOL   H22647068   4.172   4.876   1.546  0.9753  0.6659 -0.6677
  112MOL   H22747069   4.550   4.972   1.610  0.1667 -0.5366  1.2196
  112MOL   H22847070   4.416   4.899   1.699  0.1129  0.0270  0.7324
  112MOL   H22947071   4.504   4.808   1.587  0.0958  0.7144 -0.9941
  112MOL   H23047072   4.279   5.078   1.629  0.4592  2.0938 -0.0476
  112MOL   H23147073   4.245   5.133   1.456 -2.3072 -1.1091  1.5356
  112MOL   H23247074   4.398   5.168   1.536 -0.9773  1.4849 -0.0176
  112MOL   C23347075   4.443   4.927   1.103  0.5800  0.3519  0.4392
  112MOL   C23447076   4.363   4.806   1.056 -0.8156  0.2853 -0.4756
  112MOL   C23547077   4.235   4.847   0.984 -0.8079  0.0607  0.5813
  112MOL   C23647078   4.114   4.752   0.986 -0.1368 -0.5500 -0.1257
  112MOL   C23747079   4.001   4.811   0.890 -0.4165  0.0175 -0.5197
  112MOL   C23847080   4.143   4.606   0.931 -0.0204 -0.5963 -0.4368
  112MOL   C23947081   4.048   4.740   1.125  0.4260  0.1303 -0.0657
  112MOL   H24047082   4.544   4.892   1.124  1.1809  1.7447 -0.0660
  112MOL   H24147083   4.450   4.987   1.013 -0.4320  0.3684  0.3679
  112MOL   H24247084   4.315   4.761   1.143  0.1618  1.2849  0.6002
  112MOL   H24347085   4.196   4.943   1.017 -1.3019 -0.1606  0.6481
  112MOL   H24447086   4.259   4.854   0.878  1.3309  0.0623  1.0429
  112MOL   H24547087   4.033   4.818   0.786  0.8805 -0.8306 -0.2027
  112MOL   H24647088   3.976   4.912   0.922  2.1268  0.6521 -0.3813
  112MOL   H24747089   3.913   4.747   0.895 -1.7022  1.7710 -0.1068
  112MOL   H24847090   4.042   4.569   0.914  0.6624 -3.0429  0.5820
  112MOL   H24947091   4.194   4.634   0.838 -0.5240  1.7707 -0.0327
  112MOL   H25047092   4.204   4.539   0.991 -1.1072 -1.8769 -0.7441
  112MOL   H25147093   4.098   4.682   1.202 -1.1665 -2.2356 -0.7537
  112MOL   H25247094   4.039   4.843   1.160 -1.4013 -0.0097 -0.0821
  112MOL   H25347095   3.948   4.699   1.110 -0.9405  2.2815  2.6580
  112MOL   C25447096   4.451   4.711   0.970 -0.3123 -0.5145 -0.1100
  112MOL   C25547097   4.580   4.652   1.043 -0.5887  0.0503  0.4089
  112MOL   C25647098   4.659   4.552   0.952 -0.4740 -0.2153  0.1094
  112MOL   C25747099   4.779   4.602   0.869  1.1784 -0.0540 -0.0694
  112MOL   C25847100   4.908   4.625   0.948  0.3089 -0.3753 -0.6153
  112MOL   C25947101   4.750   4.733   0.790  0.0560  0.6019  0.2061
  112MOL   C26047102   4.811   4.494   0.767 -0.1617 -0.5673 -0.1912
  112MOL   H26147103   4.471   4.759   0.875 -0.6107  1.1471  0.6544
  112MOL   H26247104   4.388   4.623   0.955 -1.0670  0.1446 -0.7838
  112MOL   H26347105   4.650   4.731   1.068  1.0274 -1.4350  0.6808
  112MOL   H26447106   4.692   4.461   1.002 -0.9805 -0.1335  0.6026
  112MOL   H26547107   4.584   4.511   0.885 -0.4410 -0.3962  0.1831
  112MOL   H26647108   4.993   4.642   0.882 -0.0017  1.0850 -0.6570
  112MOL   H26747109   4.926   4.538   1.012  1.1246 -0.1052 -0.4723
  112MOL   H26847110   4.896   4.704   1.022  0.8387 -1.6359  0.8656
  112MOL   H26947111   4.720   4.817   0.852 -2.9020  0.4197 -0.9294
  112MOL   H27047112   4.675   4.697   0.720 -1.5671  0.3527  2.0545
  112MOL   H27147113   4.834   4.769   0.729  0.7633  1.2649  1.5429
  112MOL   H27247114   4.862   4.527   0.676 -1.4837  0.3838 -0.5993
  112MOL   H27347115   4.877   4.420   0.812 -0.3107 -0.4385  0.2380
  112MOL   H27447116   4.723   4.440   0.734 -0.0254 -0.6014 -0.5088
  112MOL   C27547117   4.535   4.574   1.170 -1.0360  0.4964 -0.4188
  112MOL   C27647118   4.648   4.516   1.267 -0.7353  0.3284  0.0925
  112MOL   C27747119   4.731   4.627   1.326  0.7183 -0.3880 -0.6123
  112MOL   C27847120   4.849   4.597   1.420 -0.3214  0.0549 -0.0612
  112MOL   C27947121   4.805   4.565   1.568  0.4151  0.1337 -0.1507
  112MOL   C28047122   4.926   4.482   1.363  0.4273 -1.2542 -0.5395
  112MOL   C28147123   4.945   4.718   1.417  0.3576  0.2511  0.1422
  112MOL   H28247124   4.484   4.643   1.237 -1.2991  0.7147 -0.8377
  112MOL   H28347125   4.462   4.496   1.145  1.7892 -2.3644 -0.1069
  112MOL   H28447126   4.714   4.446   1.216  0.6356  0.9247  1.0090
  112MOL   H28547127   4.667   4.700   1.374  1.0741 -0.0842 -0.5981
  112MOL   H28647128   4.764   4.681   1.237  0.1843  0.5152 -0.2667
  112MOL   H28747129   4.885   4.590   1.638  1.9457  3.9818 -3.1086
  112MOL   H28847130   4.722   4.630   1.594 -0.5828 -1.3650  0.4741
  112MOL   H28947131   4.782   4.460   1.590  0.6278 -0.0477 -0.7856
  112MOL   H29047132   4.877   4.388   1.387 -3.3915  0.4281 -1.3114
  112MOL   H29147133   5.020   4.461   1.413 -0.4313  1.2938  2.2713
  112MOL   H29247134   4.937   4.484   1.254 -1.4152 -1.3872 -0.7493
  112MOL   H29347135   5.039   4.695   1.467  0.6003  1.5454  0.3104
  112MOL   H29447136   4.892   4.800   1.467  3.3187  2.5989 -0.3652
  112MOL   H29547137   4.967   4.768   1.323  1.1209 -1.6728 -0.7082
  112MOL   C29647138   4.587   4.420   1.367  0.4366  0.3801 -0.6060
  112MOL   C29747139   4.510   4.295   1.321  0.1709 -0.2125  0.3938
  112MOL   C29847140   4.454   4.226   1.444  0.1515  0.1295 -0.1740
  112MOL   C29947141   4.309   4.259   1.485 -0.1848 -0.2456 -0.0552
  112MOL   C30047142   4.283   4.408   1.530  0.3345 -0.0439 -0.2102
  112MOL   C30147143   4.215   4.233   1.373 -0.4605  0.2798  0.0687
  112MOL   C30247144   4.287   4.165   1.601 -0.5549 -0.8565 -0.2326
  112MOL   H30347145   4.522   4.477   1.433 -0.5900 -1.2210 -0.2102
  112MOL   H30447146   4.663   4.386   1.439 -0.7082 -0.9843 -0.0236
  112MOL   H30547147   4.426   4.329   1.262 -0.1012 -1.7953 -0.1376
  112MOL   H30647148   4.518   4.237   1.531  1.5412  0.3038 -1.1967
  112MOL   H30747149   4.454   4.120   1.419 -1.5135  0.1667 -0.3949
  112MOL   H30847150   4.268   4.475   1.445  0.2330 -1.3585 -1.2377
  112MOL   H30947151   4.190   4.415   1.586  1.2362 -2.1099  1.6145
  112MOL   H31047152   4.367   4.440   1.592  0.5247 -2.7327  0.9914
  112MOL   H31147153   4.113   4.239   1.412 -1.1360  0.4736 -1.6655
  112MOL   H31247154   4.211   4.299   1.286  0.0627  0.8523  0.4665
  112MOL   H31347155   4.213   4.128   1.347  0.1165  0.6120 -1.4011
  112MOL   H31447156   4.179   4.161   1.616 -1.0222  0.5915 -3.0122
  112MOL   H31547157   4.311   4.061   1.580 -1.9877 -1.2519  0.0411
  112MOL   H31647158   4.332   4.210   1.690  0.3899  0.6812 -1.4782
  112MOL   C31747159   4.592   4.200   1.240  0.3989 -0.0959  0.3352
  112MOL   C31847160   4.519   4.107   1.139  0.3169 -0.3391 -0.1632
  112MOL   C31947161   4.498   4.186   1.009  0.7532 -0.8274  0.6928
  112MOL   C32047162   4.374   4.159   0.922 -0.7773  0.0001  0.2743
  112MOL   C32147163   4.366   4.011   0.877  0.6868 -0.8558 -0.0929
  112MOL   C32247164   4.387   4.245   0.788 -0.0135  0.0684 -0.8252
  112MOL   C32347165   4.239   4.198   0.986 -0.2059  0.4947  0.2626
  112MOL   H32447166   4.663   4.255   1.178 -1.6413  0.9964 -1.1028
  112MOL   H32547167   4.652   4.147   1.314  1.3056 -0.4550 -0.6465
  112MOL   H32647168   4.423   4.077   1.182  1.0924 -2.0873  0.3771
  112MOL   H32747169   4.594   4.187   0.956  0.7791 -1.5140  0.7273
  112MOL   H32847170   4.486   4.289   1.043  0.6799 -0.6287  0.0631
  112MOL   H32947171   4.361   3.951   0.968 -1.1208 -1.5007 -0.5934
  112MOL   H33047172   4.456   3.982   0.823  1.7813  0.4815  0.9732
  112MOL   H33147173   4.276   3.987   0.821  0.0343  0.4991  0.3508
  112MOL   H33247174   4.305   4.228   0.717  0.4027 -1.9027 -0.8795
  112MOL   H33347175   4.374   4.350   0.813  2.2182 -0.5020  3.0568
  112MOL   H33447176   4.476   4.234   0.726 -0.6328 -3.1020 -1.2335
  112MOL   H33547177   4.203   4.134   1.067  0.3384  0.1568  0.2393
  112MOL   H33647178   4.156   4.197   0.915  0.8240 -0.4585 -0.9581
  112MOL   H33747179   4.251   4.300   1.023  0.1699  0.3202  0.6231
  112MOL   C33847180   4.606   3.972   1.126 -0.4195  0.1395 -0.2375
  112MOL   C33947181   4.562   3.850   1.215  0.3686 -0.0117  0.5223
  112MOL   C34047182   4.655   3.729   1.203  0.5124 -0.3259  0.0523
  112MOL   C34147183   4.764   3.712   1.311  0.3679  0.0055 -0.5665
  112MOL   C34247184   4.873   3.614   1.278 -0.2894 -0.1061  0.3344
  112MOL   C34347185   4.839   3.849   1.327  0.6776 -0.6840 -0.0088
  112MOL   C34447186   4.701   3.673   1.444 -0.1223  0.1946 -0.3189
  112MOL   H34547187   4.709   4.005   1.126 -0.6822  1.0212  2.3966
  112MOL   H34647188   4.609   3.935   1.023  2.4497  0.8775 -0.4607
  112MOL   H34747189   4.560   3.869   1.322 -0.6933  0.5508  0.4116
  112MOL   H34847190   4.700   3.728   1.104 -2.5868 -1.0823 -1.4308
  112MOL   H34947191   4.603   3.634   1.195 -0.4213  0.1707  0.0917
  112MOL   H35047192   4.810   3.532   1.243  1.4223 -1.0355 -0.6515
  112MOL   H35147193   4.921   3.634   1.182  0.3777 -1.9835  0.2642
  112MOL   H35247194   4.942   3.585   1.357 -0.2515 -1.6406 -0.2351
  112MOL   H35347195   4.902   3.843   1.417  1.4644  3.3639 -0.1814
  112MOL   H35447196   4.897   3.887   1.243  2.3034  0.4753  1.5980
  112MOL   H35547197   4.774   3.935   1.347 -0.1677 -1.2476 -0.3425
  112MOL   H35647198   4.677   3.567   1.458  1.2126 -0.0491  0.1860
  112MOL   H35747199   4.779   3.692   1.518 -0.1551 -1.7802  0.2645
  112MOL   H35847200   4.617   3.736   1.475  0.6428  1.7150 -1.3355
  112MOL   C35947201   4.419   3.799   1.186 -0.5802 -0.5844  0.2979
  112MOL   C36047202   4.345   3.696   1.281 -0.3088 -0.9493 -0.3042
  112MOL   C36147203   4.215   3.644   1.213  0.0670  0.0752 -0.1394
  112MOL   C36247204   4.209   3.495   1.159  0.1230 -0.3935  0.6939
  112MOL   C36347205   4.336   3.466   1.075 -0.1986  0.3023  0.2369
  112MOL   C36447206   4.079   3.473   1.071  0.0520 -0.4384 -0.1683
  112MOL   C36547207   4.216   3.393   1.278  0.4286 -0.0102  0.2013
  112MOL   H36647208   4.414   3.754   1.087  0.9104 -1.5936  0.6711
  112MOL   H36747209   4.358   3.890   1.184  1.0410  0.5404  0.3613
  112MOL   H36847210   4.411   3.610   1.293  0.6473 -0.2410 -0.4093
  112MOL   H36947211   4.125   3.657   1.273 -0.4624 -1.8709 -0.4658
  112MOL   H37047212   4.190   3.719   1.138 -1.2150 -2.1689 -2.0206
  112MOL   H37147213   4.326   3.524   0.984  1.4898 -0.9696 -0.8020
  112MOL   H37247214   4.423   3.503   1.128 -1.6703  0.4403  2.6068
  112MOL   H37347215   4.349   3.360   1.052 -0.4637  0.4201 -0.4726
  112MOL   H37447216   4.073   3.372   1.030 -1.0221  0.3858 -2.1279
  112MOL   H37547217   4.092   3.543   0.989  0.0867 -0.3939 -0.1246
  112MOL   H37647218   3.991   3.513   1.120  0.5732 -1.5396  1.7369
  112MOL   H37747219   4.317   3.386   1.319  0.7560 -0.0670 -0.6198
  112MOL   H37847220   4.207   3.297   1.228  0.7533  0.2164 -0.2967
  112MOL   H37947221   4.138   3.402   1.354 -0.8709  0.3007 -1.1515
  112MOL   C38047222   4.316   3.753   1.425  0.3791 -0.4261 -0.5764
  112MOL   C38147223   4.258   3.653   1.528 -0.7430 -0.7844  0.4328
  112MOL   C38247224   4.198   3.727   1.651  0.3669  0.4890  0.4905
  112MOL   C38347225   4.046   3.744   1.657 -0.8001 -0.5312 -0.4906
  112MOL   C38447226   4.014   3.810   1.793  0.8511 -0.2013 -0.8807
  112MOL   C38547227   3.973   3.606   1.641 -0.3936 -0.3113 -0.1011
  112MOL   C38647228   3.995   3.847   1.556 -0.3328 -0.8938  0.1650
  112MOL   H38747229   4.232   3.818   1.401 -1.7061 -3.8871 -3.1270
  112MOL   H38847230   4.398   3.807   1.473  0.9875 -0.6329 -1.3706
  112MOL   H38947231   4.181   3.597   1.475  0.8813 -2.2571 -0.4000
  112MOL   H39047232   4.232   3.674   1.740 -2.3189 -1.3793  0.4544
  112MOL   H39147233   4.244   3.825   1.659 -0.3332  0.6600  2.7448
  112MOL   H39247234   3.913   3.849   1.805  1.3005  0.3369  1.4268
  112MOL   H39347235   4.017   3.728   1.865 -1.0104 -0.1120 -0.6671
  112MOL   H39447236   4.066   3.903   1.816  1.2569 -0.8036  0.7447
  112MOL   H39547237   4.004   3.528   1.711 -0.2142 -0.5267 -0.4191
  112MOL   H39647238   3.975   3.566   1.539  1.4827  0.5484 -0.4151
  112MOL   H39747239   3.867   3.624   1.657 -0.2994 -0.4677  0.6823
  112MOL   H39847240   4.062   3.933   1.551 -0.3780 -0.9321 -1.3002
  112MOL   H39947241   3.906   3.903   1.585  0.2333 -0.1672  0.4847
  112MOL   H40047242   3.982   3.803   1.456 -0.0077  1.2584 -0.8507
  112MOL   C40147243   4.358   3.546   1.568 -0.4156  0.4220 -0.1905
  112MOL   C40247244   4.300   3.424   1.656 -0.1975  0.6111 -0.3353
  112MOL   C40347245   4.379   3.294   1.644  0.0325 -0.0437  0.0014
  112MOL   C40447246   4.323   3.165   1.711 -0.6207 -0.2975 -0.3921
  112MOL   C40547247   4.310   3.180   1.863 -0.2067 -0.3701 -0.1044
  112MOL   C40647248   4.413   3.049   1.688  0.3204 -0.2743  0.4920
  112MOL   C40747249   4.188   3.128   1.660  0.2812  0.5183 -0.1698
  112MOL   H40847250   4.414   3.501   1.486 -0.6292 -1.0206  0.4350
  112MOL   H40947251   4.441   3.596   1.617 -0.5988  1.1895 -0.6584
  112MOL   H41047252   4.290   3.461   1.758 -0.4920 -1.8479  0.5471
  112MOL   H41147253   4.478   3.308   1.687 -0.1535  1.2514  0.0129
  112MOL   H41247254   4.406   3.279   1.539 -0.5604 -3.0763  0.2183
  112MOL   H41347255   4.264   3.090   1.902 -0.2069 -0.4183 -0.2169
  112MOL   H41447256   4.246   3.265   1.887  0.5778  0.1546  0.1437
  112MOL   H41547257   4.400   3.201   1.921  0.8115  0.2478 -1.8934
  112MOL   H41647258   4.403   2.971   1.763  0.2447 -2.8591 -2.0956
  112MOL   H41747259   4.517   3.079   1.671  0.7267 -1.3458  1.0360
  112MOL   H41847260   4.383   3.005   1.593  0.2442  0.1144  0.3372
  112MOL   H41947261   4.184   3.156   1.554  0.9917  1.2317 -0.0089
  112MOL   H42047262   4.169   3.024   1.688 -0.7967  0.1758 -2.0396
  112MOL   H42147263   4.110   3.177   1.718 -0.3725  0.2318 -0.7791
  112MOL   H42247264   4.194   3.405   1.637 -0.2961  0.5931  0.2334
  113MOL     C147265   4.099   1.267   7.593  0.2851 -0.5592 -0.0021
  113MOL     C247266   3.985   1.312   7.502  0.7432 -0.7364  0.3533
  113MOL     C347267   3.849   1.361   7.559 -0.1371 -0.7027  0.6269
  113MOL     C447268   3.769   1.278   7.672  0.3385  0.0262  0.0222
  113MOL     C547269   3.767   1.127   7.649  0.0564 -0.3784 -0.3697
  113MOL     C647270   3.836   1.315   0.042  0.2055 -0.2495 -0.2304
  113MOL     C747271   3.625   1.338   7.680  0.1886  0.2035  0.0061
  113MOL     H847272   4.077   1.174   7.646  0.1733 -0.1766  0.6158
  113MOL     H947273   4.196   1.260   7.544 -0.8682  0.8519 -2.5859
  113MOL    H1047274   4.030   1.402   7.460  2.1940 -1.9393 -0.7139
  113MOL    H1147275   3.783   1.382   7.475 -2.4410  1.7107  2.8877
  113MOL    H1247276   3.872   1.458   7.605 -1.6533 -1.3749  2.9063
  113MOL    H1347277   3.712   1.114   7.556  0.1779 -0.2659 -0.4579
  113MOL    H1447278   3.720   1.065   7.726  1.4405 -0.8406  0.1172
  113MOL    H1547279   3.869   1.090   7.636 -0.3671 -0.4571 -3.9365
  113MOL    H1647280   3.853   1.421   0.063  0.3377 -0.3036 -0.0654
  113MOL    H1747281   3.762   1.288   0.116  0.7448  2.8287  1.5289
  113MOL    H1847282   3.925   1.256   0.062 -0.6215 -1.7290 -0.8607
  113MOL    H1947283   3.561   1.275   7.741  1.2859  0.0771  1.0387
  113MOL    H2047284   3.580   1.337   7.580  0.2814 -0.2115 -0.0331
  113MOL    H2147285   3.630   1.438   7.723 -2.5251 -0.2977  1.6131
  113MOL    H2247286   4.108   1.345   7.668 -0.3004  0.9702 -1.4958
  113MOL    C2347287   3.960   1.213   7.383  0.6710 -0.3698 -0.6231
  113MOL    C2447288   4.044   1.241   7.251  0.0651  0.2793 -0.1545
  113MOL    C2547289   4.016   1.376   7.171  0.0599  0.0985  0.0038
  113MOL    C2647290   4.128   1.464   7.098 -0.1164 -0.0285  0.0675
  113MOL    C2747291   4.251   1.477   7.196  0.2745 -0.9320 -0.6250
  113MOL    C2847292   4.172   1.377   6.976  0.0353  0.7284  0.4557
  113MOL    C2947293   4.068   1.601   7.056 -0.3336 -0.0447 -0.0199
  113MOL    H3047294   3.968   1.110   7.416 -0.8299 -1.0167 -2.1540
  113MOL    H3147295   3.857   1.221   7.348  0.1899 -1.2530  0.5763
  113MOL    H3247296   4.148   1.238   7.284 -0.1104 -0.5240  0.3505
  113MOL    H3347297   3.969   1.440   7.246  0.6835  1.1651 -0.5122
  113MOL    H3447298   3.934   1.358   7.101 -1.3159  0.6335  1.4429
  113MOL    H3547299   4.305   1.383   7.210  0.4427 -0.8490 -0.7084
  113MOL    H3647300   4.329   1.544   7.159  0.0776 -0.8446 -0.8816
  113MOL    H3747301   4.219   1.508   7.295  1.2791 -0.7674 -0.3420
  113MOL    H3847302   4.090   1.358   6.906  2.6142 -3.7666 -1.5532
  113MOL    H3947303   4.251   1.432   6.926 -1.3400  0.6174 -1.9254
  113MOL    H4047304   4.219   1.282   7.002  0.8378  0.9446 -0.1966
  113MOL    H4147305   3.982   1.587   6.990 -1.4096  2.7475  0.7363
  113MOL    H4247306   4.137   1.661   6.997 -0.3850 -0.4405 -0.4893
  113MOL    H4347307   4.041   1.659   7.144  0.7792 -0.8636  0.8885
  113MOL    C4447308   4.009   1.124   7.151  0.4857  0.5462  0.5025
  113MOL    C4547309   4.077   0.986   7.171 -0.2785  0.7670  0.0493
  113MOL    C4647310   4.230   0.993   7.157 -0.0306  0.0640  0.3664
  113MOL    C4747311   4.309   0.925   7.268 -0.1073  0.1127  0.2050
  113MOL    C4847312   4.286   0.773   7.274  0.2295  0.0501  0.2868
  113MOL    C4947313   4.285   0.986   7.407 -0.6916 -0.3346 -0.2131
  113MOL    C5047314   4.458   0.948   7.243 -0.1469  0.1310  0.0226
  113MOL    H5147315   3.901   1.109   7.155  0.3158  1.7088  0.4100
  113MOL    H5247316   4.032   1.148   7.047 -1.1026  0.5869  0.1523
  113MOL    H5347317   4.056   0.952   7.273 -0.4401 -1.9889 -0.8837
  113MOL    H5447318   4.255   1.099   7.165 -0.5756  0.4642 -2.6381
  113MOL    H5547319   4.263   0.970   7.055  1.5701  1.8782  0.4551
  113MOL    H5647320   4.181   0.754   7.297 -0.8000  1.4863 -3.0556
  113MOL    H5747321   4.342   0.729   7.357  0.5068  1.0282  0.6405
  113MOL    H5847322   4.308   0.729   7.177 -0.0819 -0.9513  0.6721
  113MOL    H5947323   4.180   0.974   7.436  0.1089  0.5412  3.1977
  113MOL    H6047324   4.357   0.958   7.483  0.4854 -1.8471 -1.8407
  113MOL    H6147325   4.302   1.093   7.395  0.3746 -0.4583  0.1838
  113MOL    H6247326   4.514   0.907   7.159  0.4625  0.2104  0.3849
  113MOL    H6347327   4.474   1.056   7.243  2.5854 -0.2366 -0.3826
  113MOL    H6447328   4.509   0.916   7.333 -1.4085  2.0086  1.4571
  113MOL    C6547329   4.019   0.876   7.064  0.3730  0.1785 -0.0470
  113MOL    C6647330   3.870   0.834   7.073  0.2130 -0.2484 -0.1912
  113MOL    C6747331   3.850   0.686   7.044  0.0160 -0.3990 -0.4348
  113MOL    C6847332   3.842   0.587   7.158 -0.9058 -0.1842  0.2533
  113MOL    C6947333   3.742   0.626   7.269 -0.0905 -0.5265  0.7184
  113MOL    C7047334   3.799   0.442   7.100  0.4203 -0.0176 -0.0430
  113MOL    C7147335   3.982   0.565   7.216  0.1960  0.0160  0.4507
  113MOL    H7247336   4.032   0.915   6.963 -1.1955  1.2230  0.1400
  113MOL    H7347337   4.088   0.792   7.060  1.0335  0.7621 -1.2616
  113MOL    H7447338   3.836   0.883   7.164  0.3321 -1.2463  0.3888
  113MOL    H7547339   3.928   0.651   6.976  0.3346 -0.5517  0.0042
  113MOL    H7647340   3.756   0.680   6.990 -0.4547 -1.4083  0.4771
  113MOL    H7747341   3.734   0.542   7.338  0.6529 -1.9560 -0.8931
  113MOL    H7847342   3.767   0.713   7.330 -1.8524  0.1024  0.5854
  113MOL    H7947343   3.644   0.646   7.225 -1.0112 -2.5006  1.7998
  113MOL    H8047344   3.782   0.375   7.184  2.5207  1.3373  1.5246
  113MOL    H8147345   3.884   0.411   7.040  0.7707  2.0998 -0.7050
  113MOL    H8247346   3.704   0.458   7.049  1.0854  0.8943 -1.0183
  113MOL    H8347347   3.979   0.488   7.293  0.4921 -0.1954  0.2521
  113MOL    H8447348   4.019   0.657   7.261  0.0802  0.4536 -0.3412
  113MOL    H8547349   4.045   0.518   7.141  0.2088 -1.6777  1.4830
  113MOL    C8647350   3.796   0.924   6.977 -0.0010  0.0307 -0.4516
  113MOL    C8747351   3.648   0.947   6.996 -0.3835  0.1760  0.2344
  113MOL    C8847352   3.587   0.998   6.866 -0.3873 -0.3545 -0.9032
  113MOL    C8947353   3.467   0.912   6.806 -0.5344 -0.0197  0.2538
  113MOL    C9047354   3.508   0.767   6.777 -0.3831 -0.0067  0.6226
  113MOL    C9147355   3.435   0.961   6.668 -0.3090  0.2682  0.1944
  113MOL    C9247356   3.339   0.903   6.889  0.3283  0.2536  0.0507
  113MOL    H9347357   3.819   0.878   6.880 -0.7975 -0.2255 -0.5186
  113MOL    H9447358   3.851   1.018   6.975  2.5721 -1.4189 -1.4039
  113MOL    H9547359   3.600   0.860   7.040 -0.3081  0.1616  0.2875
  113MOL    H9647360   3.653   1.015   6.781  0.4608  0.8907 -0.0268
  113MOL    H9747361   3.545   1.097   6.883 -0.3922 -0.5055 -0.0124
  113MOL    H9847362   3.427   0.720   6.721  0.2579  0.4264 -0.6993
  113MOL    H9947363   3.528   0.704   6.864 -0.6426 -0.1585  0.5739
  113MOL   H10047364   3.597   0.764   6.715 -0.5588 -0.8085  0.3987
  113MOL   H10147365   3.399   1.063   6.661 -0.0694  0.2828 -0.9313
  113MOL   H10247366   3.522   0.960   6.602 -1.6846 -1.2230 -1.6347
  113MOL   H10347367   3.358   0.903   6.617 -0.9977  1.8669 -0.6256
  113MOL   H10447368   3.261   0.847   6.838  1.2240 -0.3883 -0.6391
  113MOL   H10547369   3.359   0.844   6.978 -1.9007 -0.1263  0.3222
  113MOL   H10647370   3.302   1.000   6.920 -0.9123 -0.2341  0.1184
  113MOL   C10747371   3.630   1.056   7.107 -0.1309  0.4002  0.7291
  113MOL   C10847372   3.487   1.076   7.170  0.2317  0.4292  0.8582
  113MOL   C10947373   3.473   0.962   7.278 -0.0251 -0.5660 -0.3222
  113MOL   C11047374   3.328   0.929   7.334 -0.3048  0.3912  0.3925
  113MOL   C11147375   3.316   0.978   7.483 -0.2931  0.1136 -0.3555
  113MOL   C11247376   3.305   0.778   7.329  0.0039 -0.4645  1.0276
  113MOL   C11347377   3.206   0.999   7.266  0.2204 -0.3266  0.4530
  113MOL   H11447378   3.667   1.150   7.066  1.1635  0.1699  1.3176
  113MOL   H11547379   3.702   1.040   7.188  0.6465 -3.5554 -0.6479
  113MOL   H11647380   3.420   1.067   7.085 -0.0455  1.7429  0.9247
  113MOL   H11747381   3.532   0.874   7.253  2.0502  0.9249 -0.7329
  113MOL   H11847382   3.522   1.011   7.362  1.6190 -2.2309 -0.2880
  113MOL   H11947383   3.286   1.082   7.492 -0.0021 -0.0509  3.3993
  113MOL   H12047384   3.250   0.916   7.542  3.4659 -1.2453  2.6705
  113MOL   H12147385   3.411   0.977   7.538 -0.9886 -0.3785  0.8545
  113MOL   H12247386   3.382   0.727   7.387 -0.0186 -1.7214 -0.0251
  113MOL   H12347387   3.308   0.736   7.228  0.9328 -1.1564  1.3419
  113MOL   H12447388   3.208   0.741   7.365  0.8895 -2.6509  1.2879
  113MOL   H12547389   3.202   1.105   7.288 -0.2725 -0.0712 -0.8213
  113MOL   H12647390   3.111   0.959   7.304 -0.0684 -0.2675 -0.1927
  113MOL   H12747391   3.200   0.977   7.160 -3.1894 -0.7745  0.6655
  113MOL   C12847392   3.458   1.216   7.230 -0.1259 -0.1788 -0.1275
  113MOL   C12947393   3.413   1.340   7.142  0.0369 -0.0052  0.3749
  113MOL   C13047394   3.520   1.429   7.083  0.1633 -1.2572 -0.0777
  113MOL   C13147395   3.562   1.558   7.165 -0.5185 -0.2120 -0.2038
  113MOL   C13247396   3.640   1.515   7.296 -0.1670  0.2791 -0.5910
  113MOL   C13347397   3.437   1.638   7.214  0.6148  0.0531 -0.0778
  113MOL   C13447398   3.644   1.659   7.076  0.9088 -0.0853  0.8197
  113MOL   H13547399   3.540   1.256   7.291 -1.2874  2.5313 -0.2445
  113MOL   H13647400   3.380   1.203   7.305 -0.5427 -0.0406 -0.5370
  113MOL   H13747401   3.353   1.396   7.214  1.8998  0.8690  1.3004
  113MOL   H13847402   3.611   1.371   7.070  0.3653 -1.0129  0.2677
  113MOL   H13947403   3.480   1.461   6.986 -0.9563 -0.3216  0.6847
  113MOL   H14047404   3.690   1.423   7.266  0.5756  1.0084 -1.5921
  113MOL   H14147405   3.581   1.479   7.381  2.6449 -1.7658  0.5579
  113MOL   H14247406   3.716   1.589   7.319  1.0472 -1.2131  0.2259
  113MOL   H14347407   3.382   1.578   7.287  1.9501 -0.3013  0.6449
  113MOL   H14447408   3.364   1.648   7.134  1.5519 -1.5881 -1.1713
  113MOL   H14547409   3.465   1.737   7.248  0.3767  0.2717 -0.5083
  113MOL   H14647410   3.693   1.736   7.135  2.5074 -0.0921 -0.4394
  113MOL   H14747411   3.720   1.603   7.020 -1.4742  0.2477 -2.9363
  113MOL   H14847412   3.597   1.709   6.992  1.2022  3.4568  2.6767
  113MOL   C14947413   3.303   1.291   7.040 -0.1103  0.5485 -0.1854
  113MOL   C15047414   3.178   1.386   7.002  0.2398 -0.6024  0.1934
  113MOL   C15147415   3.112   1.357   6.865  0.1745  0.8773  0.6009
  113MOL   C15247416   3.175   1.426   6.741  0.4052 -0.4538  0.5278
  113MOL   C15347417   3.329   1.417   6.730  0.2033  0.2915 -0.2772
  113MOL   C15447418   3.141   1.577   6.753 -0.4504 -0.2219  0.4335
  113MOL   C15547419   3.116   1.359   6.613  0.4578  0.2241  0.1938
  113MOL   H15647420   3.252   1.203   7.081  0.0913  0.4097 -0.2359
  113MOL   H15747421   3.362   1.267   6.952  1.4980 -3.1285  1.7840
  113MOL   H15847422   3.222   1.485   6.997 -2.4325  0.5742 -1.3684
  113MOL   H15947423   3.009   1.392   6.862 -1.9950 -4.7411  1.8623
  113MOL   H16047424   3.115   1.248   6.853 -1.6749  0.8142  0.5330
  113MOL   H16147425   3.361   1.316   6.704  0.7134 -0.4525  2.9679
  113MOL   H16247426   3.346   1.473   6.639 -0.3669 -0.3657 -0.7939
  113MOL   H16347427   3.394   1.463   6.804 -1.5934 -0.8414  2.0908
  113MOL   H16447428   3.136   1.630   6.658 -0.3107  1.4221  1.3114
  113MOL   H16547429   3.228   1.627   6.797  0.2219 -0.3170 -0.7757
  113MOL   H16647430   3.058   1.621   6.808 -1.4187  0.5284 -1.6072
  113MOL   H16747431   3.009   1.368   6.596  0.0935 -2.2028  0.9267
  113MOL   H16847432   3.162   1.392   6.520 -1.2853 -0.4107 -0.9178
  113MOL   H16947433   3.134   1.252   6.624  3.2269  0.7008  0.5834
  113MOL   C17047434   3.077   1.385   7.123  0.1766 -0.2385 -0.4209
  113MOL   C17147435   2.982   1.512   7.127  0.5978  0.6184  0.7975
  113MOL   C17247436   3.053   1.620   7.206 -0.5024  0.1140 -0.2768
  113MOL   C17347437   3.026   1.768   7.166  0.7553  0.4242  0.2700
  113MOL   C17447438   3.121   1.852   7.258  0.9557  0.5100 -0.1540
  113MOL   C17547439   2.882   1.807   7.202  0.8204  0.0304 -0.3430
  113MOL   C17647440   3.051   1.803   7.017  0.1057 -0.1682 -0.5313
  113MOL   H17747441   3.136   1.367   7.213 -3.1017 -2.8548  1.3393
  113MOL   H17847442   3.026   1.290   7.106 -1.4077  0.5243 -0.0620
  113MOL   H17947443   2.979   1.545   7.023  0.2185  1.9712  1.2366
  113MOL   H18047444   3.027   1.620   7.312  0.1761  1.3382 -0.0973
  113MOL   H18147445   3.158   1.593   7.209 -0.6014 -0.2399  0.0727
  113MOL   H18247446   3.222   1.821   7.230  0.1768 -1.6179 -0.6816
  113MOL   H18347447   3.115   1.956   7.225  0.1616  0.4207 -0.3072
  113MOL   H18447448   3.109   1.842   7.366 -0.0597  2.1989 -0.0920
  113MOL   H18547449   2.847   1.787   7.303  0.0744  1.3319 -0.3324
  113MOL   H18647450   2.856   1.910   7.178  0.2624  0.0766  0.4602
  113MOL   H18747451   2.820   1.754   7.131 -1.6908 -0.2152  1.9365
  113MOL   H18847452   2.974   1.770   6.947 -0.0248 -2.3178  0.5889
  113MOL   H18947453   3.051   1.912   7.011  1.1409 -0.1058  0.4175
  113MOL   H19047454   3.149   1.759   6.996  0.4682  0.8414 -0.9638
  113MOL   C19147455   2.844   1.469   7.169  0.3269 -0.0195 -0.9432
  113MOL   C19247456   2.765   1.405   7.053 -0.0237  0.3761 -0.6475
  113MOL   C19347457   2.706   1.516   6.955 -0.2154 -0.3038  0.0138
  113MOL   C19447458   2.651   1.488   6.807 -0.0563  0.0713 -0.3541
  113MOL   C19547459   2.629   1.622   6.727 -0.4040  0.8185  0.2310
  113MOL   C19647460   2.514   1.406   6.797  0.0832 -0.1444  0.0728
  113MOL   C19747461   2.763   1.408   6.731  0.0210 -0.1361  0.3928
  113MOL   H19847462   2.858   1.402   7.254  0.7709 -0.8662 -1.6831
  113MOL   H19947463   2.782   1.548   7.212 -1.6456 -2.2346  0.3831
  113MOL   H20047464   2.819   1.329   6.997  0.1348  0.3464 -0.4512
  113MOL   H20147465   2.786   1.587   6.935 -0.8270  0.5571  0.5840
  113MOL   H20247466   2.619   1.562   7.002 -0.6998 -0.6174 -0.5684
  113MOL   H20347467   2.554   1.606   6.650 -0.2506  0.8570  0.0714
  113MOL   H20447468   2.596   1.704   6.791  1.2505 -0.4159  2.7394
  113MOL   H20547469   2.719   1.650   6.673 -0.7146 -0.6315 -1.0781
  113MOL   H20647470   2.478   1.380   6.697  0.5698 -0.7349  0.0509
  113MOL   H20747471   2.528   1.307   6.841  0.0768 -0.8141 -1.4190
  113MOL   H20847472   2.430   1.452   6.849  0.2592 -1.2573  1.3704
  113MOL   H20947473   2.727   1.379   6.633  0.6262 -0.6132  0.3091
  113MOL   H21047474   2.858   1.457   6.710 -0.5808  1.5089  1.3707
  113MOL   H21147475   2.793   1.316   6.781 -0.3939  0.0987  1.0858
  113MOL   C21247476   2.649   1.324   7.113  0.3249  0.2260  0.0368
  113MOL   C21347477   2.676   1.178   7.138 -0.2841 -0.7847 -0.0029
  113MOL   C21447478   2.681   1.101   7.004  0.4224  0.0260  0.2745
  113MOL   C21547479   2.787   0.985   6.983  0.0677 -0.0568 -0.6475
  113MOL   C21647480   2.921   1.047   6.958 -0.1554 -0.1419 -0.6164
  113MOL   C21747481   2.786   0.890   7.107 -0.7100 -0.1430 -0.4977
  113MOL   C21847482   2.759   0.891   6.861 -0.2005 -0.3063  0.2473
  113MOL   H21947483   2.615   1.372   7.205  0.2334 -0.5208  0.3969
  113MOL   H22047484   2.559   1.335   7.053  0.9066  1.6373 -0.5807
  113MOL   H22147485   2.779   1.171   7.175 -0.8607 -0.7781  1.6253
  113MOL   H22247486   2.689   1.176   6.926 -2.1498 -1.3189 -1.3654
  113MOL   H22347487   2.588   1.051   6.977  1.0487  0.4729 -2.8881
  113MOL   H22447488   2.947   1.104   7.048 -1.7797  0.2694 -0.4030
  113MOL   H22547489   2.921   1.105   6.866  1.6549 -0.0561 -0.5855
  113MOL   H22647490   3.000   0.973   6.942 -1.1832 -1.4884  0.3993
  113MOL   H22747491   2.851   0.805   7.084 -0.8467  0.0700 -1.7044
  113MOL   H22847492   2.829   0.948   7.189 -2.4343 -0.4097  0.6054
  113MOL   H22947493   2.692   0.856   7.149 -0.3106 -2.1920 -1.2094
  113MOL   H23047494   2.777   0.941   6.765 -0.9407  1.7003  1.1317
  113MOL   H23147495   2.654   0.860   6.853  0.2979 -1.5297 -1.9473
  113MOL   H23247496   2.805   0.794   6.872 -1.2604 -0.8391  0.0553
  113MOL   C23347497   2.566   1.119   7.237 -0.8126 -0.5135  0.8946
  113MOL   C23447498   2.592   1.138   7.389 -0.0934  0.2444  0.5255
  113MOL   C23547499   2.457   1.114   7.471  0.1780  0.2155  0.8286
  113MOL   C23647500   2.371   1.238   7.502  0.9171 -0.1479  0.1559
  113MOL   C23747501   2.450   1.345   7.585  0.4769  0.4125  0.4961
  113MOL   C23847502   2.322   1.295   7.370 -0.2554 -0.0408 -0.5798
  113MOL   C23947503   2.258   1.191   7.594 -0.0082 -0.0065  0.8002
  113MOL   H24047504   2.574   1.011   7.226  1.6990 -0.2914  0.2034
  113MOL   H24147505   2.464   1.147   7.213 -0.2447 -0.9453 -2.2012
  113MOL   H24247506   2.632   1.238   7.400  0.6583  0.3842 -2.8855
  113MOL   H24347507   2.397   1.029   7.439  1.5037 -0.4875  0.1495
  113MOL   H24447508   2.490   1.083   7.570 -0.9564 -2.1377  0.5222
  113MOL   H24547509   2.380   1.418   7.626 -1.5421 -0.6427 -0.9748
  113MOL   H24647510   2.531   1.393   7.531  0.1966  0.9846  0.5816
  113MOL   H24747511   2.509   1.308   7.669  0.6114  1.8329  1.0325
  113MOL   H24847512   2.244   1.370   7.385  0.0093  0.2360 -0.5672
  113MOL   H24947513   2.399   1.343   7.309  3.1158 -1.5508  2.2882
  113MOL   H25047514   2.268   1.227   7.306 -1.3413  0.2256  0.0451
  113MOL   H25147515   2.191   1.110   7.562 -1.3332  1.8387 -1.2357
  113MOL   H25247516   2.301   1.153   7.687 -0.0151  0.3582  0.9537
  113MOL   H25347517   2.195   1.277   7.618 -0.9239 -0.8647  1.5553
  113MOL   C25447518   2.703   1.037   7.436 -0.4107  0.0854 -0.1365
  113MOL   C25547519   2.782   1.062   7.570  0.2506  1.1806  0.3319
  113MOL   C25647520   2.872   1.189   7.555 -0.8454  0.5123  0.1254
  113MOL   C25747521   2.907   1.264   7.685 -0.4576  0.3177  0.7528
  113MOL   C25847522   2.995   1.383   7.630  0.2340 -0.5245  0.6012
  113MOL   C25947523   2.996   1.189   0.006  0.0918 -0.3851  0.3228
  113MOL   C26047524   2.780   1.320   7.751 -0.3592  0.2867 -0.0809
  113MOL   H26147525   2.782   1.048   7.362 -1.4287 -2.4388 -1.6591
  113MOL   H26247526   2.673   0.932   7.441  1.8685 -0.5024  2.1674
  113MOL   H26347527   2.723   1.069   7.661  0.2745 -1.1327  0.5560
  113MOL   H26447528   2.962   1.163   7.500 -0.8662 -0.9804  0.7730
  113MOL   H26547529   2.812   1.265   7.505 -0.1961 -0.0659 -1.5737
  113MOL   H26647530   2.932   1.440   7.562 -1.1714  1.1143  3.2163
  113MOL   H26747531   3.084   1.359   7.573 -0.6324 -1.7013 -0.2918
  113MOL   H26847532   3.025   1.451   7.709  1.3345  0.2990 -0.5138
  113MOL   H26947533   3.042   1.250   0.084  1.1377 -0.1709 -0.4590
  113MOL   H27047534   3.078   1.152   7.711 -0.9978  1.4210 -2.3411
  113MOL   H27147535   2.938   1.108   0.051 -1.0017 -1.1348 -2.3661
  113MOL   H27247536   2.809   1.371   0.077 -0.7316 -0.3667  0.3971
  113MOL   H27347537   2.721   1.386   7.687 -1.6449 -1.8543 -1.1625
  113MOL   H27447538   2.701   1.252   0.014  0.2158 -0.4560 -0.2380
  113MOL   C27547539   2.880   0.933   7.587  0.4680  0.2012  0.1825
  113MOL   C27647540   2.818   0.804   7.657  0.0893 -0.1482  0.3630
  113MOL   C27747541   2.887   0.663   7.622 -0.4247  0.3343  0.1376
  113MOL   C27847542   2.861   0.590   7.493 -0.0485  0.5777 -0.2550
  113MOL   C27947543   2.930   0.455   7.501 -0.4379  0.2651 -0.1171
  113MOL   C28047544   2.710   0.557   7.478  0.7564  0.1927  0.5580
  113MOL   C28147545   2.906   0.669   7.370  0.0279  0.5525 -0.0619
  113MOL   H28247546   2.931   0.901   7.496 -1.9805  1.3095 -1.6394
  113MOL   H28347547   2.969   0.963   7.641  2.0545 -0.6801 -1.8744
  113MOL   H28447548   2.712   0.805   7.630  0.1939  0.4520 -0.0385
  113MOL   H28547549   2.869   0.595   7.706 -0.3030  0.4916  0.2902
  113MOL   H28647550   2.995   0.679   7.621 -0.0775 -1.7033  0.8411
  113MOL   H28747551   2.879   0.402   7.581  1.5300  2.7421  2.9032
  113MOL   H28847552   2.919   0.407   7.404  0.4662  2.3892 -1.3323
  113MOL   H28947553   3.036   0.457   7.527  0.1604  1.0972 -2.4236
  113MOL   H29047554   2.703   0.494   7.389  0.4960  1.5604 -0.4044
  113MOL   H29147555   2.647   0.646   7.467 -0.5343 -0.5325  1.9453
  113MOL   H29247556   2.678   0.503   7.567  1.5968 -1.2689 -0.0238
  113MOL   H29347557   3.011   0.694   7.384  0.4384 -0.8040 -0.6314
  113MOL   H29447558   2.851   0.762   7.355 -0.9217 -0.3731 -2.5583
  113MOL   H29547559   2.909   0.609   7.279 -0.2213 -1.9431  1.5194
  113MOL   C29647560   2.817   0.830   0.048  0.5351  0.2811  0.3686
  113MOL   C29747561   2.735   0.743   0.150  0.1110  0.2494 -0.3885
  113MOL   C29847562   2.588   0.781   0.148  0.6343  0.0186  0.3102
  113MOL   C29947563   2.475   0.669   0.157  0.0651 -0.2761  0.0224
  113MOL   C30047564   2.339   0.736   0.134 -0.9690  0.6964 -0.5049
  113MOL   C30147565   2.492   0.554   0.050  0.0404 -0.6720 -1.0627
  113MOL   C30247566   2.480   0.607   0.296 -0.5799 -0.0054 -0.1833
  113MOL   H30347567   2.791   0.931   0.078 -1.2867  0.1496 -0.7031
  113MOL   H30447568   2.920   0.828   0.083  0.2543  1.2528  1.2844
  113MOL   H30547569   2.751   0.639   0.122 -0.8475 -0.3136  1.1204
  113MOL   H30647570   2.556   0.836   0.059 -0.5728  0.9414  1.2991
  113MOL   H30747571   2.565   0.852   0.227  1.0735  1.4932 -0.8596
  113MOL   H30847572   2.314   0.734   0.028  0.9917 -5.1168 -1.0114
  113MOL   H30947573   2.260   0.682   0.186  0.5850 -1.0584  0.1029
  113MOL   H31047574   2.336   0.838   0.173  1.4694  0.3155  0.7673
  113MOL   H31147575   2.413   0.480   0.060 -0.0439 -0.3931  0.3763
  113MOL   H31247576   2.481   0.595   7.715 -1.1971 -0.8089 -0.9858
  113MOL   H31347577   2.588   0.502   0.062  0.3543  0.4483  1.4250
  113MOL   H31447578   2.452   0.680   0.371  0.9404 -0.2792  0.6522
  113MOL   H31547579   2.398   0.535   0.304 -0.4836 -0.1954 -0.7975
  113MOL   H31647580   2.576   0.564   0.325 -1.1636 -1.5321 -0.4618
  113MOL   C31747581   2.788   0.759   0.293  0.6165  0.9100  0.7851
  113MOL   C31847582   2.922   0.680   0.321 -0.4344 -0.1238 -0.4118
  113MOL   C31947583   2.968   0.725   0.468 -0.5878  0.0083  0.3340
  113MOL   C32047584   3.062   0.851   0.471  0.0568  0.7064  0.2095
  113MOL   C32147585   3.188   0.827   0.392 -0.5022 -0.1900  0.5788
  113MOL   C32247586   3.099   0.892   0.617  0.1111 -0.2836 -0.2245
  113MOL   C32347587   3.001   0.964   0.399  0.1985 -0.2201 -0.1621
  113MOL   H32447588   2.799   0.866   0.314 -0.1976  1.8805 -3.3382
  113MOL   H32547589   2.721   0.714   0.366  1.4220 -1.2239  0.2393
  113MOL   H32647590   2.992   0.696   0.239  1.2320 -1.8512  0.6542
  113MOL   H32747591   3.018   0.648   0.527 -0.4910 -0.1050  0.1037
  113MOL   H32847592   2.874   0.736   0.522 -1.9416 -1.3410 -1.6788
  113MOL   H32947593   3.244   0.753   0.448  1.1559  2.6679  2.8858
  113MOL   H33047594   3.258   0.910   0.396 -0.4819 -0.2140  0.7202
  113MOL   H33147595   3.172   0.782   0.295 -0.0253  1.3018 -0.2119
  113MOL   H33247596   3.170   0.973   0.610 -0.3694  0.0144 -1.7421
  113MOL   H33347597   3.013   0.929   0.672  0.3680 -1.8265  1.2798
  113MOL   H33447598   3.149   0.807   0.665 -0.6758  0.2026  1.5013
  113MOL   H33547599   2.911   1.008   0.443  0.2771 -1.0391  0.8488
  113MOL   H33647600   2.980   0.945   0.294  1.6102 -3.2350  0.0430
  113MOL   H33747601   3.060   1.056   0.395  0.6635 -0.3690  2.0905
  113MOL   C33847602   2.892   0.527   0.325 -0.1149 -0.2677  0.1447
  113MOL   C33947603   3.006   0.429   0.272  0.5081 -0.1305  0.6911
  113MOL   C34047604   2.980   0.283   0.315  0.0222 -0.0056 -0.1453
  113MOL   C34147605   2.892   0.192   0.224  0.1631 -0.2641 -0.1609
  113MOL   C34247606   2.760   0.258   0.184  0.0529  0.3800  0.0664
  113MOL   C34347607   2.972   0.155   0.095 -0.1823 -0.3097  0.3870
  113MOL   C34447608   2.858   0.068   0.304  0.0990  0.2091  0.4636
  113MOL   H34547609   2.799   0.503   0.274 -0.8473  1.3982  0.6764
  113MOL   H34647610   2.889   0.498   0.430  3.3415 -1.1872  0.0473
  113MOL   H34747611   3.015   0.440   0.164  3.1076 -1.3955  0.7497
  113MOL   H34847612   2.942   0.293   0.417  2.3987  0.5031  0.7036
  113MOL   H34947613   3.063   0.216   0.336 -0.3217 -0.8261 -1.3651
  113MOL   H35047614   2.696   0.187   0.130  1.3774  0.1397 -1.2162
  113MOL   H35147615   2.711   0.280   0.279  0.0113  3.0633 -0.5319
  113MOL   H35247616   2.757   0.344   0.117  4.6758  0.3387 -0.3559
  113MOL   H35347617   2.907   0.093   0.033  0.8498 -1.0015 -0.0173
  113MOL   H35447618   2.991   0.237   0.027 -0.4650  0.5417  1.3286
  113MOL   H35547619   3.070   0.110   0.114  0.5346 -0.0575 -2.4249
  113MOL   H35647620   2.806   7.756   0.249  0.0333  0.4929  0.1187
  113MOL   H35747621   2.943   0.013   0.345  0.7833  2.1700  1.7230
  113MOL   H35847622   2.793   0.083   0.390  0.7720  1.6712  0.7252
  113MOL   C35947623   3.141   0.471   0.344  0.4511  0.3897  0.4251
  113MOL   C36047624   3.270   0.387   0.305 -0.4126 -0.2132  0.1248
  113MOL   C36147625   3.396   0.459   0.351 -0.2928 -0.1732 -0.1564
  113MOL   C36247626   3.471   0.419   0.488  0.4540 -0.4581 -0.1771
  113MOL   C36347627   3.378   0.455   0.613  0.5845 -0.0608 -0.0725
  113MOL   C36447628   3.603   0.506   0.501  0.7322  0.0325  0.0709
  113MOL   C36547629   3.514   0.269   0.490  0.2907 -1.0940  0.5833
  113MOL   H36647630   3.141   0.468   0.453 -1.8301  0.6546  0.4464
  113MOL   H36747631   3.167   0.574   0.319  1.9846 -0.0802  0.0106
  113MOL   H36847632   3.270   0.291   0.356  0.6776  0.0629  0.6315
  113MOL   H36947633   3.471   0.465   0.272  0.2159 -0.4993  0.2961
  113MOL   H37047634   3.376   0.566   0.358 -0.3173 -0.1916  0.0521
  113MOL   H37147635   3.332   0.554   0.605 -1.8767 -1.2184 -0.7259
  113MOL   H37247636   3.299   0.382   0.627 -2.1557  3.0950  1.7770
  113MOL   H37347637   3.435   0.461   0.706 -0.7519 -1.6417  0.8652
  113MOL   H37447638   3.652   0.494   0.598 -2.6263 -1.5942  1.6576
  113MOL   H37547639   3.578   0.611   0.487 -0.3223 -0.0451  1.3377
  113MOL   H37647640   3.680   0.474   0.430  1.0959  1.1080 -0.0270
  113MOL   H37747641   3.548   0.246   0.590  1.3813 -0.8457  0.2719
  113MOL   H37847642   3.595   0.242   0.422  1.1493  1.8196  0.3812
  113MOL   H37947643   3.433   0.205   0.454  1.3510 -1.4823 -1.1999
  113MOL   C38047644   3.286   0.339   0.154 -0.2550 -0.4789  0.0533
  113MOL   C38147645   3.393   0.233   0.133 -0.4066  0.1591 -0.1526
  113MOL   C38247646   3.415   0.218   7.744 -0.3450 -0.8673  0.0224
  113MOL   C38347647   3.551   0.281   7.694  0.0467  0.5213 -0.2671
  113MOL   C38447648   3.553   0.433   7.720  0.0197  0.3605 -0.2511
  113MOL   C38547649   3.535   0.271   7.546 -0.3103  0.5282  0.1413
  113MOL   C38647650   3.668   0.192   7.757  0.3396 -0.2126  0.1224
  113MOL   H38747651   3.315   0.418   0.085 -0.1256 -0.9778 -0.4640
  113MOL   H38847652   3.189   0.302   0.122 -0.0229 -0.2871 -0.9056
  113MOL   H38947653   3.491   0.244   0.179  0.4215 -0.9008 -1.6145
  113MOL   H39047654   3.410   0.119   7.700 -0.5934 -0.7782 -0.1450
  113MOL   H39147655   3.346   0.285   7.694  0.1907  1.3440  2.1424
  113MOL   H39247656   3.473   0.492   7.675 -2.6863 -2.5899  0.5581
  113MOL   H39347657   3.550   0.459   0.060 -1.6971  1.2540 -0.5098
  113MOL   H39447658   3.647   0.480   7.690 -0.7424 -0.2196 -3.7474
  113MOL   H39547659   3.445   0.318   7.507 -0.4875  1.0018  1.1250
  113MOL   H39647660   3.521   0.167   7.515 -1.2069  0.3533  1.1146
  113MOL   H39747661   3.616   0.317   7.490  1.4816 -0.7725  1.6037
  113MOL   H39847662   3.669   0.086   7.733  1.9073 -0.9129  3.1135
  113MOL   H39947663   3.682   0.212   0.097  2.3479 -0.1627 -0.1342
  113MOL   H40047664   3.763   0.237   7.731  0.7888 -0.4331  1.3843
  113MOL   C40147665   3.335   0.100   0.177  0.1894  0.3308 -0.6968
  113MOL   C40247666   3.445   7.758   0.220 -0.8472  0.1332 -0.2258
  113MOL   C40347667   3.407   7.655   0.329  0.0117  0.3429 -0.2871
  113MOL   C40447668   3.526   7.575   0.397  0.2198 -0.1834 -0.6308
  113MOL   C40547669   3.606   7.670   0.495  0.6803 -0.2819 -0.7304
  113MOL   C40647670   3.615   7.519   0.287 -0.1798 -0.4856 -0.7014
  113MOL   C40747671   3.476   7.457   0.479  0.0809 -0.2012  0.1041
  113MOL   H40847672   3.267   0.120   0.259  1.3753  1.2200  0.0952
  113MOL   H40947673   3.266   0.059   0.104 -0.8092  0.2398  0.2889
  113MOL   H41047674   3.466   7.699   0.131  0.8100  0.1136  0.1577
  113MOL   H41147675   3.338   7.592   0.273  0.2367 -0.5280  0.4102
  113MOL   H41247676   3.353   7.711   0.406  3.0169  0.5442  1.7614
  113MOL   H41347677   3.656   7.753   0.447 -1.6603  1.3928 -0.3735
  113MOL   H41447678   3.682   7.611   0.547 -0.5777  0.4178  1.9945
  113MOL   H41547679   3.553   7.719   0.577  1.1112  1.1900 -1.3244
  113MOL   H41647680   3.668   7.585   0.218  0.0144  0.7640  0.6335
  113MOL   H41747681   3.574   7.432   0.236 -0.8630 -0.1037 -0.8129
  113MOL   H41847682   3.692   7.481   0.354 -2.1192 -1.8857  0.8103
  113MOL   H41947683   3.427   7.381   0.417  0.9793 -2.9979  2.6722
  113MOL   H42047684   3.569   7.411   0.513  0.8866  2.1400  1.1108
  113MOL   H42147685   3.423   7.474   0.572 -0.3346 -2.2108  0.2587
  113MOL   H42247686   3.540   0.038   0.247 -0.6534 -0.3616 -0.0527
  114MOL     C147687   1.808   6.337   6.547 -0.1470  0.3858  0.5414
  114MOL     C247688   1.712   6.227   6.504 -0.4118  0.0028  0.0572
  114MOL     C347689   1.768   6.124   6.400 -0.2323  0.1788 -0.8272
  114MOL     C447690   1.723   5.975   6.399  0.1464 -0.7978 -0.5102
  114MOL     C547691   1.781   5.904   6.526  0.1154 -0.3666  0.3049
  114MOL     C647692   1.569   5.961   6.400  0.1086 -1.2875 -0.4711
  114MOL     C747693   1.787   5.895   6.280 -0.0274 -0.0527 -1.0534
  114MOL     H847694   1.909   6.301   6.569 -0.2411  0.0203  0.3833
  114MOL     H947695   1.817   6.411   6.467 -0.5616 -1.2344 -1.0482
  114MOL    H1047696   1.688   6.161   6.588  2.1334 -3.1163 -1.5740
  114MOL    H1147697   1.877   6.122   6.412 -0.5139  0.1354  1.9248
  114MOL    H1247698   1.770   6.165   6.299  1.7906 -1.5211 -1.5208
  114MOL    H1347699   1.890   5.895   6.524  0.0192 -1.3675 -3.0979
  114MOL    H1447700   1.744   5.802   6.534  1.7302 -0.8754  1.6278
  114MOL    H1547701   1.763   5.953   6.621 -1.9732  1.1182 -0.8174
  114MOL    H1647702   1.545   5.856   6.417  1.1680 -0.7412  5.2500
  114MOL    H1747703   1.520   6.010   6.484  1.8590  4.4184 -2.5404
  114MOL    H1847704   1.519   5.989   6.307 -2.8793 -4.3764  0.0953
  114MOL    H1947705   1.741   5.931   6.188 -0.8724  2.4035  0.2982
  114MOL    H2047706   1.803   5.788   6.291 -0.4009  0.2538  2.9371
  114MOL    H2147707   1.888   5.938   6.275 -0.7660  1.8944  0.2418
  114MOL    H2247708   1.781   6.385   6.641  0.9244 -0.1107  1.1244
  114MOL    C2347709   1.570   6.291   6.472  0.1654 -0.4687 -0.7680
  114MOL    C2447710   1.504   6.387   6.568  0.1822  0.5831 -0.1909
  114MOL    C2547711   1.459   6.303   6.696  0.5558 -0.7360  1.4337
  114MOL    C2647712   1.469   6.375   6.829 -0.2687  0.3207 -0.2653
  114MOL    C2747713   1.610   6.417   6.865  0.5632 -0.4834  0.5096
  114MOL    C2847714   1.378   6.496   6.838  0.7245 -0.1637 -0.5017
  114MOL    C2947715   1.417   6.276   6.937 -0.8566 -0.1485  0.0613
  114MOL    H3047716   1.583   6.347   6.379  3.6804 -1.6225 -1.0196
  114MOL    H3147717   1.486   6.224   6.454  1.6837 -2.0956 -1.9325
  114MOL    H3247718   1.575   6.461   6.604 -0.0726 -0.6248  2.9927
  114MOL    H3347719   1.518   6.213   6.705 -0.4655 -1.4276  1.3490
  114MOL    H3447720   1.361   6.256   6.683  1.2239 -1.8919  0.5686
  114MOL    H3547721   1.677   6.331   6.859  3.5622  1.8449  0.0994
  114MOL    H3647722   1.637   6.505   6.807 -2.2179  0.5203  0.6501
  114MOL    H3747723   1.609   6.442   6.971  1.6400 -3.2070  1.2199
  114MOL    H3847724   1.415   6.582   6.783 -1.8621  0.0648 -1.9468
  114MOL    H3947725   1.276   6.480   6.804  2.1070 -0.4773 -4.8017
  114MOL    H4047726   1.368   6.522   6.944 -0.7400 -1.4077 -0.3180
  114MOL    H4147727   1.424   6.325   7.035 -1.5438 -0.1226  0.0945
  114MOL    H4247728   1.483   6.190   6.946  0.3130  0.6815 -0.3270
  114MOL    H4347729   1.313   6.247   6.926 -1.2793  1.1512  0.4732
  114MOL    C4447730   1.365   6.448   6.509 -0.0841  0.0755  0.2028
  114MOL    C4547731   1.388   6.561   6.414 -0.2621  0.0735 -0.5762
  114MOL    C4647732   1.459   6.683   6.471 -0.4840  0.3013 -0.1502
  114MOL    C4747733   1.577   6.748   6.391 -0.7755 -0.3899 -0.3987
  114MOL    C4847734   1.620   6.879   6.460 -0.7973 -0.2521  0.2446
  114MOL    C4947735   1.532   6.784   6.246 -0.1192  0.2203  0.0599
  114MOL    C5047736   1.690   6.645   6.384 -0.3699  0.8393 -0.0582
  114MOL    H5147737   1.293   6.379   6.464 -0.5597  1.9221 -1.9447
  114MOL    H5247738   1.297   6.488   6.585 -2.4180 -0.9632 -1.2878
  114MOL    H5347739   1.451   6.514   6.339 -0.2196 -0.4379 -0.2191
  114MOL    H5447740   1.496   6.660   6.571  0.7209  1.5634 -0.3000
  114MOL    H5547741   1.390   6.766   6.487  0.0673  1.1770 -2.1558
  114MOL    H5647742   1.552   6.963   6.471 -0.2619  0.0285  1.5209
  114MOL    H5747743   1.709   6.923   6.414 -1.4764  1.1142  0.2309
  114MOL    H5847744   1.647   6.860   6.564 -3.1917  0.5283  1.0260
  114MOL    H5947745   1.482   6.694   6.209 -1.5611  0.5185  1.2088
  114MOL    H6047746   1.461   6.866   6.239 -2.3291 -1.5286  1.2438
  114MOL    H6147747   1.621   6.805   6.188 -0.8259 -0.3744 -1.2599
  114MOL    H6247748   1.708   6.610   6.486 -2.8311  0.8689  0.4218
  114MOL    H6347749   1.666   6.559   6.321  0.0978  0.2558  0.5530
  114MOL    H6447750   1.779   6.692   6.343 -1.2758 -0.2162 -3.3459
  114MOL    C6547751   1.256   6.608   6.349  0.5918 -0.6489  0.3501
  114MOL    C6647752   1.172   6.498   6.271 -0.6129 -0.2051 -0.4046
  114MOL    C6747753   1.258   6.448   6.151 -0.5128 -0.7040 -0.3816
  114MOL    C6847754   1.231   6.301   6.097  0.1738  0.5330  0.2983
  114MOL    C6947755   1.275   6.285   5.949 -0.3074 -0.7128  0.2584
  114MOL    C7047756   1.300   6.201   6.188 -0.1307  0.9438 -0.3613
  114MOL    C7147757   1.084   6.263   6.085  0.6331  0.4738 -0.9124
  114MOL    H7247758   1.204   6.655   6.432  1.6092 -0.2134  0.7505
  114MOL    H7347759   1.273   6.681   6.270  0.2813 -3.2068 -2.1351
  114MOL    H7447760   1.133   6.418   6.335  0.5385 -0.3297  0.1492
  114MOL    H7547761   1.364   6.460   6.169 -0.7047 -1.1434  1.0798
  114MOL    H7647762   1.257   6.514   6.064  1.3292 -1.0628 -0.6982
  114MOL    H7747763   1.374   6.325   5.929 -0.1378 -1.4680 -0.4285
  114MOL    H7847764   1.278   6.180   5.922 -1.1173 -0.5468 -0.5224
  114MOL    H7947765   1.209   6.338   5.880  1.3331  0.0228 -0.7781
  114MOL    H8047766   1.254   6.202   6.287  0.3630  2.1417 -0.1306
  114MOL    H8147767   1.401   6.228   6.216 -0.0360 -0.8463  1.0789
  114MOL    H8247768   1.288   6.102   6.145  0.7478 -0.8749  3.4278
  114MOL    H8347769   1.036   6.242   6.180  3.8250 -2.4706  0.1588
  114MOL    H8447770   1.057   6.182   6.017  1.5140 -1.8380  1.4146
  114MOL    H8547771   1.018   6.340   6.045  0.1461 -0.6954 -2.3852
  114MOL    C8647772   1.037   6.565   6.226 -0.0531  0.0360  0.1158
  114MOL    C8747773   0.941   6.632   6.331  0.3331  0.0206  0.4697
  114MOL    C8847774   0.855   6.529   6.415 -0.3050  0.0092 -0.7201
  114MOL    C8947775   0.855   6.547   6.574 -0.2451 -0.6356 -0.1047
  114MOL    C9047776   0.996   6.553   6.634  0.6454  0.0574 -0.1482
  114MOL    C9147777   0.787   6.423   6.637 -0.6653  0.3479 -0.0953
  114MOL    C9247778   0.780   6.675   6.605  0.7187  0.9871  0.9643
  114MOL    H9347779   0.968   6.501   6.171  0.9992 -0.5515 -0.5361
  114MOL    H9447780   1.065   6.646   6.159  0.4396 -0.1536  0.0916
  114MOL    H9547781   0.997   6.697   6.399 -0.0555  0.9798 -0.1110
  114MOL    H9647782   0.869   6.422   6.398 -0.5593 -0.7030  3.0978
  114MOL    H9747783   0.750   6.537   6.387 -0.1164 -0.5253 -1.6079
  114MOL    H9847784   0.969   6.548   6.740 -1.0080  1.7209 -0.4598
  114MOL    H9947785   1.035   6.655   6.627 -0.9096  0.5312 -2.4444
  114MOL   H10047786   1.061   6.478   6.590 -1.2750 -0.9183 -1.3602
  114MOL   H10147787   0.843   6.331   6.625  0.1415  1.1694 -2.8780
  114MOL   H10247788   0.762   6.439   6.742  1.1993 -0.7841  0.5434
  114MOL   H10347789   0.690   6.410   6.588 -0.1563  0.3266 -1.0965
  114MOL   H10447790   0.781   6.699   6.712 -0.0699 -1.6725  1.6038
  114MOL   H10547791   0.815   6.758   6.544  1.2952  0.2434  0.2775
  114MOL   H10647792   0.674   6.654   6.594  0.8691 -0.7004  2.5233
  114MOL   C10747793   0.841   6.727   6.262  0.0532  0.2054  0.1391
  114MOL   C10847794   0.892   6.845   6.173  0.1979 -0.0899  0.0161
  114MOL   C10947795   0.778   6.928   6.098  0.1267 -0.0321  0.2182
  114MOL   C11047796   0.677   6.855   6.001  0.0229  0.5785  0.3619
  114MOL   C11147797   0.749   6.752   5.911  0.2972 -0.9123 -0.1153
  114MOL   C11247798   0.609   6.963   5.906 -0.5816 -0.6599  0.2278
  114MOL   C11347799   0.553   6.778   6.072  0.4512 -0.6755 -0.7251
  114MOL   H11447800   0.754   6.749   6.324 -1.6721 -2.8638 -1.0688
  114MOL   H11547801   0.789   6.664   6.189  0.1976  0.0246  0.1931
  114MOL   H11647802   0.939   6.796   6.088 -0.8719  1.6099 -1.6133
  114MOL   H11747803   0.715   6.983   6.168 -0.6075 -1.2384  0.5182
  114MOL   H11847804   0.836   7.002   6.043 -1.0608 -0.2169 -1.3232
  114MOL   H11947805   0.798   6.684   5.981 -0.0897  0.5732  1.6268
  114MOL   H12047806   0.679   6.700   5.844 -0.4090 -1.9979  1.4367
  114MOL   H12147807   0.835   6.799   5.864  1.6285 -1.8076  1.3727
  114MOL   H12247808   0.694   7.005   5.852 -0.8442 -1.2176 -0.6340
  114MOL   H12347809   0.556   7.044   5.956  1.9080  1.9698 -1.2593
  114MOL   H12447810   0.535   6.922   5.837 -1.2349  1.7590 -0.5584
  114MOL   H12547811   0.553   6.672   6.046  0.3128 -0.7901 -0.2704
  114MOL   H12647812   0.457   6.828   6.065  0.2635 -0.8799  0.2086
  114MOL   H12747813   0.576   6.788   6.178 -4.0159 -1.0287  0.3903
  114MOL   C12847814   0.998   6.935   6.246  0.0189 -0.3061 -0.3228
  114MOL   C12947815   1.080   7.049   6.187  0.0460  0.2519  0.3418
  114MOL   C13047816   1.188   7.101   6.285 -0.0638 -0.5559  1.0030
  114MOL   C13147817   1.160   7.177   6.421  0.1191 -0.0084 -0.1440
  114MOL   C13247818   1.284   7.257   6.470  0.9054 -0.0680  0.1882
  114MOL   C13347819   1.124   7.076   6.534  0.1121 -0.3304 -0.1117
  114MOL   C13447820   1.041   7.281   6.406 -0.3250 -0.2063  0.0941
  114MOL   H13547821   1.071   6.864   6.285 -0.6727 -2.7107 -3.2755
  114MOL   H13647822   0.955   6.983   6.334  1.9561  1.5506 -0.3507
  114MOL   H13747823   1.022   7.142   6.183  0.6291  0.7559  2.6628
  114MOL   H13847824   1.261   7.024   6.310  1.4582  1.3866  2.6876
  114MOL   H13947825   1.248   7.170   6.225  1.1855 -2.5779 -0.1393
  114MOL   H14047826   1.273   7.306   6.567 -1.6563 -1.6509  0.7587
  114MOL   H14147827   1.312   7.329   6.393  2.0692  0.2429  0.8853
  114MOL   H14247828   1.372   7.193   6.468  1.1407  0.2807 -2.0868
  114MOL   H14347829   1.208   7.009   6.550  1.2060  1.1229  0.3704
  114MOL   H14447830   1.045   7.005   6.508  0.2035 -0.7922  0.8806
  114MOL   H14547831   1.105   7.114   6.634  2.8940 -0.2835  0.4156
  114MOL   H14647832   0.944   7.230   6.402 -0.0774 -0.5077 -2.1830
  114MOL   H14747833   1.026   7.338   6.498  2.6595 -0.7294  0.9445
  114MOL   H14847834   1.062   7.343   6.319  2.4974  0.1370  0.9767
  114MOL   C14947835   1.158   7.015   6.053 -0.1444  0.8111  0.0830
  114MOL   C15047836   1.171   7.136   5.959 -0.5372 -0.0380 -0.3236
  114MOL   C15147837   1.289   7.105   5.864 -0.3230  0.1104  0.2307
  114MOL   C15247838   1.436   7.146   5.897 -0.8418 -0.2262 -0.0672
  114MOL   C15347839   1.478   7.097   6.030 -0.1646 -0.3717 -0.3569
  114MOL   C15447840   1.453   7.301   5.888 -0.2382  0.6926 -0.5987
  114MOL   C15547841   1.536   7.092   5.805 -0.1936 -0.1992 -0.1544
  114MOL   H15647842   1.107   6.926   6.016 -1.1726  0.4293  2.3414
  114MOL   H15747843   1.257   6.981   6.084 -0.1053  1.1564  0.3365
  114MOL   H15847844   1.196   7.220   6.022  0.2353 -1.2959  1.0691
  114MOL   H15947845   1.271   7.162   5.773 -1.8948  0.4416  0.7382
  114MOL   H16047846   1.287   7.001   5.831 -1.1187 -0.3052  1.5257
  114MOL   H16147847   1.433   7.145   6.117 -2.3405 -1.0372 -1.0930
  114MOL   H16247848   1.468   6.991   6.054 -1.4278 -0.2573 -0.3405
  114MOL   H16347849   1.583   7.119   6.051 -0.1206 -1.1510  0.2664
  114MOL   H16447850   1.388   7.361   5.952  0.8371  1.3012 -0.0571
  114MOL   H16547851   1.446   7.345   5.789  2.6300  0.1931 -1.0662
  114MOL   H16647852   1.554   7.321   5.925  0.3297 -1.3938 -0.9385
  114MOL   H16747853   1.505   7.126   5.706 -2.2691  2.1110  1.2458
  114MOL   H16847854   1.639   7.125   5.821 -0.7228  2.4214 -1.8413
  114MOL   H16947855   1.529   6.984   5.814  1.2745 -0.1210  2.2191
  114MOL   C17047856   1.034   7.171   5.904 -0.5621 -0.0417 -0.7764
  114MOL   C17147857   1.020   7.297   5.815 -0.5306 -0.0501  0.1016
  114MOL   C17247858   1.042   7.255   5.669 -0.0431  0.2655 -0.0563
  114MOL   C17347859   0.943   7.310   5.558 -0.7356 -0.8201 -0.0275
  114MOL   C17447860   0.804   7.251   5.577 -0.3189 -0.0010 -0.0566
  114MOL   C17547861   0.982   7.273   5.414  1.0513  0.7101 -0.4462
  114MOL   C17647862   0.946   7.468   5.569 -0.3426  0.0500  0.3157
  114MOL   H17747863   0.979   7.188   5.996 -1.0893 -0.1369 -1.0708
  114MOL   H17847864   0.990   7.084   5.856 -1.1454 -0.2511  0.1265
  114MOL   H17947865   0.916   7.328   5.814 -0.3709  0.4905 -0.3351
  114MOL   H18047866   1.136   7.298   5.636  0.0359 -0.7296 -1.1507
  114MOL   H18147867   1.053   7.148   5.653  1.2626  0.5301 -0.9443
  114MOL   H18247868   0.732   7.277   5.499 -0.6519  1.6507  0.7787
  114MOL   H18347869   0.812   7.142   5.573 -1.2417 -0.0077 -2.8875
  114MOL   H18447870   0.759   7.283   5.671  1.0476  1.2776  0.1754
  114MOL   H18547871   1.003   7.166   5.413  1.1815  0.6660  2.1697
  114MOL   H18647872   0.893   7.288   5.353 -0.2242 -0.8416  1.0035
  114MOL   H18747873   1.068   7.332   5.382  0.3328  1.5956 -0.7384
  114MOL   H18847874   0.900   7.508   5.660  1.2952  1.2655  0.6503
  114MOL   H18947875   1.045   7.513   5.561 -1.0153  1.7207  1.1108
  114MOL   H19047876   0.880   7.515   5.496 -0.0962 -1.3168 -0.7951
  114MOL   C19147877   1.097   7.421   5.861  0.1611  0.0385 -0.0569
  114MOL   C19247878   1.050   7.478   5.999 -0.4173 -0.3975 -0.0097
  114MOL   C19347879   0.914   7.539   5.991  0.0360 -0.6265 -0.6178
  114MOL   C19447880   0.807   7.519   6.103  0.2412 -0.2274 -0.4853
  114MOL   C19547881   0.850   7.601   6.226 -0.3820  0.2468 -0.8013
  114MOL   C19647882   0.784   7.376   6.148  0.4939  0.4857 -0.3600
  114MOL   C19747883   0.673   7.587   6.074 -0.2008  0.2956  0.0474
  114MOL   H19847884   1.203   7.396   5.859 -0.4556 -2.6100 -1.3413
  114MOL   H19947885   1.080   7.492   5.780  1.9093  1.4566  0.7724
  114MOL   H20047886   1.024   7.387   6.054  0.4137 -1.0740 -0.7080
  114MOL   H20147887   0.871   7.504   5.897 -0.2687 -3.4001  0.5037
  114MOL   H20247888   0.918   7.644   5.962  2.7838 -0.7134 -0.6655
  114MOL   H20347889   0.778   7.591   6.307  0.3620  0.4992 -0.1096
  114MOL   H20447890   0.953   7.578   6.254 -0.4424  1.2385  0.2492
  114MOL   H20547891   0.861   7.706   6.199 -0.4848 -0.0261 -1.9232
  114MOL   H20647892   0.701   7.364   6.217 -1.3532 -0.5357 -2.6986
  114MOL   H20747893   0.740   7.315   6.069 -1.4728  0.4058  0.7676
  114MOL   H20847894   0.873   7.326   6.187  0.6695 -0.2770 -1.6930
  114MOL   H20947895   0.610   7.588   6.163 -0.6139  1.4232 -0.2494
  114MOL   H21047896   0.689   7.688   6.035 -1.3299  0.4159 -0.1076
  114MOL   H21147897   0.608   7.525   6.013 -1.4703  1.2576  0.3982
  114MOL   C21247898   1.163   7.571   6.065  0.3113  0.0283  0.1947
  114MOL   C21347899   1.158   7.726   6.065  0.4923 -0.9829  0.0034
  114MOL   C21447900   1.184   0.008   5.917  0.5980  0.8001 -0.2074
  114MOL   C21547901   1.127   0.148   5.876  0.1033  0.0614 -0.7038
  114MOL   C21647902   0.969   0.153   5.869 -0.0839  0.8249  0.1480
  114MOL   C21747903   1.188   0.257   5.970  0.6276  0.4152  0.8424
  114MOL   C21847904   1.178   0.185   5.737  0.0235  0.6897 -0.8596
  114MOL   H21947905   1.152   7.550   6.172 -1.6434 -2.8270 -0.5114
  114MOL   H22047906   1.263   7.540   6.034 -0.2325 -1.0429 -0.5193
  114MOL   H22147907   1.062   0.001   6.095  0.3922  0.2595 -1.8982
  114MOL   H22247908   1.146   7.701   5.846  0.2718  2.8863 -2.2255
  114MOL   H22347909   1.291   7.764   5.897  0.9555  2.5427  0.7286
  114MOL   H22447910   0.920   0.083   5.801 -1.4732  0.3082  1.6408
  114MOL   H22547911   0.940   0.255   5.845  1.3211  1.6180  1.7249
  114MOL   H22647912   0.929   0.121   5.965 -1.2245 -2.7308 -1.4339
  114MOL   H22747913   1.162   0.239   6.075  3.2560 -4.5687  0.8301
  114MOL   H22847914   1.297   0.259   5.969  0.6405  0.2495  1.5023
  114MOL   H22947915   1.148   0.355   5.947  0.4098  0.1927  0.2530
  114MOL   H23047916   1.278   0.227   5.742  1.1208 -1.6501 -2.3539
  114MOL   H23147917   1.114   0.258   5.687 -1.6165 -0.6244 -0.7309
  114MOL   H23247918   1.189   0.102   5.667 -2.3027 -0.2312 -0.1559
  114MOL   C23347919   1.269   0.011   6.155  0.1311  0.1702  0.4770
  114MOL   C23447920   1.232   0.011   6.311  0.5135 -0.4027  0.8174
  114MOL   C23547921   1.360   0.037   6.394  0.2682  0.0288  0.0373
  114MOL   C23647922   1.443   7.685   6.448  1.1209 -0.5039 -0.3361
  114MOL   C23747923   1.492   7.592   6.335 -0.2315 -0.8278 -0.7082
  114MOL   C23847924   1.568   7.739   6.521 -0.1808 -0.4313  0.0719
  114MOL   C23947925   1.365   7.609   6.555 -0.2367 -0.1387  0.5448
  114MOL   H24047926   1.308   0.107   6.121 -0.9657 -0.8913 -4.1369
  114MOL   H24147927   1.351   7.709   6.129 -1.4726 -1.5850 -0.0656
  114MOL   H24247928   1.186   7.683   6.339  0.6209 -1.0657 -1.1637
  114MOL   H24347929   1.417   0.096   6.322 -0.1743 -1.0188 -1.1938
  114MOL   H24447930   1.342   0.100   6.481 -0.2793  0.8819 -0.6829
  114MOL   H24547931   1.548   7.644   6.258 -1.3832  1.5900  0.0357
  114MOL   H24647932   1.406   7.536   6.296 -2.5001  1.6935  0.5688
  114MOL   H24747933   1.567   7.521   6.370  1.2323 -0.0034 -2.1272
  114MOL   H24847934   1.625   7.660   6.569 -1.6176 -0.9878  0.9152
  114MOL   H24947935   1.642   0.021   6.458 -1.0006  1.3597  0.4211
  114MOL   H25047936   1.549   0.046   6.600  2.0292  1.1885 -0.8420
  114MOL   H25147937   1.421   7.537   6.613 -1.2116 -1.6828 -0.4128
  114MOL   H25247938   1.328   7.672   6.636 -2.9931 -2.9007  1.5033
  114MOL   H25347939   1.276   7.564   6.511 -1.0009 -0.5634  2.5002
  114MOL   C25447940   1.134   0.130   6.328 -0.2357 -0.1115 -0.7272
  114MOL   C25547941   1.067   0.156   6.470 -0.1965 -1.0662 -0.7805
  114MOL   C25647942   0.938   0.067   6.489 -0.4653 -0.7081 -0.1651
  114MOL   C25747943   0.921   7.760   6.633 -0.4331  0.0437  0.3253
  114MOL   C25847944   1.027   7.651   6.652  0.2090 -0.2467 -0.6025
  114MOL   C25947945   0.777   7.710   6.636 -0.0870  0.1484 -0.3042
  114MOL   C26047946   0.938   0.087   6.757  0.5031 -0.0401  0.5186
  114MOL   H26147947   1.057   0.136   6.250  0.0870 -0.5918 -1.0834
  114MOL   H26247948   1.192   0.221   6.312 -0.9180  0.4896  0.1945
  114MOL   H26347949   1.127   0.110   6.549 -0.5143 -1.8657 -0.9936
  114MOL   H26447950   0.855   0.134   6.467  0.5592  1.0659  1.3093
  114MOL   H26547951   0.939   7.755   6.413  3.2915 -1.5193  0.6313
  114MOL   H26647952   1.125   7.692   6.676 -0.7354  1.7996 -0.1344
  114MOL   H26747953   1.027   7.577   6.572 -1.1437 -0.2355 -0.6273
  114MOL   H26847954   0.992   7.588   6.734  1.2329 -3.1992 -2.3567
  114MOL   H26947955   0.696   0.017   6.634  0.7333  1.0979  0.5013
  114MOL   H27047956   0.758   7.647   6.723 -1.7570  1.5781  0.3916
  114MOL   H27147957   0.747   7.647   6.552 -0.8345 -2.8616  2.1265
  114MOL   H27247958   0.861   0.163   6.764 -0.4952 -0.8082 -1.7073
  114MOL   H27347959   0.919   0.028   6.847 -1.0051 -0.1583  0.1210
  114MOL   H27447960   1.037   0.132   6.759 -0.0115  1.2481 -1.6317
  114MOL   C27547961   1.033   0.303   6.496 -0.0600  0.8862  0.3239
  114MOL   C27647962   1.154   0.401   6.522 -0.5840 -0.1612 -0.6092
  114MOL   C27747963   1.118   0.545   6.479  0.1753  0.8043 -0.2345
  114MOL   C27847964   1.130   0.592   6.329 -0.5626 -0.3954 -0.0822
  114MOL   C27947965   1.110   0.743   6.330  0.2125  0.2866 -0.2699
  114MOL   C28047966   1.260   0.554   6.253  0.4421  0.1924 -0.4548
  114MOL   C28147967   1.009   0.529   6.248  0.0980 -1.0071 -0.0459
  114MOL   H28247968   0.961   0.329   6.418  0.7628  1.2567 -0.3219
  114MOL   H28347969   0.980   0.297   6.591 -0.0969  0.4920  0.2797
  114MOL   H28447970   1.231   0.372   6.450  0.1307 -0.2580  0.1953
  114MOL   H28547971   1.166   0.619   6.543  2.5022 -0.4437 -0.4524
  114MOL   H28647972   1.016   0.558   6.513  0.1124  1.4769 -0.6663
  114MOL   H28747973   1.108   0.772   6.225 -0.8495  0.5119 -0.1918
  114MOL   H28847974   1.013   0.766   6.373  0.1684 -0.3458 -0.0212
  114MOL   H28947975   1.192   0.792   6.382  0.5049 -0.3646 -0.0999
  114MOL   H29047976   1.253   0.605   6.157 -3.2042 -1.0986 -0.9639
  114MOL   H29147977   1.278   0.446   6.246  0.3289  0.0908  0.6549
  114MOL   H29247978   1.354   0.584   6.299 -0.2300  1.8212 -0.1000
  114MOL   H29347979   0.998   0.424   6.223  1.0588 -1.1268 -0.0143
  114MOL   H29447980   1.010   0.570   6.147  1.4251 -1.1180 -0.0952
  114MOL   H29547981   0.912   0.555   6.290  0.1591 -1.0994  0.1535
  114MOL   C29647982   1.199   0.393   6.665  0.4305  0.2071  0.0094
  114MOL   C29747983   1.334   0.460   6.701  0.9055  0.3821  0.1204
  114MOL   C29847984   1.448   0.373   6.647  0.2746  0.1796 -0.8551
  114MOL   C29947985   1.586   0.428   6.618 -0.6099  0.5245 -0.1697
  114MOL   C30047986   1.671   0.451   6.748  0.1317 -0.2732  0.7850
  114MOL   C30147987   1.683   0.324   6.552 -0.7357 -0.2776  0.3266
  114MOL   C30247988   1.572   0.554   6.538  0.9446 -0.2713 -0.4769
  114MOL   H30347989   1.213   0.286   6.685 -2.8298 -0.8847 -3.0261
  114MOL   H30447990   1.116   0.421   6.730  0.1030  1.7049 -1.0279
  114MOL   H30547991   1.332   0.561   6.659 -0.3144  1.6314  3.0055
  114MOL   H30647992   1.416   0.349   6.546 -3.0132  0.0900  0.1666
  114MOL   H30747993   1.459   0.275   6.694  0.1604 -0.0372 -1.2852
  114MOL   H30847994   1.646   0.379   6.827 -0.1284  1.0605  1.9526
  114MOL   H30947995   1.774   0.480   6.730 -0.4758  1.3923 -0.1479
  114MOL   H31047996   1.638   0.546   6.789  1.7033  1.3401 -1.5779
  114MOL   H31147997   1.666   0.275   6.456  2.0957 -1.3476  0.3075
  114MOL   H31247998   1.775   0.366   6.512 -1.3165  0.8932  0.1991
  114MOL   H31347999   1.712   0.238   6.612  2.5545 -0.0881 -0.8794
  114MOL   H31448000   1.504   0.546   6.453  0.4988 -1.7208  0.0155
  114MOL   H31548001   1.530   0.625   6.609 -1.6872 -0.5346 -1.7037
  114MOL   H31648002   1.673   0.584   6.509  1.3482 -0.5787  0.5697
  114MOL   C31748003   1.338   0.488   6.855  0.0952 -0.1358 -0.4977
  114MOL   C31848004   1.335   0.639   6.904  0.5764  0.0271 -0.1061
  114MOL   C31948005   1.204   0.695   6.858  0.4236 -0.5759  0.3852
  114MOL   C32048006   1.182   0.850   6.833  0.3041 -0.2183 -0.1388
  114MOL   C32148007   1.180   0.934   6.961 -0.0598  0.1720 -0.6789
  114MOL   C32248008   1.047   0.872   6.763 -0.0812  0.1135  0.2737
  114MOL   C32348009   1.294   0.909   6.745  1.1258 -0.2691  1.2260
  114MOL   H32448010   1.258   0.439   6.910  0.7812 -1.1270 -0.3719
  114MOL   H32548011   1.436   0.452   6.886  0.6830  1.9464  0.1613
  114MOL   H32648012   1.411   0.695   6.849 -0.7744  1.5844 -0.3992
  114MOL   H32748013   1.116   0.649   6.903  0.4094 -0.1913  0.7580
  114MOL   H32848014   1.188   0.648   6.761  0.2703  0.1336  0.0611
  114MOL   H32948015   1.108   0.900   7.036  0.1829 -1.4809 -1.1665
  114MOL   H33048016   1.163   1.039   6.936  1.5619  0.8499  0.9204
  114MOL   H33148017   1.280   0.926   7.003 -0.4490  0.3817  0.2957
  114MOL   H33248018   1.034   0.978   6.745 -0.5020 -0.2223 -1.4039
  114MOL   H33348019   1.043   0.832   6.662  1.3672 -0.3091  0.3736
  114MOL   H33448020   0.962   0.829   6.816 -0.6002  2.8158  1.7404
  114MOL   H33548021   1.392   0.913   6.791  2.0329  0.5932 -0.7131
  114MOL   H33648022   1.263   1.011   6.719  1.2238 -0.7303 -0.7769
  114MOL   H33748023   1.302   0.854   6.651  1.0969  0.7257  0.6352
  114MOL   C33848024   1.367   0.654   7.051  0.0553  0.5740  0.0566
  114MOL   C33948025   1.511   0.681   7.083  0.0947 -0.4943 -0.1462
  114MOL   C34048026   1.544   0.648   7.233  0.0513 -0.1568  0.4227
  114MOL   C34148027   1.584   0.508   7.280  0.5911 -0.5219 -0.3497
  114MOL   C34248028   1.698   0.453   7.196 -0.3936  0.8325 -0.5871
  114MOL   C34348029   1.629   0.503   7.422  0.0326 -0.3789  0.7183
  114MOL   C34448030   1.468   0.406   7.256  0.2969  0.3691 -1.0964
  114MOL   H34548031   1.319   0.569   7.098 -0.7980  0.8254 -0.3576
  114MOL   H34648032   1.304   0.736   7.086 -1.2833 -0.1340 -0.6794
  114MOL   H34748033   1.576   0.634   7.009  0.5335  0.9918 -0.7109
  114MOL   H34848034   1.465   0.686   7.298 -1.2387  0.2453 -1.3711
  114MOL   H34948035   1.631   0.707   7.264 -1.0357  1.7073  0.0240
  114MOL   H35048036   1.793   0.507   7.197  0.6076 -0.8395  2.0942
  114MOL   H35148037   1.727   0.355   7.234 -1.7632  0.6387 -0.0340
  114MOL   H35248038   1.673   0.444   7.091 -0.5476 -0.6814 -0.4275
  114MOL   H35348039   1.555   0.538   7.494 -2.6551 -1.8959 -1.2269
  114MOL   H35448040   1.667   0.406   7.453 -0.1283 -0.5975  0.2431
  114MOL   H35548041   1.707   0.578   7.433  0.6409 -0.9786  0.5291
  114MOL   H35648042   1.374   0.431   7.306  0.0506 -0.7736 -0.9546
  114MOL   H35748043   1.441   0.392   7.151  1.0235 -1.0780 -1.1066
  114MOL   H35848044   1.497   0.304   7.282  0.5610  0.6642 -0.2037
  114MOL   C35948045   1.546   0.828   7.047  0.0051  0.0948  0.1463
  114MOL   C36048046   1.699   0.873   7.051  0.3075 -0.0246  0.2804
  114MOL   C36148047   1.700   1.030   7.064  0.6736 -0.5648  0.4186
  114MOL   C36248048   1.696   1.089   7.206 -0.2844  0.8507 -1.1113
  114MOL   C36348049   1.582   1.044   7.291  0.0069 -0.1976 -0.3434
  114MOL   C36448050   1.676   1.235   7.181 -1.0707 -0.5085 -0.2931
  114MOL   C36548051   1.826   1.065   7.284  0.1135 -0.0363  0.4121
  114MOL   H36648052   1.487   0.886   7.118  0.9193  0.4557  0.6302
  114MOL   H36748053   1.509   0.850   6.947  0.2624  2.7156  0.5734
  114MOL   H36848054   1.754   0.825   7.131  0.5707  1.0471  0.7486
  114MOL   H36948055   1.796   1.062   7.023 -0.0943  1.3345  0.0405
  114MOL   H37048056   1.630   1.073   6.992  3.4204  1.8673 -0.9139
  114MOL   H37148057   1.581   0.936   7.311  1.4774 -0.2613 -0.5640
  114MOL   H37248058   1.574   1.091   7.388  2.3763 -1.6341  0.6129
  114MOL   H37348059   1.488   1.076   7.246  0.2216 -0.3451 -0.9075
  114MOL   H37448060   1.650   1.298   7.266 -2.3676  3.2967 -3.3004
  114MOL   H37548061   1.594   1.259   7.112  0.1263  0.4655 -1.3963
  114MOL   H37648062   1.766   1.267   7.128  0.1211  0.4368  2.2511
  114MOL   H37748063   1.913   1.093   7.224  0.3411 -2.2470 -0.3357
  114MOL   H37848064   1.827   0.963   7.322 -4.2558 -0.0412  0.7133
  114MOL   H37948065   1.822   1.139   7.364  0.3107 -0.6670  1.0078
  114MOL   C38048066   1.774   0.820   6.925  0.0372  0.1971 -0.2101
  114MOL   C38148067   1.927   0.827   6.909  0.5392 -0.8934 -0.2205
  114MOL   C38248068   1.966   0.819   6.760  0.3928 -0.0147  0.2634
  114MOL   C38348069   1.956   0.947   6.663 -0.5469  0.2797  0.1918
  114MOL   C38448070   2.008   0.904   6.521  0.6404 -0.1196 -0.1519
  114MOL   C38548071   2.062   1.057   6.716  0.3201 -0.0621 -0.3812
  114MOL   C38648072   1.813   1.003   6.647  0.2248  0.2077 -0.7076
  114MOL   H38748073   1.724   0.858   6.836 -1.0964  1.7371  1.0573
  114MOL   H38848074   1.758   0.712   6.919 -2.7098  0.3631  2.7942
  114MOL   H38948075   1.956   0.924   6.949 -0.9572 -0.5337  0.0225
  114MOL   H39048076   2.072   0.796   6.754 -0.3827 -4.0371 -0.0446
  114MOL   H39148077   1.901   0.744   6.715 -1.6623  2.0581 -0.3057
  114MOL   H39248078   2.011   0.976   6.439  1.4931  0.0996  0.0686
  114MOL   H39348079   2.108   0.861   6.529  0.8508  0.4627  0.4377
  114MOL   H39448080   1.943   0.827   6.479 -1.1833  2.6029 -2.5212
  114MOL   H39548081   2.168   1.033   6.717  0.8642  2.1739 -0.2020
  114MOL   H39648082   2.035   1.080   6.820  0.7090  1.5267 -0.6229
  114MOL   H39748083   2.049   1.150   6.660  0.5276  1.3435  1.8230
  114MOL   H39848084   1.758   0.912   6.622 -3.4118  1.7769  1.1820
  114MOL   H39948085   1.816   1.072   6.562  0.1073  1.7613  0.5278
  114MOL   H40048086   1.773   1.056   6.733 -0.4547 -1.1235 -0.1983
  114MOL   C40148087   1.997   0.721   6.995 -0.3435  0.4655  0.0444
  114MOL   C40248088   2.137   0.759   7.059 -0.8248 -0.4005  0.0785
  114MOL   C40348089   2.184   0.643   7.155 -0.4425 -0.5743 -0.0314
  114MOL   C40448090   2.295   0.682   7.256 -0.6482 -0.6600  0.1364
  114MOL   C40548091   2.237   0.776   7.368 -0.0429  0.2403 -0.7560
  114MOL   C40648092   2.418   0.741   7.182 -0.1327 -0.3184  0.0304
  114MOL   C40748093   2.339   0.554   7.332  0.0320 -0.3194 -0.0611
  114MOL   H40848094   1.922   0.691   7.068  0.9989  1.4723  1.8778
  114MOL   H40948095   2.014   0.628   6.942  0.6305 -0.0347  1.2164
  114MOL   H41048096   2.214   0.782   6.985  1.7018 -3.5281  1.6260
  114MOL   H41148097   2.224   0.562   7.094 -0.4309 -0.1323 -0.6097
  114MOL   H41248098   2.097   0.598   7.202  0.0504 -0.0709  1.3827
  114MOL   H41348099   2.128   0.781   7.359  0.0171  1.2318 -1.0173
  114MOL   H41448100   2.281   0.875   7.356  1.1131 -0.3714 -1.5564
  114MOL   H41548101   2.257   0.752   7.473  2.0590  0.0842 -1.1693
  114MOL   H41648102   2.498   0.772   7.249 -1.8541  1.5089  1.2765
  114MOL   H41748103   2.381   0.829   7.131 -1.4254 -1.1415 -0.4881
  114MOL   H41848104   2.451   0.675   7.102 -2.0578  0.7704 -1.6911
  114MOL   H41948105   2.263   0.501   7.388  1.1803 -2.6665 -0.6223
  114MOL   H42048106   2.385   0.481   7.265  0.7715 -0.2197  0.3306
  114MOL   H42148107   2.419   0.584   7.400  1.6162  0.5562 -2.2300
  114MOL   H42248108   2.125   0.845   7.124 -1.1256  0.4447 -1.0710
  115MOL     C148109   2.777   7.318   3.874  0.5758  0.2025  0.4981
  115MOL     C248110   2.851   7.329   3.739 -0.2949  0.6017  0.1624
  115MOL     C348111   2.811   7.211   3.637  0.2261 -0.1401  0.0213
  115MOL     C448112   2.719   7.250   3.517  0.1826  0.0598  0.3659
  115MOL     C548113   2.786   7.334   3.413  0.2906 -0.0424  0.1103
  115MOL     C648114   2.670   7.125   3.437  0.4960  0.7436 -0.1059
  115MOL     C748115   2.593   7.331   3.568  0.1135 -0.2438 -0.2403
  115MOL     H848116   2.782   7.408   3.935 -2.4473  0.3572  0.5952
  115MOL     H948117   2.673   7.312   3.843  0.7182  0.7613 -0.1171
  115MOL    H1048118   2.832   7.426   3.694  0.2671  0.7346  0.2059
  115MOL    H1148119   2.762   7.127   3.687  1.2510 -0.9385 -0.2997
  115MOL    H1248120   2.899   7.158   3.600  0.0732 -1.6036  1.6885
  115MOL    H1348121   2.855   7.270   3.359  0.5289  0.3979 -0.1147
  115MOL    H1448122   2.851   7.415   3.448 -0.6409 -0.1603  2.1936
  115MOL    H1548123   2.724   7.385   3.340 -0.7215  0.9243  1.6077
  115MOL    H1648124   2.622   7.046   3.495  0.6117 -0.3847 -1.5261
  115MOL    H1748125   2.605   7.157   3.355 -1.7483  1.7641  1.9894
  115MOL    H1848126   2.753   7.078   3.386  0.2269 -1.3561  1.3176
  115MOL    H1948127   2.550   7.281   3.655 -1.4042 -0.1106 -0.9008
  115MOL    H2048128   2.510   7.342   3.499  0.9109  0.6089 -1.0956
  115MOL    H2148129   2.628   7.426   3.610 -0.6529 -0.1351  0.1510
  115MOL    H2248130   2.807   7.223   3.918  1.5832  0.8599  1.2507
  115MOL    C2348131   3.002   7.329   3.771  0.3348 -0.8229 -0.0585
  115MOL    C2448132   3.067   7.448   3.840  0.0380 -0.3358 -0.0599
  115MOL    C2548133   3.111   7.559   3.735  0.6657  0.5758  0.4731
  115MOL    C2648134   3.063   7.708   3.752  0.0177  0.4887  0.5892
  115MOL    C2748135   2.916   7.738   3.781  0.0417 -0.2654  0.0937
  115MOL    C2848136   3.150   7.760   3.867 -0.8757 -0.0027 -0.1644
  115MOL    C2948137   3.099   0.020   3.625  0.1904  0.3063 -0.5314
  115MOL    H3048138   3.027   7.242   3.832  4.5547  0.2300 -0.1361
  115MOL    H3148139   3.052   7.311   3.675  1.7508 -3.9808  1.2050
  115MOL    H3248140   2.995   7.494   3.907 -1.3230 -1.9146 -0.4009
  115MOL    H3348141   3.060   7.531   3.642  1.2260 -0.3695  0.4423
  115MOL    H3448142   3.218   7.551   3.717  0.5964  0.4063  0.1192
  115MOL    H3548143   2.851   7.695   3.705 -1.2733 -0.9621  1.5865
  115MOL    H3648144   2.880   7.704   3.878  2.2639 -0.1856  0.9872
  115MOL    H3748145   2.906   0.079   3.764 -1.6259  0.1917  3.6730
  115MOL    H3848146   3.250   7.741   3.828 -1.1505 -0.0085 -0.8735
  115MOL    H3948147   3.131   0.097   3.897  2.2602  1.1815 -1.9830
  115MOL    H4048148   3.128   7.705   3.959 -0.6158  1.3764  0.7253
  115MOL    H4148149   3.198   7.753   3.592 -0.1396 -0.1058 -1.1195
  115MOL    H4248150   3.103   0.127   3.645  0.1885  0.7383 -2.7285
  115MOL    H4348151   3.026   7.766   3.546  1.6525 -3.3739 -1.0573
  115MOL    C4448152   3.192   7.405   3.926  0.3724  0.3540  0.4870
  115MOL    C4548153   3.147   7.327   4.053  0.6072  0.8517  0.4103
  115MOL    C4648154   3.111   7.429   4.164  0.1076  0.0093 -0.5399
  115MOL    C4748155   3.002   7.400   4.280 -0.0170  0.0292  0.3414
  115MOL    C4848156   2.863   7.349   4.217  0.2966  0.2479  0.0612
  115MOL    C4948157   2.966   7.527   4.346 -0.2921 -0.2455 -0.1785
  115MOL    C5048158   3.055   7.303   4.388 -0.5357  0.9083 -0.0144
  115MOL    H5148159   3.256   7.338   3.869 -0.4297  1.2026 -1.5004
  115MOL    H5248160   3.260   7.488   3.944 -1.1912  2.6128 -3.3124
  115MOL    H5348161   3.059   7.266   4.032  2.2165 -1.8048  1.1056
  115MOL    H5448162   3.065   7.517   4.119  0.9986  0.9374  0.3401
  115MOL    H5548163   3.200   7.463   4.216  0.2690  0.7315 -1.2825
  115MOL    H5648164   2.792   7.338   4.298  1.5245  0.7129  1.2198
  115MOL    H5748165   2.875   7.246   4.182  2.0050  0.1211  0.9413
  115MOL    H5848166   2.817   7.419   4.147  0.4218 -0.7495 -1.0464
  115MOL    H5948167   3.061   7.561   4.386 -0.9001 -2.2680  3.2187
  115MOL    H6048168   2.929   7.610   4.287 -0.9240 -1.4918 -1.5656
  115MOL    H6148169   2.906   7.519   4.437  0.0188  2.5351  0.3148
  115MOL    H6248170   3.077   7.208   4.340  0.8232  1.9361 -1.4697
  115MOL    H6348171   3.145   7.337   4.440 -0.1801  2.0963 -1.3737
  115MOL    H6448172   2.981   7.278   4.464 -0.2921  1.0180  0.2640
  115MOL    C6548173   3.261   7.234   4.092 -0.5788 -0.0917  0.5988
  115MOL    C6648174   3.283   7.100   4.003  0.5749  0.1319 -0.5719
  115MOL    C6748175   3.168   7.001   4.043 -0.9287 -0.1504 -0.1886
  115MOL    C6848176   3.124   6.892   3.943  0.2497  0.2639 -0.1261
  115MOL    C6948177   3.216   6.765   3.958  0.1031  0.0218 -0.2226
  115MOL    C7048178   2.975   6.857   3.975  1.1996 -0.3378  0.3234
  115MOL    C7148179   3.117   6.929   3.794 -0.7772  0.5370 -0.3982
  115MOL    H7248180   3.360   7.280   4.088 -1.9726  3.1019  1.3031
  115MOL    H7348181   3.239   7.201   4.193 -2.0114 -0.9402  0.0200
  115MOL    H7448182   3.267   7.120   3.898 -0.6816 -0.0743 -0.4179
  115MOL    H7548183   3.083   7.069   4.054  1.1636  2.4167  0.4651
  115MOL    H7648184   3.185   6.961   4.143 -1.7054 -1.4472 -0.5509
  115MOL    H7748185   3.317   6.781   3.919  0.4544  0.2086  0.7550
  115MOL    H7848186   3.238   6.752   4.064  1.7507 -2.3264 -0.7946
  115MOL    H7948187   3.176   6.674   3.913 -0.4843 -0.6685  1.6466
  115MOL    H8048188   2.947   6.766   3.923  3.4406 -0.7809 -0.1580
  115MOL    H8148189   2.912   6.940   3.940  0.9076  0.5090  2.7574
  115MOL    H8248190   2.973   6.846   4.083  1.9842  0.5699  0.4359
  115MOL    H8348191   3.067   6.848   3.742 -1.6654 -0.5186  2.0430
  115MOL    H8448192   3.220   6.936   3.760 -1.5132  0.1204 -2.8744
  115MOL    H8548193   3.061   7.022   3.782  0.1335  1.3208  1.3063
  115MOL    C8648194   3.420   7.045   4.035 -0.1330 -0.0688  0.2415
  115MOL    C8748195   3.538   7.100   3.953  0.1881 -0.4776 -0.2995
  115MOL    C8848196   3.542   7.054   3.799 -0.4485 -0.2611  0.0485
  115MOL    C8948197   3.574   7.164   3.696  0.5059  0.3425  0.4549
  115MOL    C9048198   3.532   7.107   3.560  0.3579 -0.7524  0.5389
  115MOL    C9148199   3.725   7.200   3.693  0.3762 -0.5365  0.7590
  115MOL    C9248200   3.494   7.296   3.719  0.4264 -0.1335  0.5137
  115MOL    H9348201   3.424   6.936   4.027  2.4997  0.0896 -1.1453
  115MOL    H9448202   3.446   7.061   4.139 -1.7440 -1.0227  0.8059
  115MOL    H9548203   3.526   7.209   3.958  0.1710 -0.5491  1.9337
  115MOL    H9648204   3.443   7.010   3.786 -1.5441  1.9549  0.5609
  115MOL    H9748205   3.611   6.971   3.786 -1.7407 -1.2613 -0.6416
  115MOL    H9848206   3.429   7.069   3.561  0.3545 -0.7393  0.7457
  115MOL    H9948207   3.604   7.037   3.517 -0.0581 -0.0170 -1.3804
  115MOL   H10048208   3.523   7.179   3.479  0.6070 -1.6045 -0.2506
  115MOL   H10148209   3.791   7.113   3.698 -0.3237 -1.1807 -0.8542
  115MOL   H10248210   3.750   7.262   3.608 -2.3109  2.1836  1.8610
  115MOL   H10348211   3.736   7.260   3.783 -0.0866  0.0149  0.4512
  115MOL   H10448212   3.514   7.370   3.642 -3.9604  0.5760 -0.0688
  115MOL   H10548213   3.386   7.281   3.722  0.5688 -2.1806 -2.5860
  115MOL   H10648214   3.526   7.348   3.809  0.0667 -0.1598  0.6574
  115MOL   C10748215   3.676   7.077   4.028  0.6912 -0.0543  0.6767
  115MOL   C10848216   3.716   6.922   4.042  1.4137  0.1002 -0.6228
  115MOL   C10948217   3.795   6.857   3.922  0.6809 -0.0876 -0.4370
  115MOL   C11048218   3.757   6.713   3.870 -0.0489  0.9161 -0.6204
  115MOL   C11148219   3.861   6.666   3.769  0.9282  0.1140  0.4798
  115MOL   C11248220   3.615   6.698   3.809  0.0424 -0.7391 -0.4921
  115MOL   C11348221   3.777   6.617   3.996  0.5715  0.5382  0.0688
  115MOL   H11448222   3.671   7.127   4.125  1.2491  1.9854 -0.3324
  115MOL   H11548223   3.755   7.124   3.970  1.4459  0.4893  2.1322
  115MOL   H11648224   3.624   6.863   4.049  0.5842  1.4432  0.0123
  115MOL   H11748225   3.798   6.928   3.839  0.5875 -0.5285 -0.8191
  115MOL   H11848226   3.900   6.860   3.951  0.6244  0.9529 -0.3061
  115MOL   H11948227   3.962   6.671   3.807  0.6410  0.3419  1.2229
  115MOL   H12048228   3.841   6.563   3.737 -1.7488  0.7324 -0.0109
  115MOL   H12148229   3.867   6.725   3.678 -0.3959  1.7224  1.4100
  115MOL   H12248230   3.601   6.595   3.776  0.3354 -1.4299  1.4441
  115MOL   H12348231   3.601   6.766   3.726 -0.8020 -0.4059 -0.0772
  115MOL   H12448232   3.535   6.717   3.880  1.1175  1.5323  0.1368
  115MOL   H12548233   3.709   6.634   4.079  1.0408  1.6303  0.2337
  115MOL   H12648234   3.879   6.622   4.034 -0.1245 -2.9228  2.6493
  115MOL   H12748235   3.761   6.513   3.965 -0.7611  0.4194  1.1072
  115MOL   C12848236   3.781   6.904   4.182  0.0362 -0.0800 -0.8903
  115MOL   C12948237   3.702   6.886   4.315  0.6923 -0.3247  0.2683
  115MOL   C13048238   3.598   6.774   4.327  0.4221  0.9576 -0.0130
  115MOL   C13148239   3.477   6.767   4.432 -0.8535 -1.2276 -0.1709
  115MOL   C13248240   3.384   6.653   4.389  0.3574  0.3061  0.0675
  115MOL   C13348241   3.397   6.898   4.426  0.5410  0.2761 -0.7729
  115MOL   C13448242   3.523   6.739   4.582  0.1335  0.4473 -0.3511
  115MOL   H13548243   3.843   6.993   4.197 -1.3235  0.7942 -0.3386
  115MOL   H13648244   3.849   6.819   4.186  0.9659  0.7001  0.4849
  115MOL   H13748245   3.642   6.977   4.317  0.4757 -0.4733  0.8263
  115MOL   H13848246   3.545   6.788   4.233 -1.1309 -1.0846  0.5378
  115MOL   H13948247   3.638   6.674   4.313  0.5565  1.2027 -1.4671
  115MOL   H14048248   3.363   6.644   4.283 -0.3951 -0.1504  0.2462
  115MOL   H14148249   3.282   6.652   4.429  0.5988 -0.9065  0.7084
  115MOL   H14248250   3.431   6.558   4.415  0.4659  0.3835  0.1533
  115MOL   H14348251   3.315   6.892   4.498 -0.4766 -0.9923 -2.0211
  115MOL   H14448252   3.367   6.946   4.333  0.7214  2.3174  0.2069
  115MOL   H14548253   3.449   6.979   4.476 -0.8658  2.0462 -2.1122
  115MOL   H14648254   3.577   6.819   4.633  0.7993 -1.3736  1.9142
  115MOL   H14748255   3.445   6.710   4.652  1.2462 -4.6650 -1.0509
  115MOL   H14848256   3.588   6.652   4.585  0.3672  0.6161 -0.4666
  115MOL   C14948257   3.794   6.880   4.439 -0.5855  0.0366 -0.2858
  115MOL   C15048258   3.873   7.019   4.472  0.1567 -0.6609  0.0025
  115MOL   C15148259   3.775   7.109   4.560 -0.3339  0.3536  0.7203
  115MOL   C15248260   3.765   7.262   4.523 -0.8662 -0.0809 -0.4261
  115MOL   C15348261   3.701   7.268   4.386  0.4467  0.5121  0.0548
  115MOL   C15448262   3.898   7.335   4.512  0.0398  0.0584 -0.1949
  115MOL   C15548263   3.676   7.327   4.625  0.4934  0.0279  0.1878
  115MOL   H15648264   3.868   6.811   4.399 -0.4772  1.0326 -1.8386
  115MOL   H15748265   3.744   6.847   4.530 -1.6647  0.4014 -0.7279
  115MOL   H15848266   3.897   7.070   4.379 -0.8232 -0.3219 -0.0766
  115MOL   H15948267   3.797   7.094   4.666 -3.3522  0.5909  1.4299
  115MOL   H16048268   3.677   7.066   4.539 -1.0488  2.3663 -0.1737
  115MOL   H16148269   3.749   7.208   4.308  0.5186 -0.0906  0.5634
  115MOL   H16248270   3.603   7.221   4.383 -0.5008  2.4570 -0.1156
  115MOL   H16348271   3.690   7.372   4.353  1.6840  1.7906  3.5184
  115MOL   H16448272   3.945   7.353   4.608 -0.6300  1.4563 -0.1067
  115MOL   H16548273   3.877   7.434   4.469 -0.8679 -0.7157 -1.5782
  115MOL   H16648274   3.963   7.290   4.437  1.2701  2.1790 -0.4634
  115MOL   H16748275   3.596   7.259   4.654  3.1013 -2.4612  1.9211
  115MOL   H16848276   3.707   7.348   4.727 -0.4010  0.6179  0.3374
  115MOL   H16948277   3.644   7.421   4.581  1.0140  0.5238  0.8613
  115MOL   C17048278   4.004   7.003   4.553  0.6380 -0.0265  0.5274
  115MOL   C17148279   4.131   6.942   4.490  0.0886  0.6751  0.1876
  115MOL   C17248280   4.214   6.859   4.591  0.2064 -0.3318  0.6299
  115MOL   C17348281   4.190   6.707   4.598  0.7984  0.0664 -0.4187
  115MOL   C17448282   4.220   6.627   4.466 -0.4535 -0.1042  0.7110
  115MOL   C17548283   4.045   6.678   4.642  0.2833 -0.6046  0.4746
  115MOL   C17648284   4.278   6.643   4.706 -0.2957 -0.0317  0.2230
  115MOL   H17748285   3.966   6.950   4.640  0.4053  1.2204  1.1898
  115MOL   H17848286   4.034   7.096   4.602 -0.2378 -0.4019  1.8017
  115MOL   H17948287   4.102   6.875   4.409  1.1415 -1.1624  1.3156
  115MOL   H18048288   4.322   6.874   4.584 -0.0227 -0.0700 -3.0844
  115MOL   H18148289   4.197   6.904   4.690 -0.9404 -0.7660  0.6354
  115MOL   H18248290   4.158   6.655   4.382  0.9294 -1.8246 -0.9340
  115MOL   H18348291   4.317   6.645   4.422  0.1380 -1.5298  1.3819
  115MOL   H18448292   4.228   6.518   4.469 -1.4065 -0.2169 -0.7345
  115MOL   H18548293   4.021   6.734   4.732 -0.3392  0.2418 -0.2166
  115MOL   H18648294   3.977   6.711   4.564 -0.2295  1.1278  1.6404
  115MOL   H18748295   4.022   6.576   4.673  0.5865 -0.1685  2.2189
  115MOL   H18848296   4.274   6.692   4.803  0.0180 -1.8381  1.1845
  115MOL   H18948297   4.263   6.536   4.718  0.4104 -0.3089 -1.2763
  115MOL   H19048298   4.382   6.655   4.676  0.0120 -3.5562 -0.3278
  115MOL   C19148299   4.200   7.044   4.404 -0.1141  0.2154 -0.2840
  115MOL   C19248300   4.325   7.015   4.323 -0.6074  0.4034 -0.3401
  115MOL   C19348301   4.366   7.151   4.253 -0.1099 -0.0371  0.1216
  115MOL   C19448302   4.460   7.245   4.335 -0.3647  0.2012 -0.1055
  115MOL   C19548303   4.534   7.344   4.233  0.5373 -0.5019 -0.2144
  115MOL   C19648304   4.579   7.175   4.408  0.2812  0.1888 -0.8210
  115MOL   C19748305   4.384   7.337   4.426  0.3806 -0.6513  0.0676
  115MOL   H19848306   4.124   7.089   4.340 -0.4299 -0.6277 -0.5161
  115MOL   H19948307   4.240   7.123   4.467  2.2673 -1.3110  0.1728
  115MOL   H20048308   4.401   6.982   4.394 -0.2910  0.7453 -0.5152
  115MOL   H20148309   4.276   7.202   4.220  0.9713  0.5629 -2.0149
  115MOL   H20248310   4.410   7.134   4.155  0.5210 -0.9271  0.5529
  115MOL   H20348311   4.465   7.409   4.179  0.6157 -1.2904 -1.2868
  115MOL   H20448312   4.613   7.397   4.285  0.6476  1.6265 -2.4687
  115MOL   H20548313   4.587   7.278   4.165  2.9807  0.2002  0.9807
  115MOL   H20648314   4.627   7.105   4.340  0.8000  0.4006 -0.6763
  115MOL   H20748315   4.652   7.246   4.447 -0.3129  0.4832 -0.2295
  115MOL   H20848316   4.545   7.117   4.494  0.4008  1.1607 -0.1131
  115MOL   H20948317   4.446   7.417   4.465 -0.8982  0.1491  0.5061
  115MOL   H21048318   4.304   7.394   4.379  1.5218  0.3843 -0.6412
  115MOL   H21148319   4.350   7.287   4.517 -1.6983 -0.8617 -0.7815
  115MOL   C21248320   4.301   6.897   4.218 -0.4700  0.2267 -0.7459
  115MOL   C21348321   4.422   6.846   4.133  0.7944 -0.1660 -0.7998
  115MOL   C21448322   4.374   6.754   4.018  0.0828 -0.2699 -0.1632
  115MOL   C21548323   4.343   6.820   3.884  0.3298  0.0909 -0.1714
  115MOL   C21648324   4.465   6.850   3.803  0.9236  0.5567 -0.1755
  115MOL   C21748325   4.270   6.716   3.800  0.1969 -0.3819 -0.4287
  115MOL   C21848326   4.250   6.948   3.899 -0.1688  0.5551  0.4077
  115MOL   H21948327   4.268   6.807   4.269  1.0776  0.4406  0.6687
  115MOL   H22048328   4.215   6.913   4.153  0.2152 -0.6417 -1.9089
  115MOL   H22148329   4.464   6.935   4.087 -1.0509  1.8296  1.2609
  115MOL   H22248330   4.292   6.696   4.061  0.3204 -1.3793 -1.1748
  115MOL   H22348331   4.452   6.682   3.993 -2.2299 -2.8832 -0.0747
  115MOL   H22448332   4.520   6.926   3.857  0.2281  1.0454 -0.1521
  115MOL   H22548333   4.433   6.884   3.704 -0.0718 -1.6236 -0.6341
  115MOL   H22648334   4.530   6.764   3.784 -1.7798 -1.6843  0.4201
  115MOL   H22748335   4.321   6.622   3.781  1.4932  0.4160 -0.9536
  115MOL   H22848336   4.176   6.697   3.852 -1.9513  0.9647 -3.6433
  115MOL   H22948337   4.238   6.751   3.702 -0.7131 -1.7098 -0.6092
  115MOL   H23048338   4.300   7.032   3.947  2.3578  0.2625 -1.5996
  115MOL   H23148339   4.155   6.915   3.942  0.6154 -1.9599  0.3117
  115MOL   H23248340   4.210   6.976   3.801 -1.1915  2.2629  1.2866
  115MOL   C23348341   4.534   6.783   4.221  0.1113 -0.1899 -1.1823
  115MOL   C23448342   4.681   6.768   4.162  0.5407 -0.5174  0.8583
  115MOL   C23548343   4.761   6.897   4.192 -0.0916 -0.2715  0.0241
  115MOL   C23648344   4.863   6.952   4.084 -0.3762  0.6199 -0.1865
  115MOL   C23748345   4.901   7.090   4.134 -0.2871  0.1451 -0.3706
  115MOL   C23848346   4.993   6.861   4.094  0.0749 -0.3908  0.1189
  115MOL   C23948347   4.801   6.954   3.945 -0.2173  0.2698  0.5527
  115MOL   H24048348   4.495   6.685   4.251 -2.5548  0.5372 -2.1655
  115MOL   H24148349   4.544   6.833   4.317  1.4438 -1.2605 -0.7426
  115MOL   H24248350   4.668   6.750   4.055 -1.3291  1.2437  0.7701
  115MOL   H24348351   4.686   6.976   4.188 -0.7572 -0.9202 -0.4769
  115MOL   H24448352   4.798   6.896   4.295  0.0212 -1.5187 -0.0254
  115MOL   H24548353   4.812   7.153   4.127  0.5132  1.2976 -0.1097
  115MOL   H24648354   4.975   7.138   4.071  0.1538  2.3922  1.7893
  115MOL   H24748355   4.937   7.102   4.236  2.6242 -1.6217 -1.1435
  115MOL   H24848356   4.987   6.771   4.033 -0.9139 -0.3249  0.1163
  115MOL   H24948357   5.077   6.912   4.047 -0.5306  2.1597  1.7642
  115MOL   H25048358   5.019   6.839   4.197  0.4352  1.5560  0.4605
  115MOL   H25148359   4.876   7.009   3.889 -0.2047 -0.9332 -0.6235
  115MOL   H25248360   4.781   6.854   3.907  0.6387  0.3293 -0.0559
  115MOL   H25348361   4.706   7.008   3.938  0.2520  1.0416 -0.0093
  115MOL   C25448362   4.761   6.654   4.228  0.0289 -0.0369 -0.0220
  115MOL   C25548363   4.707   6.515   4.180 -0.7418 -0.0001  0.9447
  115MOL   C25648364   4.705   6.403   4.289  0.2752 -0.1141  0.4564
  115MOL   C25748365   4.596   6.390   4.389  0.6730  1.2029  0.4702
  115MOL   C25848366   4.451   6.368   4.330  0.0609  0.3183 -0.8652
  115MOL   C25948367   4.594   6.516   4.471  0.4104  0.6394  0.7910
  115MOL   C26048368   4.620   6.274   4.492 -0.2133  0.2662 -0.2132
  115MOL   H26148369   4.763   6.660   4.337 -0.6660 -1.7171  0.0933
  115MOL   H26248370   4.869   6.660   4.210  0.8276  1.7329  4.5134
  115MOL   H26348371   4.605   6.523   4.144 -0.3673 -2.2018 -0.7696
  115MOL   H26448372   4.716   6.304   4.245  0.4439  0.6362 -1.2469
  115MOL   H26548373   4.798   6.425   4.341 -0.0919  0.7960  0.7439
  115MOL   H26648374   4.436   6.269   4.287  1.0194  0.4799 -1.5947
  115MOL   H26748375   4.418   6.437   4.253  0.4087  0.4571 -0.8894
  115MOL   H26848376   4.368   6.372   4.400  1.7078  1.1170  1.1017
  115MOL   H26948377   4.568   6.613   4.430 -1.4796 -0.4342 -0.6403
  115MOL   H27048378   4.689   6.534   4.521  0.1290 -0.2858  1.6719
  115MOL   H27148379   4.516   6.508   4.547  1.1005  0.0452  1.4336
  115MOL   H27248380   4.614   6.174   4.449 -1.1503 -0.8591  2.4137
  115MOL   H27348381   4.710   6.268   4.553 -2.3532 -1.5092  2.9791
  115MOL   H27448382   4.535   6.266   4.561 -1.5586 -1.8215 -2.0461
  115MOL   C27548383   4.797   6.460   4.063  0.9568 -0.0555  0.0314
  115MOL   C27648384   4.740   6.334   3.982 -0.1617  0.0493  1.0073
  115MOL   C27748385   4.665   6.382   3.858 -1.1966 -0.0110 -0.1420
  115MOL   C27848386   4.527   6.322   3.822 -0.2794  1.5475 -0.0447
  115MOL   C27948387   4.423   6.364   3.931  0.2819 -0.5727  0.4339
  115MOL   C28048388   4.475   6.382   3.694  0.1858  0.5864  0.5348
  115MOL   C28148389   4.523   6.165   3.810  0.0671  0.0496 -0.3642
  115MOL   H28248390   4.818   6.534   3.987 -0.0073  0.0491 -0.1421
  115MOL   H28348391   4.895   6.442   4.107  0.6755 -2.2770 -0.1910
  115MOL   H28448392   4.662   6.282   4.038 -0.3205  0.8830  1.5667
  115MOL   H28548393   4.738   6.370   3.778  0.7995  1.3149  1.4110
  115MOL   H28648394   4.647   6.489   3.863 -0.2119  0.0559  2.5701
  115MOL   H28748395   4.321   6.347   3.898  0.4080  0.4643 -0.5343
  115MOL   H28848396   4.442   6.303   4.019  0.0610 -0.5344  0.5073
  115MOL   H28948397   4.431   6.468   3.964 -1.5596 -0.6725  1.2497
  115MOL   H29048398   4.483   6.490   3.696 -0.5479  0.7132 -1.8953
  115MOL   H29148399   4.373   6.363   3.659 -0.0986  1.8815  0.6344
  115MOL   H29248400   4.523   6.335   3.608 -0.9364  0.3294  0.0284
  115MOL   H29348401   4.551   6.120   3.905  0.9198 -0.4951 -0.8674
  115MOL   H29448402   4.596   6.134   3.736 -2.0301 -2.3181 -1.4795
  115MOL   H29548403   4.426   6.144   3.765 -0.3247 -2.5100  1.5946
  115MOL   C29648404   4.855   6.241   3.948  0.1106  0.3415 -0.3660
  115MOL   C29748405   4.912   6.144   4.059  0.0694 -0.2818 -0.1724
  115MOL   C29848406   5.039   6.077   4.006  0.0941 -0.0840 -0.3358
  115MOL   C29948407   5.182   6.140   4.023  0.5114 -0.6089 -0.1554
  115MOL   C30048408   5.209   6.156   4.174 -0.0416 -0.4203  1.4386
  115MOL   C30148409   5.286   6.053   3.957  0.6253  0.4835 -0.3265
  115MOL   C30248410   5.190   6.283   3.964  0.0358  0.1626  0.0714
  115MOL   H30348411   4.938   6.286   3.893  2.5532 -1.0953  1.9806
  115MOL   H30448412   4.811   6.165   3.884  1.8741 -4.4844  3.8152
  115MOL   H30548413   4.930   6.217   4.139  0.8663  1.0583 -1.5392
  115MOL   H30648414   5.033   6.047   3.901  1.9917  0.4918 -0.6415
  115MOL   H30748415   5.042   5.983   4.060  2.2981  0.2007  0.0981
  115MOL   H30848416   5.200   6.062   4.229  1.8099 -1.6729 -0.3295
  115MOL   H30948417   5.315   6.180   4.184  0.5288 -2.2804  0.2487
  115MOL   H31048418   5.148   6.230   4.225 -1.8045 -1.7506  1.3028
  115MOL   H31148419   5.276   5.947   3.982 -0.1533  0.4582 -0.7464
  115MOL   H31248420   5.273   6.055   3.849 -1.4402  1.8636 -0.0641
  115MOL   H31348421   5.379   6.101   3.988 -1.0483  3.2608  0.4806
  115MOL   H31448422   5.291   6.324   3.972  1.6248 -3.0479 -2.1454
  115MOL   H31548423   5.157   6.293   3.861 -0.5601 -0.6445  0.1762
  115MOL   H31648424   5.127   6.353   4.018  0.7495 -0.1748  1.3688
  115MOL   C31748425   4.806   6.036   4.103  0.4927  0.1365  0.3769
  115MOL   C31848426   4.821   5.946   4.227  0.9186 -0.0338  0.3317
  115MOL   C31948427   4.873   6.029   4.354 -0.1154 -0.4742 -0.1861
  115MOL   C32048428   4.929   5.966   4.481 -0.4425 -0.0597  0.1016
  115MOL   C32148429   4.997   5.832   4.439  0.4125  0.0920 -0.2660
  115MOL   C32248430   4.814   5.917   4.574  0.3880 -0.5083  0.1116
  115MOL   C32348431   5.024   6.074   4.547 -0.6101  0.0758  0.4932
  115MOL   H32448432   4.715   6.095   4.118 -1.0261 -1.7328 -1.1028
  115MOL   H32548433   4.765   5.991   4.013  0.6262 -0.2285  0.5015
  115MOL   H32648434   4.899   5.877   4.193 -1.3541 -1.6957 -1.6692
  115MOL   H32748435   4.786   6.091   4.375 -0.4005 -1.1939  0.7611
  115MOL   H32848436   4.949   6.098   4.316 -0.2993 -1.1385 -1.8398
  115MOL   H32948437   5.062   5.835   4.352  3.1524  0.5418  1.7174
  115MOL   H33048438   4.920   5.760   4.412 -0.7685  1.9175 -1.8198
  115MOL   H33148439   5.065   5.803   4.520  1.7963 -0.9297 -1.7557
  115MOL   H33248440   4.765   5.995   4.632  0.5044  0.2023 -0.7399
  115MOL   H33348441   4.727   5.871   4.528 -0.2456  0.3179  0.4727
  115MOL   H33448442   4.863   5.853   4.648  1.3858  0.9615  0.7338
  115MOL   H33548443   4.962   6.149   4.596 -1.7310 -0.7570  0.3656
  115MOL   H33648444   5.098   6.112   4.476  1.9580 -0.6485  2.7136
  115MOL   H33748445   5.077   6.027   4.630 -1.2105  0.4565  1.0942
  115MOL   C33848446   4.683   5.880   4.265  0.0946  0.2636 -0.5920
  115MOL   C33948447   4.597   5.811   4.150 -0.5907  0.3868 -0.2859
  115MOL   C34048448   4.453   5.780   4.201  0.0502  0.7589 -0.5175
  115MOL   C34148449   4.351   5.881   4.146 -0.5896 -0.4570  0.0567
  115MOL   C34248450   4.339   5.875   3.988  0.1086  0.3808  0.0753
  115MOL   C34348451   4.218   5.845   4.204 -0.4427  0.0873  0.0945
  115MOL   C34448452   4.373   6.024   4.197  0.5105 -0.2975  0.0421
  115MOL   H34548453   4.615   5.955   4.306 -0.6683 -0.2405 -0.9288
  115MOL   H34648454   4.697   5.813   4.349  0.9412  0.5952 -0.4571
  115MOL   H34748455   4.598   5.881   4.067 -1.3791  1.3053  0.4771
  115MOL   H34848456   4.447   5.774   4.309  0.0996 -1.5179 -0.6139
  115MOL   H34948457   4.417   5.683   4.169 -0.1845  0.6685  0.0210
  115MOL   H35048458   4.306   5.776   3.957  0.1102  0.0565  1.0870
  115MOL   H35148459   4.256   5.939   3.955 -0.9069  0.1790  2.1521
  115MOL   H35248460   4.429   5.907   3.936  0.2817 -1.3585 -0.7424
  115MOL   H35348461   4.230   5.824   4.311  2.2384 -1.8783 -0.5296
  115MOL   H35448462   4.140   5.920   4.191 -0.3901  0.1411  0.0935
  115MOL   H35548463   4.180   5.759   4.148  3.3327 -0.3084 -1.9728
  115MOL   H35648464   4.299   6.095   4.160  1.9525  1.4206  0.3797
  115MOL   H35748465   4.374   6.032   4.306 -2.3727 -0.9806  0.1556
  115MOL   H35848466   4.475   6.058   4.178  0.1336  1.3663  0.8697
  115MOL   C35948467   4.670   5.680   4.100  0.3116 -0.0294  0.4030
  115MOL   C36048468   4.630   5.616   3.968 -0.4498 -0.1364 -1.1472
  115MOL   C36148469   4.697   5.474   3.942  0.0532 -0.7544  0.1939
  115MOL   C36248470   4.613   5.337   3.943 -0.2474 -0.2198  0.2813
  115MOL   C36348471   4.706   5.209   3.928  0.9772 -0.3397 -0.2859
  115MOL   C36448472   4.509   5.330   3.831  0.1943 -0.0604  0.1022
  115MOL   C36548473   4.541   5.323   4.082 -0.9231 -0.3458  0.0803
  115MOL   H36648474   4.670   5.600   4.175 -0.7333 -1.0163 -0.6194
  115MOL   H36748475   4.775   5.706   4.085  0.2378 -0.1640 -0.3891
  115MOL   H36848476   4.524   5.597   3.985 -0.0858  0.0497  1.5087
  115MOL   H36948477   4.753   5.479   3.849 -0.6802 -1.6121 -0.2973
  115MOL   H37048478   4.775   5.462   4.017 -1.8666 -0.1696  2.3595
  115MOL   H37148479   4.768   5.197   4.018 -0.8109 -0.0943  0.9988
  115MOL   H37248480   4.642   5.123   3.915  0.4226  0.0494 -0.1570
  115MOL   H37348481   4.786   5.223   3.854 -0.9744  0.1846 -2.3401
  115MOL   H37448482   4.469   5.230   3.816  1.5602 -0.1692 -3.5382
  115MOL   H37548483   4.529   5.375   3.733  1.9505  0.2721  0.5826
  115MOL   H37648484   4.434   5.395   3.875  0.0300 -0.0079 -0.2525
  115MOL   H37748485   4.501   5.222   4.075  1.3882 -1.2318 -0.4999
  115MOL   H37848486   4.463   5.399   4.091  2.3198  2.9751  1.6000
  115MOL   H37948487   4.601   5.328   4.172 -0.9706 -1.1786  0.1634
  115MOL   C38048488   4.655   5.717   3.852  0.4138 -0.1250 -1.3746
  115MOL   C38148489   4.620   5.666   3.713  0.0631 -0.0871  0.3745
  115MOL   C38248490   4.695   5.752   3.607 -0.7022  0.5848  0.0085
  115MOL   C38348491   4.847   5.723   3.579  0.8587 -0.2951 -0.5047
  115MOL   C38448492   4.885   5.808   3.452  0.0634 -0.4173 -0.5750
  115MOL   C38548493   4.870   5.582   3.539  0.2334 -0.0343  0.3651
  115MOL   C38648494   4.944   5.769   3.693 -0.2204 -0.2758  0.1471
  115MOL   H38748495   4.758   5.751   3.857  0.1074  0.4945  1.9267
  115MOL   H38848496   4.588   5.800   3.875  1.6575 -0.2538  3.3260
  115MOL   H38948497   4.653   5.562   3.699  0.0945  0.0214 -0.3922
  115MOL   H39048498   4.649   5.720   3.513  1.4781  2.4185 -1.7352
  115MOL   H39148499   4.671   5.857   3.617  1.1480  0.9804  0.4313
  115MOL   H39248500   4.990   5.829   3.433 -0.2861  0.7562 -1.2916
  115MOL   H39348501   4.856   5.760   3.358 -0.5430  0.1421 -0.6831
  115MOL   H39448502   4.835   5.904   3.469  0.6772  0.1422 -1.8461
  115MOL   H39548503   4.782   5.544   3.488  0.1727 -0.6079  0.8844
  115MOL   H39648504   4.888   5.524   3.630  1.0522 -0.0250  0.2123
  115MOL   H39748505   4.958   5.583   3.474 -0.7446 -2.5310 -1.0781
  115MOL   H39848506   5.046   5.767   3.655 -0.1485  1.1753  0.2561
  115MOL   H39948507   4.941   5.691   3.770  0.5523 -1.7758 -1.3039
  115MOL   H40048508   4.933   5.867   3.740 -0.2784 -0.7537  1.1559
  115MOL   C40148509   4.467   5.674   3.704 -0.6878 -0.1567  0.4884
  115MOL   C40248510   4.396   5.597   3.591 -0.4692 -0.4891  0.1063
  115MOL   C40348511   4.252   5.606   3.602 -0.5326 -0.0768 -0.2405
  115MOL   C40448512   4.170   5.536   3.491  0.0416 -0.3124  0.0190
  115MOL   C40548513   4.199   5.387   3.496 -0.3174  0.5130 -0.5752
  115MOL   C40648514   4.212   5.590   3.348 -0.3816  0.0970 -0.0522
  115MOL   C40748515   4.021   5.564   3.515 -0.3000  0.3715  0.1834
  115MOL   H40848516   4.422   5.653   3.801 -1.2872  0.7825  0.4222
  115MOL   H40948517   4.437   5.779   3.696  0.6245  0.3467  1.9657
  115MOL   H41048518   4.434   5.648   3.502 -1.1113 -0.6154 -0.2487
  115MOL   H41148519   4.217   5.707   3.622 -0.2615 -0.0298 -0.0120
  115MOL   H41248520   4.219   5.561   3.696 -2.6646 -1.2122 -1.4815
  115MOL   H41348521   4.137   5.322   3.434 -0.2869 -0.9469  0.8817
  115MOL   H41448522   4.188   5.363   3.602 -0.0816 -2.0297 -1.0991
  115MOL   H41548523   4.303   5.364   3.475 -0.1256  0.8123  0.0484
  115MOL   H41648524   4.228   5.697   3.340  2.8173 -0.0737  2.6365
  115MOL   H41748525   4.147   5.551   3.270 -0.1983 -1.5111  0.5747
  115MOL   H41848526   4.314   5.569   3.316 -0.3648  0.3483 -0.1664
  115MOL   H41948527   4.005   5.669   3.539  0.0300  0.3684  0.4219
  115MOL   H42048528   3.946   5.544   3.437 -1.3059  1.9763  0.7187
  115MOL   H42148529   3.993   5.511   3.606  1.7134  0.3379  0.7917
  115MOL   H42248530   4.437   5.496   3.584  1.8177  0.4229 -0.0080
  116MOL     C148531   0.505   5.765   1.473 -0.6623 -0.3055  0.3172
  116MOL     C248532   0.365   5.799   1.422  0.0009  0.4124  0.4921
  116MOL     C348533   0.377   5.922   1.328 -0.3236 -0.0558 -0.4793
  116MOL     C448534   0.339   5.907   1.179  0.0777  1.1519 -0.0551
  116MOL     C548535   0.344   6.046   1.118 -0.5650  0.4858 -0.2875
  116MOL     C648536   0.441   5.822   1.102 -0.4087 -0.2192 -0.3832
  116MOL     C748537   0.193   5.866   1.166 -0.2732 -0.0588 -0.4260
  116MOL     H848538   0.504   5.673   1.531  3.4860 -0.2927  0.5734
  116MOL     H948539   0.584   5.764   1.398 -0.6276 -0.0417  0.3509
  116MOL    H1048540   0.328   5.720   1.356  0.8782  0.1650  0.2857
  116MOL    H1148541   0.478   5.962   1.334 -1.0646  1.7830  0.1733
  116MOL    H1248542   0.317   6.004   1.368  0.1314 -1.1349  2.5142
  116MOL    H1348543   0.343   6.047   1.009  1.6535 -2.5051 -0.4306
  116MOL    H1448544   0.426   6.109   1.153 -0.0104 -0.8048  0.7896
  116MOL    H1548545   0.258   6.097   1.160 -0.3204 -0.0510  0.8843
  116MOL    H1648546   0.536   5.874   1.102 -1.1635  1.1907 -1.0047
  116MOL    H1748547   0.455   5.723   1.145 -1.3066 -1.5031 -2.9521
  116MOL    H1848548   0.421   5.816   0.995 -1.3873  1.8626 -0.3515
  116MOL    H1948549   0.132   5.938   1.220  0.4320 -0.7974  1.4342
  116MOL    H2048550   0.163   5.773   1.215 -0.9118 -0.3363 -1.3375
  116MOL    H2148551   0.152   5.861   1.065 -3.3614 -1.4039  0.8158
  116MOL    H2248552   0.533   5.842   1.545  2.5117  1.0053 -2.2021
  116MOL    C2348553   0.274   5.825   1.545 -0.3824  0.5649 -0.7548
  116MOL    C2448554   0.218   5.690   1.607  0.2844  0.0035  0.4901
  116MOL    C2548555   0.103   5.649   1.518 -0.4371  0.0105 -0.8659
  116MOL    C2648556   0.076   5.492   1.500  0.3819  0.8046 -0.0945
  116MOL    C2748557   7.728   5.462   1.406  0.2982  0.0597  0.0959
  116MOL    C2848558   0.206   5.428   1.452 -0.2842  0.5365 -0.5426
  116MOL    C2948559   0.030   5.429   1.636 -0.1500 -0.5478  0.5765
  116MOL    H3048560   0.318   5.892   1.619 -2.6958  0.8590  0.3979
  116MOL    H3148561   0.188   5.882   1.513  0.0113  1.7955  0.3462
  116MOL    H3248562   0.301   5.620   1.609 -0.3928 -0.8015  0.4097
  116MOL    H3348563   0.098   5.696   1.420  1.0417 -0.3191 -1.1163
  116MOL    H3448564   0.011   5.691   1.560  0.2081  1.8765 -1.2827
  116MOL    H3548565   7.738   5.356   1.380  0.9520  0.6414 -2.1676
  116MOL    H3648566   7.625   5.462   1.442 -0.0168  0.7739 -0.7880
  116MOL    H3748567   7.723   5.517   1.312 -0.7685  1.3929  0.9087
  116MOL    H3848568   0.188   5.325   1.423 -4.4665  0.7926  0.8473
  116MOL    H3948569   0.254   5.482   1.370 -1.0357  1.6847 -0.2291
  116MOL    H4048570   0.273   5.419   1.537 -2.6017 -1.2218  1.1531
  116MOL    H4148571   7.711   5.481   1.683 -0.3982  0.1979 -0.6876
  116MOL    H4248572   0.113   5.432   1.707 -0.5045  0.7736  0.9472
  116MOL    H4348573   0.014   5.322   1.624  2.8639 -0.9393 -0.3360
  116MOL    C4448574   0.164   5.722   1.750 -0.0596  0.2490 -0.4525
  116MOL    C4548575   0.276   5.755   1.857 -0.4105 -0.7048 -0.5083
  116MOL    C4648576   0.343   5.618   1.900  0.4353 -0.2361  0.2030
  116MOL    C4748577   0.491   5.597   1.919  0.2247 -0.1425 -0.0594
  116MOL    C4848578   0.545   5.698   2.020 -0.4530  0.4072  0.7030
  116MOL    C4948579   0.559   5.626   1.781  0.4191 -0.3663  0.0648
  116MOL    C5048580   0.524   5.450   1.966 -0.5961  0.0702  0.0266
  116MOL    H5148581   0.091   5.802   1.735  0.0027 -0.1655 -3.3966
  116MOL    H5248582   0.093   5.650   1.791 -1.5300  0.8539 -1.8342
  116MOL    H5348583   0.353   5.817   1.810  1.5955 -1.5900  1.4886
  116MOL    H5448584   0.325   5.552   1.815 -0.0585  0.4531 -0.2286
  116MOL    H5548585   0.292   5.578   1.988 -0.1617  1.8329  0.8198
  116MOL    H5648586   0.524   5.795   1.976  0.4305 -1.2933 -3.7044
  116MOL    H5748587   0.652   5.682   2.025 -0.5539 -0.7964 -0.4862
  116MOL    H5848588   0.504   5.692   2.121  0.5361 -1.8299  1.0104
  116MOL    H5948589   0.667   5.615   1.791  0.6480  0.6476 -1.1735
  116MOL    H6048590   0.520   5.565   1.700  0.1067 -0.1533  0.0537
  116MOL    H6148591   0.546   5.733   1.763 -0.4711 -0.3867  0.5603
  116MOL    H6248592   0.457   5.410   2.043 -0.3289  0.7369  0.6068
  116MOL    H6348593   0.521   5.381   1.882 -2.1711  0.6444 -0.4080
  116MOL    H6448594   0.622   5.436   2.012 -0.4004 -2.4484 -1.0564
  116MOL    C6548595   0.217   5.840   1.969  0.8082 -0.4075 -0.4375
  116MOL    C6648596   0.220   5.998   1.942 -0.0976  0.4631  0.5331
  116MOL    C6748597   0.206   6.083   2.073  0.2476 -0.2624  0.0771
  116MOL    C6848598   0.338   6.142   2.137  0.8589 -0.1110  0.1215
  116MOL    C6948599   0.415   6.024   2.204  0.1830  0.3068  0.7945
  116MOL    C7048600   0.429   6.221   2.040 -0.5705  0.0413  0.2705
  116MOL    C7148601   0.291   6.232   2.254 -0.0415 -0.4279  0.2912
  116MOL    H7248602   0.122   5.800   2.003  2.0234 -1.7401  1.5092
  116MOL    H7348603   0.277   5.820   2.058 -2.3537 -2.7114  1.2698
  116MOL    H7448604   0.323   6.002   1.906 -0.6315 -2.8286 -1.6416
  116MOL    H7548605   0.170   6.014   2.149  3.0257 -2.6697 -0.6907
  116MOL    H7648606   0.130   6.161   2.062  0.1696 -0.6034 -2.1977
  116MOL    H7748607   0.359   5.947   2.257 -0.7582 -0.3496 -1.1291
  116MOL    H7848608   0.459   5.975   2.118 -1.3293 -0.5395  0.4781
  116MOL    H7948609   0.502   6.054   2.263  0.0951  0.2543  0.9524
  116MOL    H8048610   0.373   6.305   2.000 -2.3607 -0.9718  0.6028
  116MOL    H8148611   0.469   6.156   1.963  0.6646  1.5363 -0.3735
  116MOL    H8248612   0.519   6.257   2.090  0.8453 -1.4951 -1.1188
  116MOL    H8348613   0.205   6.184   2.302 -2.5418  0.8221 -2.7661
  116MOL    H8448614   0.265   6.336   2.233 -1.7771 -0.5027  1.9503
  116MOL    H8548615   0.376   6.228   2.322  0.5527 -1.5217 -0.5123
  116MOL    C8648616   0.128   6.045   1.836 -0.1579  0.5051  0.0863
  116MOL    C8748617   7.737   6.024   1.845  0.1519 -0.8002  0.3401
  116MOL    C8848618   7.663   6.142   1.778 -0.9395  0.2813 -0.0010
  116MOL    C8948619   7.625   6.161   1.626 -0.6373  0.4286  0.1157
  116MOL    C9048620   7.569   6.305   1.604 -0.4901 -0.2583 -0.0010
  116MOL    C9148621   7.527   6.053   1.584 -0.5864 -0.1244 -0.2128
  116MOL    C9248622   7.747   6.142   1.532  0.6928 -0.0672 -0.2367
  116MOL    H9348623   0.173   6.004   1.746 -1.3699 -1.4028  0.3161
  116MOL    H9448624   0.135   6.151   1.812 -0.8492  0.3449 -0.8299
  116MOL    H9548625   7.707   5.927   1.804 -3.0008 -0.3574  1.5220
  116MOL    H9648626   7.716   6.232   1.810 -0.4030  0.4113 -1.2202
  116MOL    H9748627   7.564   6.163   1.820 -1.7393 -1.6511 -0.8416
  116MOL    H9848628   7.474   6.331   1.650 -0.6062  0.8364 -0.8277
  116MOL    H9948629   7.534   6.300   1.501 -1.5447 -0.9615  0.3852
  116MOL   H10048630   7.636   6.390   1.611 -1.8275  0.6330  2.5822
  116MOL   H10148631   7.445   6.044   1.656  1.3886 -0.2806  2.0682
  116MOL   H10248632   7.496   6.070   1.481 -0.1852  1.0953 -0.1333
  116MOL   H10348633   7.569   5.952   1.586 -0.1652  0.0493 -0.3105
  116MOL   H10448634   0.069   6.201   1.556  0.4295 -0.1424  0.9358
  116MOL   H10548635   0.019   6.040   1.526 -0.0834 -0.4707  1.2997
  116MOL   H10648636   7.721   6.159   1.428  0.9322 -1.2689 -0.5028
  116MOL   C10748637   7.680   6.011   1.989  0.6604  0.1946  0.1194
  116MOL   C10848638   7.526   5.973   2.016 -0.6120 -0.4373  0.0660
  116MOL   C10948639   7.515   5.829   1.967 -0.5659 -0.1635 -0.1059
  116MOL   C11048640   7.373   5.769   1.958  0.0985  0.0576  0.4884
  116MOL   C11148641   7.395   5.629   1.886 -0.3909 -0.0352 -0.3575
  116MOL   C11248642   7.270   5.860   1.879 -0.2367  0.2190  0.4880
  116MOL   C11348643   7.310   5.729   2.101 -0.2433 -0.4756  0.4132
  116MOL   H11448644   7.683   6.115   2.022 -1.1056 -0.1380  1.4480
  116MOL   H11548645   7.748   5.958   2.056  0.3122  2.0996  2.0137
  116MOL   H11648646   7.464   6.044   1.960  2.4782  1.3528 -1.2025
  116MOL   H11748647   7.541   5.832   1.861 -0.7678  0.1897 -0.1503
  116MOL   H11848648   7.597   5.775   2.012 -0.9546  0.5931  1.5366
  116MOL   H11948649   7.461   5.564   1.945  0.6973 -0.5323 -2.0977
  116MOL   H12048650   7.297   5.581   1.877 -0.1031 -1.0960  1.8052
  116MOL   H12148651   7.413   5.628   1.779  2.2464  0.4933  0.0347
  116MOL   H12248652   7.184   5.802   1.845  0.0502  0.7728 -1.2143
  116MOL   H12348653   7.312   5.902   1.788  1.4611 -0.1395  1.0886
  116MOL   H12448654   7.233   5.942   1.941 -1.2664 -1.1617  1.7204
  116MOL   H12548655   7.276   5.820   2.150 -0.7743 -0.3571 -0.1612
  116MOL   H12648656   7.388   5.695   2.169 -0.2067  0.8496  1.0571
  116MOL   H12748657   7.233   5.652   2.096 -0.7480  0.0669 -0.2711
  116MOL   C12848658   7.481   5.998   2.166 -0.3560 -0.0099  0.6700
  116MOL   C12948659   7.531   6.126   2.233 -0.4137 -0.5079  0.3192
  116MOL   C13048660   7.486   6.252   2.149 -0.0072 -0.6246 -0.3125
  116MOL   C13148661   7.554   6.397   2.148 -0.3713 -0.0542 -0.0107
  116MOL   C13248662   7.482   6.478   2.251 -0.4105 -0.1359 -0.3669
  116MOL   C13348663   7.533   6.459   2.011 -0.2324 -0.1102 -0.1637
  116MOL   C13448664   7.708   6.388   2.171 -0.1696  0.2816  1.0285
  116MOL   H13548665   7.518   5.917   2.229 -2.3171 -1.5990 -0.1877
  116MOL   H13648666   7.373   5.996   2.175 -0.6768  2.4739 -1.8557
  116MOL   H13748667   7.640   6.116   2.225 -0.2073  2.3124 -0.8006
  116MOL   H13848668   7.502   6.224   2.045  1.5128 -1.0682  0.0378
  116MOL   H13948669   7.378   6.266   2.161  0.1479  1.2671 -0.9527
  116MOL   H14048670   7.506   6.448   2.353  2.3726  0.9823 -0.6424
  116MOL   H14148671   7.375   6.462   2.256 -0.2087 -1.2401  0.5283
  116MOL   H14248672   7.507   6.584   2.251  1.8422 -0.6361 -1.3858
  116MOL   H14348673   7.582   6.408   1.928  1.1882  1.2535 -0.1660
  116MOL   H14448674   7.569   6.562   2.007  0.8226 -0.4164  1.3011
  116MOL   H14548675   7.427   6.465   1.985  0.1612  0.1457 -1.8096
  116MOL   H14648676   7.759   6.350   2.082 -1.2782  1.4167 -0.1260
  116MOL   H14748677   7.744   6.491   2.178  2.9716 -0.6226 -0.6651
  116MOL   H14848678   7.742   6.343   2.264 -1.2106 -0.8948  0.8567
  116MOL   C14948679   7.488   6.135   2.382 -0.4156  1.1316 -0.0843
  116MOL   C15048680   7.555   6.034   2.477 -1.2002  0.6988  0.4553
  116MOL   C15148681   7.689   6.094   2.531 -0.6738  0.9075 -0.5322
  116MOL   C15248682   0.038   5.996   2.541 -0.3224  0.0055 -0.1339
  116MOL   C15348683   0.016   5.872   2.625  0.4264 -0.1166 -0.0214
  116MOL   C15448684   0.162   6.074   2.588  1.2544  0.0086 -0.3260
  116MOL   C15548685   0.078   5.952   2.402  0.3326 -0.0434  0.1203
  116MOL   H15648686   7.382   6.111   2.389 -0.2411  0.1440 -0.7412
  116MOL   H15748687   7.504   6.237   2.418  1.3831  0.7637  0.2105
  116MOL   H15848688   7.582   5.943   2.423  0.7554  1.9031 -0.6683
  116MOL   H15948689   7.681   6.157   2.620  0.8979  1.2198 -0.6017
  116MOL   H16048690   7.717   6.174   2.463 -1.2061  1.8192  0.2905
  116MOL   H16148691   7.695   5.819   2.586 -0.4575  0.5496  0.9792
  116MOL   H16248692   0.092   5.795   2.617  2.1487  1.7565 -2.4192
  116MOL   H16348693   0.005   5.891   2.732  3.3545 -1.3819  0.5473
  116MOL   H16448694   0.188   6.152   2.517  0.7436  0.9835  0.5464
  116MOL   H16548695   0.241   6.000   2.592 -0.4523 -1.8113  0.7007
  116MOL   H16648696   0.137   6.113   2.686 -0.8623  1.0591 -1.2311
  116MOL   H16748697   0.067   6.031   2.328 -1.5564 -0.0615  0.3582
  116MOL   H16848698   0.182   5.926   2.381  0.3273 -0.1152  0.1841
  116MOL   H16948699   0.034   5.860   2.364  2.2073 -1.1684  0.5964
  116MOL   C17048700   7.460   5.982   2.587 -0.0214  0.0940 -0.1345
  116MOL   C17148701   7.392   6.089   2.669  0.3438 -0.1285 -0.0254
  116MOL   C17248702   7.456   6.100   2.815  0.3491 -0.8274 -0.1218
  116MOL   C17348703   7.459   6.224   2.912 -0.1186 -0.7565  0.3246
  116MOL   C17448704   7.316   6.256   2.942  0.0472 -0.5848  0.4377
  116MOL   C17548705   7.527   6.341   2.854 -1.0891 -0.0782 -0.6406
  116MOL   C17648706   7.536   6.192   3.040 -0.3492 -0.6244 -0.0951
  116MOL   H17748707   7.509   5.911   2.653  0.8749  0.1411 -0.7403
  116MOL   H17848708   7.385   5.928   2.531 -0.3010 -0.0406  0.3637
  116MOL   H17948709   7.424   6.184   2.626 -0.8286 -0.2082 -1.1090
  116MOL   H18048710   7.418   6.022   2.881  0.8230 -0.1229  0.9835
  116MOL   H18148711   7.562   6.074   2.808  0.9643  1.2788  1.0066
  116MOL   H18248712   7.262   6.172   2.987 -1.3409  0.4974  0.8437
  116MOL   H18348713   7.300   6.323   3.027  1.7399  1.2945 -0.6919
  116MOL   H18448714   7.269   6.290   2.850  1.5760 -1.4130 -0.6671
  116MOL   H18548715   7.624   6.310   2.817 -0.4584  2.0404 -0.8476
  116MOL   H18648716   7.468   6.374   2.768 -1.5100  1.2506  0.1403
  116MOL   H18748717   7.541   6.428   2.919 -2.7615 -1.1589  1.2242
  116MOL   H18848718   7.625   6.131   3.021 -0.1884  0.4078 -2.9021
  116MOL   H18948719   7.561   6.280   3.099 -3.2399  0.4016 -0.3202
  116MOL   H19048720   7.481   6.127   3.108 -0.8359 -0.6989 -0.5548
  116MOL   C19148721   7.237   6.088   2.661  0.6675  0.6695 -0.7599
  116MOL   C19248722   7.163   5.956   2.702 -0.4360  0.5523  0.0061
  116MOL   C19348723   7.032   5.925   2.626  0.4662 -0.3453  0.1317
  116MOL   C19448724   7.041   5.855   2.485 -0.0664 -0.0195  0.2388
  116MOL   C19548725   7.094   5.705   2.500 -0.4877 -0.7001  0.2789
  116MOL   C19648726   7.128   5.925   2.381  0.8911 -0.6683  0.3266
  116MOL   C19748727   6.901   5.853   2.436  0.1675 -0.4711 -0.0639
  116MOL   H19848728   7.188   6.170   2.713  1.5174  0.4969  0.3405
  116MOL   H19948729   7.208   6.129   2.565  0.0076  0.1345 -0.7917
  116MOL   H20048730   7.235   5.875   2.686  0.7808  1.5931  0.1783
  116MOL   H20148731   6.974   6.016   2.608 -2.1700 -1.8427  0.7515
  116MOL   H20248732   6.960   5.871   2.687  0.9930 -0.3325  0.7671
  116MOL   H20348733   7.078   5.646   2.409  0.7763  1.7441 -1.6101
  116MOL   H20448734   7.201   5.707   2.523 -0.3286 -2.1156 -0.2653
  116MOL   H20548735   7.057   5.644   2.582  1.4714 -0.8415  1.0840
  116MOL   H20648736   7.109   6.032   2.374  1.7674 -0.5626 -0.5445
  116MOL   H20748737   7.233   5.912   2.406  1.2988  3.1343  0.9411
  116MOL   H20848738   7.099   5.900   2.279  0.5026 -0.2918  0.3415
  116MOL   H20948739   6.831   5.809   2.507  2.0715  0.1422  2.2379
  116MOL   H21048740   6.850   5.949   2.433  1.2700  0.1953  2.2425
  116MOL   H21148741   6.894   5.800   2.341 -1.3630 -1.1215  0.3961
  116MOL   C21248742   7.146   5.939   2.859 -0.1179 -0.4601  0.0672
  116MOL   C21348743   7.149   5.788   2.899  0.2392 -0.0260  0.1082
  116MOL   C21448744   7.083   5.771   3.043  0.4850 -0.1888  0.6157
  116MOL   C21548745   6.930   5.752   3.068  0.5720  0.1699 -0.2339
  116MOL   C21648746   6.904   5.715   3.216 -0.3350  0.0027  0.4273
  116MOL   C21748747   6.854   5.884   3.039 -0.2974 -0.2824 -0.4610
  116MOL   C21848748   6.865   5.637   2.982 -0.1413  0.4577 -0.2609
  116MOL   H21948749   7.221   5.995   2.914 -0.4247 -0.9365  0.9684
  116MOL   H22048750   7.050   5.981   2.889 -1.1654 -1.7228 -1.4228
  116MOL   H22148751   7.125   5.722   2.816  1.2247 -0.2513 -0.0093
  116MOL   H22248752   7.134   5.846   3.103  1.9285  1.1910 -2.2497
  116MOL   H22348753   7.118   5.679   3.091  0.9251  0.2748  1.1906
  116MOL   H22448754   6.939   5.795   3.282  0.9927  1.1243 -1.5826
  116MOL   H22548755   6.953   5.624   3.248 -0.2333 -0.5226 -1.1904
  116MOL   H22648756   6.797   5.698   3.231  0.2137 -1.9876  2.2013
  116MOL   H22748757   6.753   5.891   3.079  0.0383  1.1545  0.1790
  116MOL   H22848758   6.909   5.967   3.084  0.2165 -0.7322 -0.2546
  116MOL   H22948759   6.839   5.913   2.935  0.1375 -1.2370 -0.7972
  116MOL   H23048760   6.930   5.549   2.980  0.2706  0.7318  0.3968
  116MOL   H23148761   6.867   5.678   2.881 -1.1748  1.5494  0.1448
  116MOL   H23248762   6.765   5.611   3.015  0.5343  1.5400  2.9358
  116MOL   C23348763   7.301   5.744   2.913  0.0764 -0.4522 -0.3885
  116MOL   C23448764   7.342   5.594   2.924  1.3659 -0.1440  1.0039
  116MOL   C23548765   7.318   5.507   2.793  0.2335 -0.0007 -0.1649
  116MOL   C23648766   7.266   5.358   2.810  0.7502 -0.6700  0.1623
  116MOL   C23748767   7.108   5.373   2.847 -0.2114  0.4222 -0.3170
  116MOL   C23848768   7.279   5.289   2.670 -0.3227 -0.2857 -0.4313
  116MOL   C23948769   7.333   5.271   2.920  0.1440 -0.2778 -0.6023
  116MOL   H24048770   7.340   5.792   3.003  0.6144 -0.1006 -0.8018
  116MOL   H24148771   7.362   5.784   2.832  2.7405 -0.0119  1.7454
  116MOL   H24248772   7.287   5.546   3.005  0.9139 -1.1124  0.1391
  116MOL   H24348773   7.253   5.560   2.723  1.4545 -0.5015 -1.7017
  116MOL   H24448774   7.409   5.516   2.734  1.0214 -1.9804  0.6951
  116MOL   H24548775   7.060   5.436   2.772 -0.0661  0.6498 -0.2153
  116MOL   H24648776   7.099   5.419   2.945  0.3213  3.3553 -1.5904
  116MOL   H24748777   7.055   5.277   2.851  0.6934 -0.1051 -0.7133
  116MOL   H24848778   7.381   5.256   2.653 -0.7629 -1.5192 -0.7341
  116MOL   H24948779   7.214   5.202   2.664 -0.2032 -0.3254 -1.1900
  116MOL   H25048780   7.247   5.356   2.589 -1.1463  0.8506  0.7979
  116MOL   H25148781   7.279   5.176   2.920 -1.3897  0.5427  1.9168
  116MOL   H25248782   7.435   5.242   2.896  0.6890 -0.1933  1.4919
  116MOL   H25348783   7.333   5.320   3.017 -1.0395 -1.2289 -0.1152
  116MOL   C25448784   7.490   5.584   2.954 -0.0820  0.1437 -0.4148
  116MOL   C25548785   7.542   5.622   3.093 -0.2126  0.4845  0.3920
  116MOL   C25648786   7.692   5.598   3.113 -0.7394 -0.4476 -1.4297
  116MOL   C25748787   0.026   5.697   3.045  1.3609 -0.7200  0.3221
  116MOL   C25848788   7.737   5.838   3.029 -0.1302  0.1810  0.1365
  116MOL   C25948789   0.075   5.649   2.910 -0.2875 -0.4845  0.3595
  116MOL   C26048790   0.153   5.702   3.126 -0.3207  0.2458 -0.6454
  116MOL   H26148791   7.535   5.649   2.880  1.9402 -0.7219 -0.0074
  116MOL   H26248792   7.529   5.484   2.932 -2.5093 -0.5168 -1.8995
  116MOL   H26348793   7.522   5.728   3.104 -0.8342  0.5049 -0.7862
  116MOL   H26448794   7.710   5.608   3.220  1.7031  1.6263 -1.9583
  116MOL   H26548795   7.711   5.493   3.093 -1.4920 -0.7211 -0.7276
  116MOL   H26648796   7.701   5.889   3.118  0.5242  1.3653 -0.2516
  116MOL   H26748797   7.655   5.836   2.958  0.9538 -3.7252 -1.0986
  116MOL   H26848798   0.045   5.900   2.978  2.2472 -3.1814 -0.6774
  116MOL   H26948799   0.010   5.653   2.823 -0.0217  0.7215  0.2111
  116MOL   H27048800   0.104   5.547   2.935  2.1631 -0.1491 -0.9392
  116MOL   H27148801   0.172   5.692   2.885 -0.6470  0.2154  0.1707
  116MOL   H27248802   0.140   5.754   3.222  3.2713  1.3108 -0.6768
  116MOL   H27348803   0.183   5.600   3.149 -0.4635  0.2820 -0.2849
  116MOL   H27448804   0.230   5.760   3.076  1.9015 -2.1933 -0.1142
  116MOL   C27548805   7.454   5.543   3.199 -0.0545 -0.2587  0.3922
  116MOL   C27648806   7.429   5.608   3.335  0.3466  0.2715 -0.9757
  116MOL   C27748807   7.351   5.739   3.324  0.2230  0.1972 -0.2969
  116MOL   C27848808   7.402   5.864   3.392  0.2153 -0.1452 -0.2642
  116MOL   C27948809   7.411   5.846   3.546 -0.2511 -0.0439  0.5030
  116MOL   C28048810   7.544   5.909   3.331 -0.2729  0.1488  0.0617
  116MOL   C28148811   7.302   5.983   3.359  0.1554  0.2587 -0.2327
  116MOL   H28248812   7.358   5.500   3.172 -0.4312  0.2325  0.9321
  116MOL   H28348813   7.515   5.453   3.209  0.6459  0.2530  0.7371
  116MOL   H28448814   7.535   5.628   3.350  0.4772 -1.7094  0.9376
  116MOL   H28548815   7.249   5.710   3.350 -0.0065  0.8019 -0.5185
  116MOL   H28648816   7.336   5.759   3.217 -1.6454 -2.1464 -0.5134
  116MOL   H28748817   7.318   5.803   3.585 -0.5273  1.0475  1.0676
  116MOL   H28848818   7.501   5.807   3.593  0.9315  2.1612  0.1295
  116MOL   H28948819   7.409   5.945   3.591 -3.1982 -0.1476  0.6975
  116MOL   H29048820   7.534   5.923   3.223  1.1185  0.3653 -0.0562
  116MOL   H29148821   7.629   5.841   3.348  1.0506  1.5465 -0.8687
  116MOL   H29248822   7.579   6.007   3.362  0.9330  0.2216 -1.4472
  116MOL   H29348823   7.318   6.004   3.254  0.9983  2.0777  0.2272
  116MOL   H29448824   7.319   6.076   3.413  2.6622 -1.6903  2.5205
  116MOL   H29548825   7.198   5.952   3.369  0.4971 -0.2523  2.2510
  116MOL   C29648826   7.387   5.504   3.450  0.0635 -0.4404 -0.1147
  116MOL   C29748827   7.507   5.417   3.510  0.0072 -0.0531  0.3123
  116MOL   C29848828   7.455   5.280   3.571 -0.8977  0.3631  0.0298
  116MOL   C29948829   7.489   5.149   3.492  0.7752 -0.4595  0.8399
  116MOL   C30048830   7.432   5.030   3.572  0.0208  0.0094  0.3349
  116MOL   C30148831   7.417   5.149   3.360 -0.1665 -0.1981  0.7295
  116MOL   C30248832   7.638   5.132   3.476  0.6528  0.5398 -0.0272
  116MOL   H30348833   7.312   5.433   3.417 -0.9254  0.0530  0.9993
  116MOL   H30448834   7.345   5.561   3.534  2.6520  0.1764  0.8129
  116MOL   H30548835   7.587   5.399   3.437 -1.4525 -3.5431 -0.4881
  116MOL   H30648836   7.348   5.294   3.587 -0.9732  2.9609 -2.3481
  116MOL   H30748837   7.479   5.271   3.677  2.4300  2.6206 -0.4801
  116MOL   H30848838   7.476   5.017   3.671 -1.7432  0.2169  1.1642
  116MOL   H30948839   7.325   5.029   3.591  0.2130 -3.1955  1.5411
  116MOL   H31048840   7.455   4.936   3.522 -0.0455 -0.1993  0.6959
  116MOL   H31148841   7.420   5.054   3.306 -0.7801  0.8307 -1.1813
  116MOL   H31248842   7.314   5.183   3.374 -0.0856 -0.7741  2.8551
  116MOL   H31348843   7.450   5.212   3.278  0.4756 -1.6443 -0.1417
  116MOL   H31448844   7.691   5.145   3.570  0.6348 -1.4189  0.2745
  116MOL   H31548845   7.667   5.043   3.420 -4.0176 -0.3184 -1.3418
  116MOL   H31648846   7.666   5.211   3.406 -2.3242  2.0578  0.3961
  116MOL   C31748847   7.587   5.507   3.617 -0.0538 -0.0732  0.1172
  116MOL   C31848848   7.695   5.440   3.700  0.0693  0.1430  0.6166
  116MOL   C31948849   0.056   5.537   3.708 -0.0160  0.1857  0.0050
  116MOL   C32048850   0.170   5.509   3.603 -0.5316 -0.4067 -0.2569
  116MOL   C32148851   0.125   5.492   3.456  0.8251  0.2703 -0.2830
  116MOL   C32248852   0.255   5.390   3.644  0.5929  0.4240  0.3577
  116MOL   C32348853   0.269   5.627   3.604 -0.1744  0.3886 -0.4261
  116MOL   H32448854   7.628   5.591   3.560  0.7430  1.3852  2.7493
  116MOL   H32548855   7.520   5.567   3.677  0.6275 -0.8560  1.6764
  116MOL   H32648856   7.724   5.342   3.663  0.4757  0.0727  1.1207
  116MOL   H32748857   0.112   5.527   3.801 -0.5900 -1.3113  0.1989
  116MOL   H32848858   0.030   5.642   3.704 -2.2677 -0.2834  1.6532
  116MOL   H32948859   0.202   5.459   3.385 -2.2622 -1.8301 -2.7668
  116MOL   H33048860   0.076   5.583   3.419  0.4622  0.6713  1.1633
  116MOL   H33148861   0.061   5.405   3.453 -0.1768  1.0226 -2.6736
  116MOL   H33248862   0.186   5.306   3.639 -0.0135  1.0237 -1.9928
  116MOL   H33348863   0.345   5.373   3.585 -0.5503 -1.1142 -0.9767
  116MOL   H33448864   0.298   5.394   3.744  1.0260 -1.5028  0.2661
  116MOL   H33548865   0.301   5.650   3.706 -2.4212  3.3982 -0.3346
  116MOL   H33648866   0.214   5.710   3.561 -0.4360 -0.2425 -1.3238
  116MOL   H33748867   0.350   5.593   3.540 -1.2678 -0.6346 -1.2836
  116MOL   C33848868   7.649   5.426   3.847 -0.6393  0.3442 -0.9178
  116MOL   C33948869   7.720   5.322   3.943 -0.2077  0.0201  0.2180
  116MOL   C34048870   7.673   5.176   3.905  0.3533  0.1345 -0.0171
  116MOL   C34148871   7.766   5.053   3.936  0.3102  0.0492 -0.6647
  116MOL   C34248872   0.048   5.058   4.082  0.5033  0.1447 -0.2710
  116MOL   C34348873   7.685   4.925   3.915 -0.7421  0.4411  0.1568
  116MOL   C34448874   0.127   5.051   3.849 -0.0797 -0.1661  0.4728
  116MOL   H34548875   7.544   5.399   3.854 -0.1889 -0.9051  1.6100
  116MOL   H34648876   7.646   5.529   3.883 -0.7585  0.5020 -1.3772
  116MOL   H34748877   0.060   5.337   3.925 -0.6696 -0.3369 -3.2725
  116MOL   H34848878   7.649   5.182   3.799 -2.5409  0.6997  0.6250
  116MOL   H34948879   7.572   5.154   3.941 -0.1222  2.1296 -0.0857
  116MOL   H35048880   0.108   5.148   4.094 -3.8861  2.9609  1.9823
  116MOL   H35148881   7.731   5.061   4.153 -0.5295 -1.3788 -1.3824
  116MOL   H35248882   0.120   4.982   4.112 -0.0151 -0.0053  0.6150
  116MOL   H35348883   7.738   4.830   3.906 -0.1944  0.8350 -0.9142
  116MOL   H35448884   7.618   4.913   4.000 -0.0473 -0.3542  0.6037
  116MOL   H35548885   7.632   4.938   3.821  0.6272  0.1565 -0.6727
  116MOL   H35648886   0.083   5.055   3.749  2.9077 -0.6504 -0.9208
  116MOL   H35748887   0.195   5.136   3.857  1.0849 -1.0853  0.3867
  116MOL   H35848888   0.185   4.959   3.855  0.3908 -0.0107 -1.3954
  116MOL   C35948889   7.685   5.361   4.087  0.7560 -0.3799 -0.2465
  116MOL   C36048890   7.752   5.493   4.130  0.5326 -0.3685 -0.3451
  116MOL   C36148891   0.120   5.454   4.194  0.7289 -0.7795 -0.5981
  116MOL   C36248892   0.208   5.551   4.273  0.1472  0.1684 -0.6394
  116MOL   C36348893   0.212   5.691   4.211  0.3014 -0.1672 -0.6136
  116MOL   C36448894   0.353   5.503   4.289  0.9253 -0.0815 -0.6002
  116MOL   C36548895   0.158   5.568   4.418 -0.7951  0.1991  0.4453
  116MOL   H36648896   7.715   5.280   4.152 -0.4806 -0.9896 -0.4132
  116MOL   H36748897   7.576   5.361   4.090  0.7541  1.2314  0.2054
  116MOL   H36848898   0.005   5.562   4.047 -1.3687 -0.0422 -0.5190
  116MOL   H36948899   0.101   5.363   4.252 -0.5144 -0.4364 -0.4475
  116MOL   H37048900   0.182   5.424   4.110  0.8269 -1.5473 -0.2627
  116MOL   H37148901   0.268   5.767   4.265 -0.5880  0.3768 -0.4405
  116MOL   H37248902   0.268   5.682   4.118  1.6072  1.1153  0.0281
  116MOL   H37348903   0.112   5.730   4.190  0.0547  0.2931  1.3030
  116MOL   H37448904   0.362   5.416   4.354 -1.6912 -1.1717 -1.6588
  116MOL   H37548905   0.414   5.582   4.334  0.6576 -1.3538  2.1188
  116MOL   H37648906   0.408   5.478   4.198  1.2943 -1.1560 -0.0854
  116MOL   H37748907   0.135   5.469   4.457 -0.5510 -0.0722 -0.1040
  116MOL   H37848908   0.069   5.632   4.420 -1.4178 -0.6755  1.6553
  116MOL   H37948909   0.248   5.603   4.469  0.0663 -0.3388 -0.6772
  116MOL   C38048910   7.654   5.580   4.215 -0.4765  0.0298  0.1027
  116MOL   C38148911   7.531   5.644   4.146  0.6321  0.2077 -0.0549
  116MOL   C38248912   7.517   5.793   4.193  0.0236 -0.1509  1.0504
  116MOL   C38348913   7.566   5.900   4.087  0.2589  0.4578 -0.0519
  116MOL   C38448914   7.550   6.040   4.150  0.2219  0.9693  0.2457
  116MOL   C38548915   7.476   5.888   3.959 -0.3659 -0.3598  0.1590
  116MOL   C38648916   7.717   5.883   4.041 -0.1660 -0.0724 -0.7259
  116MOL   H38748917   7.705   5.668   4.255 -0.4015  0.4050 -0.7805
  116MOL   H38848918   7.634   5.517   4.301 -2.0377 -0.0626 -0.3187
  116MOL   H38948919   7.540   5.632   4.038 -1.1303 -2.0945  0.0022
  116MOL   H39048920   7.411   5.810   4.210 -0.7706 -3.1837 -0.6287
  116MOL   H39148921   7.571   5.811   4.286  1.1906  0.3215  0.2962
  116MOL   H39248922   7.443   6.061   4.159 -0.7209 -1.7351 -3.1255
  116MOL   H39348923   7.600   6.043   4.247 -1.3399  1.4493  1.0452
  116MOL   H39448924   7.584   6.124   4.090 -1.7185 -0.0583 -2.4170
  116MOL   H39548925   7.370   5.879   3.983 -0.9582  2.2576 -1.2683
  116MOL   H39648926   7.511   5.814   3.887  2.3388  0.5054  0.5086
  116MOL   H39748927   7.492   5.975   3.896  0.0732  0.1801  1.0013
  116MOL   H39848928   0.014   5.925   4.120 -0.8043  2.1982 -1.3854
  116MOL   H39948929   7.750   5.946   3.958  2.6945  1.8502  1.7346
  116MOL   H40048930   7.755   5.787   4.009 -0.6909 -0.4229 -0.3099
  116MOL   C40148931   7.401   5.572   4.182 -0.4765 -0.0815 -0.4876
  116MOL   C40248932   7.266   5.606   4.102  0.3512  0.8413 -0.2731
  116MOL   C40348933   7.244   5.514   3.987  0.1498  0.3280 -0.3239
  116MOL   C40448934   7.135   5.545   3.879 -0.2880  0.0028 -0.1783
  116MOL   C40548935   7.001   5.567   3.951  0.7156 -0.3755  0.2072
  116MOL   C40648936   7.119   5.422   3.786 -0.3457 -0.4442 -0.1874
  116MOL   C40748937   7.177   5.670   3.798 -0.5371 -0.1409  0.6015
  116MOL   H40848938   7.416   5.465   4.196  0.3083  0.2814  1.6950
  116MOL   H40948939   7.381   5.602   4.285 -0.5390 -0.5814 -0.3537
  116MOL   H41048940   7.186   5.585   4.172 -0.1438  0.9615 -0.8014
  116MOL   H41148941   7.225   5.419   4.038 -1.9524  0.9924  0.1991
  116MOL   H41248942   7.341   5.510   3.938  0.0069  0.0455 -0.5827
  116MOL   H41348943   7.009   5.658   4.010  0.4173 -0.6968  0.7468
  116MOL   H41448944   6.955   5.481   4.001  0.4111 -0.5271 -0.3300
  116MOL   H41548945   6.918   5.600   3.887  2.3472  0.6068 -1.4406
  116MOL   H41648946   7.212   5.411   3.730 -0.8158 -0.7329 -0.9214
  116MOL   H41748947   7.034   5.430   3.719 -0.1200 -1.2452 -0.5769
  116MOL   H41848948   7.118   5.330   3.843  3.0740  0.7748  1.9955
  116MOL   H41948949   7.182   5.762   3.856  1.7890  0.0358  0.1841
  116MOL   H42048950   7.273   5.658   3.747 -0.1731 -0.1377  1.2835
  116MOL   H42148951   7.105   5.672   3.716 -0.3805  2.0371  0.4713
  116MOL   H42248952   7.268   5.712   4.075  0.8682  0.8507 -0.2133
  117MOL     C148953   5.240   6.728   4.274  0.2650 -0.3421  0.6400
  117MOL     C248954   5.361   6.639   4.330  1.3663 -0.1312 -0.0489
  117MOL     C348955   5.334   6.607   4.479  0.3976 -0.2252  0.4576
  117MOL     C448956   5.264   6.475   4.519 -0.2302 -0.2964 -0.4161
  117MOL     C548957   5.330   6.346   4.459 -0.0457 -0.8490 -0.9270
  117MOL     C648958   5.268   6.459   4.677  0.4035 -0.0882  0.0592
  117MOL     C748959   5.130   6.487   4.464 -0.1364 -0.0800 -0.3847
  117MOL     H848960   5.271   6.758   4.174 -0.8422  2.4377  1.0704
  117MOL     H948961   5.147   6.675   4.255  0.2836 -0.3606  0.6017
  117MOL    H1048962   5.363   6.552   4.264  0.4200 -0.6050  0.5359
  117MOL    H1148963   5.284   6.690   4.528 -1.5105  0.4629 -2.5419
  117MOL    H1248964   5.435   6.600   4.520  1.8713 -2.6714 -3.3267
  117MOL    H1348965   5.333   6.351   4.350  1.6287 -0.7836 -0.8929
  117MOL    H1448966   5.278   6.253   4.480  0.2332 -0.5892  1.0520
  117MOL    H1548967   5.433   6.349   4.494 -0.5499 -0.5930  0.5817
  117MOL    H1648968   5.370   6.434   4.708  0.1451  1.9429  2.7588
  117MOL    H1748969   5.246   6.553   4.728 -0.8352 -0.8888  1.0144
  117MOL    H1848970   5.192   6.393   4.717 -2.4671  1.8273 -2.0465
  117MOL    H1948971   5.138   6.500   4.356 -0.2908  2.1752 -0.1319
  117MOL    H2048972   5.087   6.578   4.506 -1.1238 -1.1833  1.0539
  117MOL    H2148973   5.065   6.400   4.477 -0.9534  0.0953 -2.9984
  117MOL    H2248974   5.225   6.825   4.322 -1.3062 -1.7261  3.0839
  117MOL    C2348975   5.483   6.724   4.299  0.2867 -1.3053  0.0076
  117MOL    C2448976   5.626   6.670   4.335  0.3365 -0.0007 -0.0264
  117MOL    C2548977   5.733   6.770   4.287 -0.0504  0.4771 -0.4633
  117MOL    C2648978   5.748   6.913   4.342 -0.4491  1.0106 -0.0212
  117MOL    C2748979   5.883   6.959   4.292 -0.0599 -0.2890  0.1062
  117MOL    C2848980   5.643   7.008   4.284  0.4263  0.1791  0.8551
  117MOL    C2948981   5.744   6.924   4.499 -0.9888 -0.0974  0.2684
  117MOL    H3048982   5.500   6.764   4.200  0.5750  1.3777  1.0918
  117MOL    H3148983   5.456   6.816   4.351 -0.6176 -0.9590 -1.0476
  117MOL    H3248984   5.641   6.666   4.443 -0.4263  0.3609  0.0978
  117MOL    H3348985   5.726   6.780   4.179  2.2193  0.2531 -0.6398
  117MOL    H3448986   5.828   6.720   4.304  0.8119  2.5817  1.0866
  117MOL    H3548987   5.966   6.899   4.331  1.6692  2.9516  1.5422
  117MOL    H3648988   5.890   6.961   4.183  0.8905  1.8159  0.1934
  117MOL    H3748989   5.908   7.058   4.328 -0.9072  0.7909 -2.1379
  117MOL    H3848990   5.616   6.975   4.183 -0.9424 -1.3625  1.7020
  117MOL    H3948991   5.555   7.017   4.348  0.0958  4.3419 -0.0690
  117MOL    H4048992   5.693   7.104   4.284  1.8977 -0.5793  0.7372
  117MOL    H4148993   5.646   6.885   4.526 -0.9369 -0.4287 -0.0098
  117MOL    H4248994   5.734   7.028   4.530  0.5674  0.4212 -0.9366
  117MOL    H4348995   5.830   6.872   4.542 -2.0336 -0.3406  2.0889
  117MOL    C4448996   5.639   6.529   4.286 -0.3283 -0.2671 -0.0581
  117MOL    C4548997   5.777   6.456   4.289  0.1069  0.3630  0.1217
  117MOL    C4648998   5.761   6.306   4.241  0.0188 -0.2364  0.5688
  117MOL    C4748999   5.788   6.282   4.089  0.9267  0.0869 -0.0915
  117MOL    C4849000   5.934   6.295   4.036 -0.1374  0.2522  0.0888
  117MOL    C4949001   5.698   6.367   4.006  0.2694 -0.3551  0.2430
  117MOL    C5049002   5.738   6.140   4.050 -0.2975 -0.2465 -0.0754
  117MOL    H5149003   5.563   6.468   4.335 -0.6316 -0.9730 -1.3849
  117MOL    H5249004   5.605   6.537   4.183 -0.9408 -2.2302 -0.0299
  117MOL    H5349005   5.861   6.503   4.238  1.2152  1.9978  3.3060
  117MOL    H5449006   5.657   6.284   4.265 -0.3869 -0.1255 -1.0209
  117MOL    H5549007   5.807   6.235   4.310 -0.2764  0.8978  1.9372
  117MOL    H5649008   6.003   6.229   4.089  0.3266  2.7153  2.6258
  117MOL    H5749009   5.971   6.397   4.044  0.8042 -0.3297  3.9604
  117MOL    H5849010   5.932   6.271   3.929 -0.9292 -1.8113  0.5443
  117MOL    H5949011   5.700   6.350   3.898  0.3101 -1.1875  0.3732
  117MOL    H6049012   5.593   6.348   4.029  0.3707 -0.8025  0.3298
  117MOL    H6149013   5.712   6.474   4.021 -2.2174  0.0604 -0.0619
  117MOL    H6249014   5.638   6.115   4.085  0.1615 -1.0802  0.6713
  117MOL    H6349015   5.749   6.116   3.944  0.0736 -0.0078 -0.0924
  117MOL    H6449016   5.809   6.071   4.096 -0.7095 -0.2384  0.5850
  117MOL    C6549017   5.822   6.459   4.434 -0.5670 -0.0907 -0.8343
  117MOL    C6649018   5.951   6.377   4.477 -0.7880  0.1690  0.2357
  117MOL    C6749019   5.910   6.250   4.552  1.1849  0.1433 -0.1300
  117MOL    C6849020   6.013   6.133   4.569  0.0434 -0.0459  0.0253
  117MOL    C6949021   6.050   6.081   4.426  0.3241  0.5029 -0.7510
  117MOL    C7049022   6.145   6.153   4.650 -0.4574 -0.0131  0.2260
  117MOL    C7149023   5.935   6.015   4.648 -0.0442  0.5232 -0.2384
  117MOL    H7249024   5.846   6.562   4.458  3.8112 -1.3991  0.9402
  117MOL    H7349025   5.731   6.430   4.485  1.2216 -3.1363  0.7973
  117MOL    H7449026   5.995   6.341   4.384 -1.4246 -0.5770  0.2138
  117MOL    H7549027   5.822   6.204   4.508  0.8219 -1.7079  2.4075
  117MOL    H7649028   5.863   6.286   4.644  0.5184  0.7301 -0.6878
  117MOL    H7749029   5.968   6.069   4.355 -0.9588  0.0125  0.7713
  117MOL    H7849030   6.112   6.155   4.376 -0.7348  2.2800  0.4842
  117MOL    H7949031   6.103   5.987   4.436 -0.0172  0.6131  2.5746
  117MOL    H8049032   6.192   6.056   4.669  2.8060  1.6532  0.9904
  117MOL    H8149033   6.126   6.211   4.741 -1.8731 -0.2131  0.0592
  117MOL    H8249034   6.220   6.214   4.600  1.2854 -2.6199 -0.4321
  117MOL    H8349035   5.973   6.000   4.749  0.6438  3.0653 -0.0688
  117MOL    H8449036   5.950   5.920   4.597 -1.2746 -0.5482  1.3230
  117MOL    H8549037   5.827   6.030   4.643 -0.7142 -3.0661  1.8677
  117MOL    C8649038   6.041   6.464   4.560  0.5593 -0.0213  0.2825
  117MOL    C8749039   6.115   6.574   4.489 -0.7020  0.5141 -0.0924
  117MOL    C8849040   6.180   6.518   4.362 -0.0231 -0.5115 -0.1718
  117MOL    C8949041   6.278   6.601   4.270  0.0039 -0.1222  0.3875
  117MOL    C9049042   6.217   6.750   4.251  0.2492 -0.3101  0.0357
  117MOL    C9149043   6.290   6.541   4.126  0.2375 -0.3855 -0.1066
  117MOL    C9249044   6.416   6.616   4.339 -0.2124  0.5296 -0.2293
  117MOL    H9349045   6.117   6.402   4.607 -0.2488 -1.7064 -0.6031
  117MOL    H9449046   5.984   6.513   4.639  1.2514 -0.4428  1.0496
  117MOL    H9549047   6.046   6.656   4.473 -2.4132 -0.8261  0.2093
  117MOL    H9649048   6.092   6.499   4.299  0.5801  0.6848 -1.4067
  117MOL    H9749049   6.219   6.417   4.377  0.7396 -0.1115  0.5544
  117MOL    H9849050   6.115   6.741   4.213 -0.1015  1.1063  0.6389
  117MOL    H9949051   6.268   6.813   4.178  0.2020  2.1407  2.0836
  117MOL   H10049052   6.207   6.809   4.341 -0.9749  0.7737 -0.8007
  117MOL   H10149053   6.343   6.604   4.056 -0.0361 -0.6178 -0.5282
  117MOL   H10249054   6.338   6.444   4.114  1.8214  0.3740  0.0793
  117MOL   H10349055   6.190   6.528   4.085 -0.0135 -1.2688  0.7524
  117MOL   H10449056   6.457   6.516   4.357  0.1885  0.9134  1.0987
  117MOL   H10549057   6.485   6.667   4.272 -0.1206 -2.7113 -2.7090
  117MOL   H10649058   6.411   6.669   4.434 -0.2112 -0.8823  0.5853
  117MOL   C10749059   6.212   6.629   4.604 -0.4199 -0.0148 -0.0686
  117MOL   C10849060   6.173   6.676   4.747  0.2126 -0.1869  0.2754
  117MOL   C10949061   6.300   6.710   4.827  0.0018  0.0295  0.2795
  117MOL   C11049062   6.399   6.598   4.878  0.2704  0.0722  0.2994
  117MOL   C11149063   6.515   6.570   4.783  0.3667 -0.5298 -0.2524
  117MOL   C11249064   6.320   6.468   4.905 -0.5345 -0.5203 -0.1524
  117MOL   C11349065   6.462   6.641   5.012 -0.0447  0.2055  0.3085
  117MOL   H11449066   6.257   6.719   4.563  0.2821 -0.0311  0.6602
  117MOL   H11549067   6.296   6.560   4.615 -0.4931  0.1176  1.2780
  117MOL   H11649068   6.137   6.589   4.803 -0.3629 -0.7561 -0.9579
  117MOL   H11749069   6.358   6.786   4.774  1.8407  1.7493  4.4734
  117MOL   H11849070   6.272   6.765   4.917  0.6820  1.6850 -0.5000
  117MOL   H11949071   6.486   6.527   4.687  0.2302  0.9937 -0.8936
  117MOL   H12049072   6.563   6.666   4.765 -1.3429  0.1603 -1.2111
  117MOL   H12149073   6.590   6.503   4.827 -0.1968  0.3167  2.0597
  117MOL   H12249074   6.266   6.419   4.824 -2.0836 -1.7118  1.5463
  117MOL   H12349075   6.247   6.478   4.986  0.2126 -0.2251  0.4903
  117MOL   H12449076   6.393   6.393   4.935  2.1676  2.3824  0.8432
  117MOL   H12549077   6.504   6.739   4.991 -0.6538  0.8182  1.8542
  117MOL   H12649078   6.539   6.576   5.053 -0.9282  0.3142  2.1893
  117MOL   H12749079   6.387   6.644   5.091 -0.4370  2.8290 -0.1106
  117MOL   C12849080   6.070   6.791   4.753 -0.7490  0.1525  0.8143
  117MOL   C12949081   5.993   6.814   4.881 -0.0668 -0.0196  0.0241
  117MOL   C13049082   5.935   6.960   4.875  0.4269  0.8062 -0.2106
  117MOL   C13149083   6.017   7.063   4.937 -1.6002 -0.0255 -1.0685
  117MOL   C13249084   6.034   7.028   5.085 -0.6187 -0.0629  0.1541
  117MOL   C13349085   5.923   7.185   4.920  0.0814  0.4727  0.2359
  117MOL   C13449086   6.154   7.092   4.879  0.1240 -0.6562 -0.3088
  117MOL   H13549087   5.996   6.761   4.677 -1.7932 -1.5566  2.4633
  117MOL   H13649088   6.122   6.879   4.716 -2.0451  0.0076 -1.4702
  117MOL   H13749089   6.067   6.815   4.961 -0.5861  1.1653  0.4992
  117MOL   H13849090   5.912   6.987   4.772  0.8154  0.9389 -0.2629
  117MOL   H13949091   5.832   6.961   4.911  0.5654 -2.5685  0.4843
  117MOL   H14049092   5.939   6.999   5.131 -1.2178 -0.4164 -1.2787
  117MOL   H14149093   6.080   7.112   5.137 -0.4727 -0.3923  0.5537
  117MOL   H14249094   6.111   6.953   5.102  0.7400  1.4767  1.0107
  117MOL   H14349095   5.896   7.206   4.816  1.6495 -1.9549 -0.7005
  117MOL   H14449096   5.979   7.274   4.948  2.7858 -1.2777  0.5320
  117MOL   H14549097   5.830   7.184   4.977 -0.9563  1.9654 -1.4010
  117MOL   H14649098   6.239   7.028   4.902  0.1467 -0.8923 -1.0418
  117MOL   H14749099   6.148   7.115   4.773 -2.2665 -0.9595 -0.2799
  117MOL   H14849100   6.190   7.186   4.921  1.5015 -1.9212  1.4193
  117MOL   C14949101   5.888   6.706   4.900 -0.1842 -0.2260  0.1562
  117MOL   C15049102   5.785   6.708   5.023 -0.8446 -0.3536  0.2967
  117MOL   C15149103   5.644   6.661   4.985 -0.1199  0.7311  0.2311
  117MOL   C15249104   5.539   6.773   4.938  0.7088  0.0627  0.4043
  117MOL   C15349105   5.404   6.708   4.907 -0.1892  0.2054  0.2000
  117MOL   C15449106   5.585   6.846   4.804  0.3093  0.3717  0.5068
  117MOL   C15549107   5.505   6.873   5.048  0.1900 -0.9965  0.2264
  117MOL   H15649108   5.949   6.615   4.896  1.2299  0.7497 -0.8693
  117MOL   H15749109   5.822   6.692   4.815 -0.3925 -1.3138  0.4845
  117MOL   H15849110   5.793   6.806   5.069 -2.3403 -1.3375  2.7733
  117MOL   H15949111   5.597   6.598   5.060 -0.8147  0.0227 -0.7715
  117MOL   H16049112   5.651   6.600   4.894 -0.0191 -0.0399  0.7536
  117MOL   H16149113   5.409   6.613   4.853  1.9647 -1.3245  3.0092
  117MOL   H16249114   5.355   6.684   5.001  0.6318 -0.4382  0.4601
  117MOL   H16349115   5.342   6.770   4.842  0.4560 -0.3196 -0.9401
  117MOL   H16449116   5.618   6.768   4.735  0.1733 -0.1363  1.0104
  117MOL   H16549117   5.680   6.897   4.819  1.6906 -1.9084 -0.1674
  117MOL   H16649118   5.513   6.917   4.763 -0.3290  0.7589  2.2752
  117MOL   H16749119   5.587   6.937   5.080 -1.7111  0.7010  1.8613
  117MOL   H16849120   5.432   6.946   5.013  1.4982 -0.6151 -1.7382
  117MOL   H16949121   5.459   6.824   5.134 -0.7005 -0.0829  0.2756
  117MOL   C17049122   5.832   6.613   5.144  0.5947  0.1977 -0.3313
  117MOL   C17149123   5.862   6.702   5.275 -0.4930  0.2984 -0.3895
  117MOL   C17249124   5.931   6.611   5.388  0.3279 -0.0644 -0.3421
  117MOL   C17349125   6.085   6.599   5.381  0.6808 -0.2761  0.0544
  117MOL   C17449126   6.141   6.744   5.364  0.4011 -0.0912  0.3182
  117MOL   C17549127   6.142   6.513   5.271 -0.1328  0.1319 -0.4904
  117MOL   C17649128   6.139   6.533   5.512  0.3822 -0.3683  0.3576
  117MOL   H17749129   5.921   6.557   5.113  3.4067  3.4445  1.4760
  117MOL   H17849130   5.761   6.532   5.161  1.1708  0.0148  1.2890
  117MOL   H17949131   5.925   6.786   5.243 -0.5746  0.5787  0.1774
  117MOL   H18049132   5.903   6.629   5.492  1.8048 -2.6396  0.5355
  117MOL   H18149133   5.880   6.516   5.376  1.0056 -0.7556  1.9268
  117MOL   H18249134   6.128   6.776   5.261 -2.2877 -0.0679  0.6242
  117MOL   H18349135   6.083   6.811   5.427  1.6301  1.5760 -0.3093
  117MOL   H18449136   6.246   6.749   5.392  0.1488 -1.6470  1.6453
  117MOL   H18549137   6.085   6.420   5.265 -0.0610 -0.0934  2.1189
  117MOL   H18649138   6.135   6.568   5.177 -1.0320  0.5022 -0.2103
  117MOL   H18749139   6.244   6.479   5.287 -0.2551 -0.2190 -0.4551
  117MOL   H18849140   6.093   6.435   5.520  0.5797 -0.5066 -0.1465
  117MOL   H18949141   6.247   6.517   5.505  0.2110 -1.5001  0.1229
  117MOL   H19049142   6.117   6.593   5.600  1.3299  1.2127 -0.4460
  117MOL   C19149143   5.719   6.748   5.326  0.5034  0.2336 -0.4464
  117MOL   C19249144   5.721   6.842   5.455  0.3328  0.5822  0.3547
  117MOL   C19349145   5.577   6.864   5.521  0.6368 -0.2257  0.2561
  117MOL   C19449146   5.553   6.791   5.652  0.7579 -0.5227 -0.1769
  117MOL   C19549147   5.643   6.860   5.753 -0.0963  0.6360 -0.6332
  117MOL   C19649148   5.585   6.645   5.652  1.0360  0.2248 -0.1332
  117MOL   C19749149   5.398   6.802   5.690 -0.4225  0.1349  0.9051
  117MOL   H19849150   5.663   6.801   5.248 -1.3165  0.1115  0.7582
  117MOL   H19949151   5.657   6.659   5.335  0.1682  0.3423 -1.5523
  117MOL   H20049152   5.787   6.793   5.526 -1.6501  0.4107  2.1398
  117MOL   H20149153   5.504   6.847   5.441  0.4949  0.9460  0.1372
  117MOL   H20249154   5.560   6.968   5.546 -0.0731 -0.6639  1.6347
  117MOL   H20349155   5.621   6.966   5.768 -0.6834  0.5027 -0.5086
  117MOL   H20449156   5.628   6.819   5.854 -1.3589  1.2719 -0.5529
  117MOL   H20549157   5.750   6.845   5.739  0.2019  0.1414  1.8473
  117MOL   H20649158   5.566   6.592   5.745  3.3419  0.8162  0.7060
  117MOL   H20749159   5.518   6.600   5.579  1.2108  1.6282 -1.1782
  117MOL   H20849160   5.683   6.614   5.616  1.0886 -1.9244  1.7744
  117MOL   H20949161   5.361   6.901   5.716 -0.8265 -0.2482  1.7991
  117MOL   H21049162   5.346   6.779   5.597 -0.4242  0.8993  0.7074
  117MOL   H21149163   5.360   6.734   5.766 -2.5847 -1.8886 -1.8928
  117MOL   C21249164   5.785   6.979   5.418 -0.5331  0.1702 -0.9221
  117MOL   C21349165   5.804   7.102   5.513 -0.1931  1.7900 -0.0397
  117MOL   C21449166   5.811   7.231   5.424  0.1273  0.9485 -0.3572
  117MOL   C21549167   5.673   7.309   5.407 -0.2171  0.0110  0.6597
  117MOL   C21649168   5.708   7.423   5.316  0.0301  0.7913  0.9635
  117MOL   C21749169   5.561   7.220   5.338 -0.1877  0.3685  0.1690
  117MOL   C21849170   5.630   7.365   5.547  0.5571  0.3216  0.3136
  117MOL   H21949171   5.881   6.950   5.376 -0.8820 -1.4161 -0.6806
  117MOL   H22049172   5.744   7.013   5.323 -1.4711  2.3111  0.2293
  117MOL   H22149173   5.722   7.105   5.584  0.4525  2.4389  0.6920
  117MOL   H22249174   5.845   7.189   5.329  0.6221 -1.0759  0.6935
  117MOL   H22349175   5.885   7.302   5.463  2.0324  0.2512 -2.6053
  117MOL   H22449176   5.610   7.461   5.287 -0.1046 -1.1936 -1.3229
  117MOL   H22549177   5.748   7.394   5.219 -2.1853 -0.5798  0.4217
  117MOL   H22649178   5.763   7.507   5.359  0.6540  1.0060 -0.2555
  117MOL   H22749179   5.590   7.174   5.244  0.5978  2.3004 -0.5528
  117MOL   H22849180   5.518   7.145   5.405 -0.9691 -0.4299 -1.2154
  117MOL   H22949181   5.484   7.294   5.317 -1.4083 -0.3058  2.0426
  117MOL   H23049182   5.603   7.279   5.609  0.5907  1.7068  2.2932
  117MOL   H23149183   5.539   7.422   5.526  0.6526  0.3582  0.0043
  117MOL   H23249184   5.710   7.425   5.589 -1.1727  1.7584  1.6312
  117MOL   C23349185   5.934   7.091   5.606  0.6423 -0.1027 -0.5292
  117MOL   C23449186   5.962   7.181   5.731 -0.0985 -0.8159 -0.5127
  117MOL   C23549187   5.840   7.166   5.827  0.0695 -0.7638  0.1702
  117MOL   C23649188   5.837   7.259   5.950  0.1737  0.0406  0.1921
  117MOL   C23749189   5.692   7.285   5.984  0.6667  0.7696 -0.0696
  117MOL   C23849190   5.908   7.193   6.074  0.1014  0.3985  0.2257
  117MOL   C23949191   5.904   7.394   5.928 -0.2804 -0.4677  0.6696
  117MOL   H24049192   6.021   7.106   5.542  0.5773 -1.3291 -0.9122
  117MOL   H24149193   5.943   6.988   5.641  0.8765  1.0200  2.8794
  117MOL   H24249194   5.974   7.282   5.694 -1.3788 -0.9522 -1.3637
  117MOL   H24349195   5.751   7.191   5.770 -0.9466 -0.2334  1.9693
  117MOL   H24449196   5.813   7.063   5.849  0.1105 -0.4041  1.9459
  117MOL   H24549197   5.676   7.327   6.083 -2.5753  0.1309 -0.2609
  117MOL   H24649198   5.639   7.190   5.984 -0.6477  1.4926 -0.6069
  117MOL   H24749199   5.641   7.356   5.919 -1.7618 -1.3600 -0.5705
  117MOL   H24849200   5.821   7.160   6.131 -0.0817  2.8472  1.4111
  117MOL   H24949201   5.959   7.101   6.044  0.8087  1.1286 -0.8599
  117MOL   H25049202   5.979   7.253   6.132  0.6075 -2.9685  3.2717
  117MOL   H25149203   6.009   7.365   5.940 -0.7882 -2.3755  0.6007
  117MOL   H25249204   5.883   7.444   5.833  2.6375 -1.5797 -0.6363
  117MOL   H25349205   5.879   7.458   6.013 -0.0540 -0.1974  0.5357
  117MOL   C25449206   6.092   7.127   5.802  0.3384 -0.2622 -0.3893
  117MOL   C25549207   6.227   7.147   5.732 -0.3535  0.8750  0.1685
  117MOL   C25649208   6.336   7.055   5.796  0.3081 -0.5809 -0.5379
  117MOL   C25749209   6.376   6.927   5.724  0.8067 -0.2073 -0.4457
  117MOL   C25849210   6.254   6.862   5.665 -0.6072 -0.4530 -0.8305
  117MOL   C25949211   6.441   6.829   5.829  0.1459 -0.4460  0.3225
  117MOL   C26049212   6.487   6.944   5.613  0.5197 -0.1682 -0.3050
  117MOL   H26149213   6.081   7.019   5.813  1.2628 -0.2609  0.6186
  117MOL   H26249214   6.107   7.172   5.900  1.0115 -0.4526 -0.4022
  117MOL   H26349215   6.225   7.144   5.623 -0.8248  1.0361  0.1729
  117MOL   H26449216   6.427   7.114   5.789 -0.6981  1.0036 -0.3803
  117MOL   H26549217   6.312   7.037   5.901 -0.5104 -0.7528 -0.7476
  117MOL   H26649218   6.200   6.915   5.586  2.2175  0.2649 -2.3369
  117MOL   H26749219   6.181   6.847   5.744 -0.7675 -0.9725 -1.0699
  117MOL   H26849220   6.272   6.760   5.629  1.1385 -0.3160 -0.3943
  117MOL   H26949221   6.462   6.735   5.778 -0.9780  0.7010 -2.3681
  117MOL   H27049222   6.374   6.813   5.913  1.6966 -1.3092  1.4235
  117MOL   H27149223   6.540   6.863   5.859  0.6576 -0.2635 -1.4634
  117MOL   H27249224   6.569   6.998   5.660  1.1862 -1.4768  0.0479
  117MOL   H27349225   6.525   6.845   5.588  1.1135 -0.0491  0.1323
  117MOL   H27449226   6.456   7.007   5.530 -1.8314  1.7601  1.9243
  117MOL   C27549227   6.266   7.294   5.767  0.2990  0.4272  0.2834
  117MOL   C27649228   6.335   7.361   5.641 -0.2339 -0.0534 -0.5759
  117MOL   C27749229   6.241   7.427   5.536 -0.2995 -0.1307 -0.1666
  117MOL   C27849230   6.276   7.408   5.387  0.5018 -0.0134  0.2993
  117MOL   C27949231   6.256   7.251   5.357 -0.1998 -0.3956  0.1853
  117MOL   C28049232   6.172   7.487   5.297  0.0766 -0.0942  0.7567
  117MOL   C28149233   6.421   7.459   5.353 -0.1965 -0.3522  0.9775
  117MOL   H28249234   6.186   7.362   5.796 -1.3442 -0.8592 -1.1205
  117MOL   H28349235   6.337   7.291   5.850  1.4756  0.4730 -0.7055
  117MOL   H28449236   6.395   7.290   5.584  0.0722  0.9762 -1.5516
  117MOL   H28549237   6.247   7.535   5.544 -0.5778  0.1022 -2.7824
  117MOL   H28649238   6.139   7.390   5.550 -1.7231  2.7222 -2.5647
  117MOL   H28749239   6.151   7.226   5.346  0.1092 -0.6045 -2.7320
  117MOL   H28849240   6.296   7.229   5.258 -1.6157  0.7815 -0.6658
  117MOL   H28949241   6.302   7.185   5.430 -0.3674 -1.1345 -0.3653
  117MOL   H29049242   6.172   7.452   5.194 -0.4899  1.2478  0.2921
  117MOL   H29149243   6.181   7.595   5.302  2.1446 -0.2451  0.7743
  117MOL   H29249244   6.072   7.472   5.338 -0.8265 -0.1126 -1.4150
  117MOL   H29349245   6.441   7.466   5.246 -1.1677  0.0997  0.8210
  117MOL   H29449246   6.500   7.405   5.405  2.5835  2.2478 -0.3935
  117MOL   H29549247   6.427   7.565   5.379  2.6980 -0.4487  0.8499
  117MOL   C29649248   6.438   7.461   5.700 -0.0630 -0.5186  1.1069
  117MOL   C29749249   6.569   7.410   5.762  0.1434  0.0718  0.3448
  117MOL   C29849250   6.666   7.521   5.818 -0.3104  0.1648 -0.0906
  117MOL   C29949251   6.614   7.636   5.906 -0.0534  0.1176  0.1120
  117MOL   C30049252   6.731   7.688   5.983  0.1504  0.0735  0.5640
  117MOL   C30149253   6.566   7.750   5.821 -0.4978  0.2856 -0.1568
  117MOL   C30249254   6.518   7.586   6.018  1.0547 -0.1035 -0.4699
  117MOL   H30349255   6.381   7.527   5.766 -1.4787 -1.4506  0.8378
  117MOL   H30449256   6.454   7.534   5.620  0.6451  0.8162  2.4327
  117MOL   H30549257   6.533   7.356   5.850 -2.0409 -0.6172 -0.9521
  117MOL   H30649258   6.727   7.565   5.740  1.0479 -0.7101  0.4615
  117MOL   H30749259   6.730   7.464   5.885  0.6548 -0.5718 -1.6093
  117MOL   H30849260   6.691   7.762   6.052 -1.3883  0.2172 -0.4650
  117MOL   H30949261   6.773   7.621   6.059  2.4737  0.4626 -0.3396
  117MOL   H31049262   6.787   7.740   5.906 -2.1695  1.3383 -0.2978
  117MOL   H31149263   6.478   7.719   5.766 -0.0588 -1.5254  0.1509
  117MOL   H31249264   6.542   0.066   5.890 -0.3032  1.4502 -1.4356
  117MOL   H31349265   6.639   0.034   5.757 -0.6682 -0.3904 -0.8668
  117MOL   H31449266   6.489   7.660   6.093  0.1879 -1.0356  0.1346
  117MOL   H31549267   6.425   7.559   5.969 -0.5043  1.5653  1.4755
  117MOL   H31649268   6.556   7.491   6.056  0.7523 -0.7582 -1.8049
  117MOL   C31749269   6.642   7.307   5.672 -0.1294  0.1805  0.2241
  117MOL   C31849270   6.785   7.255   5.710  0.9443  0.9484 -0.9741
  117MOL   C31949271   6.782   7.183   5.852 -0.1287 -0.8416  0.1455
  117MOL   C32049272   6.918   7.189   5.934 -0.2931  0.0495 -0.4200
  117MOL   C32149273   6.905   7.118   6.071  0.2661 -0.3412 -0.1163
  117MOL   C32249274   6.949   7.337   5.970  0.1696  1.1003  0.5988
  117MOL   C32349275   7.047   7.125   5.872  0.6590  0.7663 -0.4185
  117MOL   H32449276   6.567   7.227   5.668 -2.0015  2.0071 -4.0626
  117MOL   H32549277   6.650   7.352   5.573 -4.3141 -1.4813 -0.9532
  117MOL   H32649278   6.854   7.339   5.714  1.5970  0.3357  1.3863
  117MOL   H32749279   6.753   7.079   5.836 -0.6495 -0.6375 -0.2417
  117MOL   H32849280   6.698   7.212   5.913 -1.1719 -0.8144 -1.2745
  117MOL   H32949281   6.830   7.163   6.136  1.3638  0.5333  0.5726
  117MOL   H33049282   7.004   7.101   6.113  0.7148  0.4456 -0.8386
  117MOL   H33149283   6.871   7.015   6.061  2.1696 -1.0259  0.3167
  117MOL   H33249284   7.030   7.344   6.042  1.4891  0.0651 -0.7554
  117MOL   H33349285   6.978   7.395   5.883 -0.4586 -0.3257 -0.5974
  117MOL   H33449286   6.871   7.390   6.025 -0.8015 -0.1382  0.4553
  117MOL   H33549287   7.024   7.026   5.833  0.6256  0.0532  1.3362
  117MOL   H33649288   7.135   7.119   5.936 -0.3273 -0.2498  0.8723
  117MOL   H33749289   7.074   7.193   5.791 -0.3733 -0.1475 -1.5504
  117MOL   C33849290   6.835   7.159   5.595 -0.1020  0.0956  0.2740
  117MOL   C33949291   6.863   7.224   5.455 -0.0423  0.1347 -0.0491
  117MOL   C34049292   6.860   7.133   5.327  0.1783  0.2675 -0.0012
  117MOL   C34149293   6.734   7.113   5.240  0.6520 -0.5957 -0.0057
  117MOL   C34249294   6.713   7.236   5.163 -0.3435  0.7077  0.0044
  117MOL   C34349295   6.744   6.987   5.151 -0.4868 -0.1876 -0.4928
  117MOL   C34449296   6.617   7.079   5.334  0.1846 -0.1645  0.0093
  117MOL   H34549297   6.756   7.086   5.576  0.6267 -0.5881 -0.1272
  117MOL   H34649298   6.920   7.095   5.617 -1.3949 -1.6279  0.4236
  117MOL   H34749299   6.787   7.295   5.422  0.7974  0.5222 -1.2034
  117MOL   H34849300   6.909   7.038   5.348  1.3922  1.3540  2.2555
  117MOL   H34949301   6.927   7.168   5.249  1.3424  0.5351  1.1071
  117MOL   H35049302   6.735   7.334   5.205  1.2782  1.0809 -1.6397
  117MOL   H35149303   6.761   7.228   5.066 -0.4233  0.9720 -0.0574
  117MOL   H35249304   6.611   7.236   5.126  0.0361  0.6415 -1.0694
  117MOL   H35349305   6.810   7.008   5.067  2.3498 -0.6706  1.5604
  117MOL   H35449306   6.778   6.900   5.208  1.2119  0.5684 -0.3168
  117MOL   H35549307   6.646   6.979   5.103  0.2689 -1.5835 -1.8669
  117MOL   H35649308   6.632   6.982   5.382 -1.6847  0.0883  1.1723
  117MOL   H35749309   6.589   7.161   5.400 -3.0081 -1.4403  0.3244
  117MOL   H35849310   6.526   7.058   5.277  1.2508 -1.5397 -1.2328
  117MOL   C35949311   7.006   7.291   5.450  0.7115  0.6614 -0.2687
  117MOL   C36049312   6.992   7.426   5.388  0.3798  0.5418 -0.3546
  117MOL   C36149313   7.138   7.476   5.344  0.0642 -0.2303  0.1498
  117MOL   C36249314   7.172   7.464   5.190  0.4892 -0.5139  0.0833
  117MOL   C36349315   7.083   7.566   5.114 -0.0306  0.6416  0.4435
  117MOL   C36449316   7.159   7.323   5.138  0.2857  0.4008 -0.3645
  117MOL   C36549317   7.315   7.515   5.170  0.1633  0.0079  0.4806
  117MOL   H36649318   7.072   7.227   5.391  0.4150  1.2719 -1.2638
  117MOL   H36749319   7.051   7.307   5.549 -0.5625 -1.2272  0.6449
  117MOL   H36849320   6.929   7.409   5.301 -2.6375 -1.3137  2.0364
  117MOL   H36949321   7.144   7.579   5.380 -2.0135 -1.3673  3.9891
  117MOL   H37049322   7.212   7.418   5.399 -1.0804 -2.7851 -0.9492
  117MOL   H37149323   7.101   7.557   5.006  1.5316  3.4492  0.3982
  117MOL   H37249324   6.976   7.548   5.128 -0.4710  1.2608 -1.9025
  117MOL   H37349325   7.106   7.671   5.133  2.3514 -0.2189  2.4543
  117MOL   H37449326   7.216   7.310   5.046 -0.4719 -0.1798 -0.7579
  117MOL   H37549327   7.057   7.287   5.122  0.7428 -1.5175  0.8409
  117MOL   H37649328   7.192   7.251   5.213  0.7343  1.5994  0.6128
  117MOL   H37749329   7.391   7.457   5.223  1.6965  1.3994 -0.1469
  117MOL   H37849330   7.312   7.619   5.200 -0.6240  0.3577 -0.7727
  117MOL   H37949331   7.342   7.513   5.064  0.8146 -1.1065  0.6564
  117MOL   C38049332   6.908   7.524   5.466 -0.4542  0.1031 -0.1950
  117MOL   C38149333   6.883   7.664   5.404  0.2702 -0.3242  0.3169
  117MOL   C38249334   6.872   7.765   5.519  0.1818 -0.3253 -0.0283
  117MOL   C38349335   6.982   0.112   5.529  0.4558 -0.0374 -0.1588
  117MOL   C38449336   6.988   0.174   5.397  0.1623 -0.1620 -0.1919
  117MOL   C38549337   7.126   0.060   5.563  0.1111  0.0420  1.1932
  117MOL   C38649338   6.943   0.216   5.646 -0.5363 -0.0011 -0.2263
  117MOL   H38749339   6.974   7.542   5.552 -0.7059 -0.4505  0.1177
  117MOL   H38849340   6.814   7.485   5.506 -0.0315  2.0200  2.8712
  117MOL   H38949341   6.975   7.693   5.353  2.2760 -3.7045  1.8085
  117MOL   H39049342   6.774   0.046   5.519  0.1954 -0.2973 -0.3742
  117MOL   H39149343   6.870   7.714   5.616  1.7209  1.5486  1.0377
  117MOL   H39249344   6.888   0.212   5.377 -1.0117 -2.7810  0.5231
  117MOL   H39349345   7.067   0.249   5.408 -0.7891  1.0447 -1.4626
  117MOL   H39449346   7.017   0.109   5.315 -1.0481 -0.9006 -0.0314
  117MOL   H39549347   7.198   0.130   5.606  0.4056  1.0319 -0.8602
  117MOL   H39649348   7.175   0.014   5.478 -2.1526  1.8645 -1.1774
  117MOL   H39749349   7.105   7.748   5.637 -1.2485 -1.4497 -0.7118
  117MOL   H39849350   6.957   0.164   5.740 -1.6502 -0.4664 -0.3033
  117MOL   H39949351   6.837   0.240   5.637 -0.4128  0.3017 -0.8832
  117MOL   H40049352   7.008   0.303   5.645  0.3099 -0.6271 -1.1202
  117MOL   C40149353   6.753   7.661   5.308 -0.0379  0.7633 -0.8277
  117MOL   C40249354   6.731   0.021   5.223  0.1427  0.3963  0.0904
  117MOL   C40349355   6.616   7.756   5.127 -0.3326  0.5636  0.1451
  117MOL   C40449356   6.545   0.108   5.061  0.1682  0.4349 -0.0246
  117MOL   C40549357   6.642   0.217   5.020  0.7034  0.0253 -0.4845
  117MOL   C40649358   6.432   0.164   5.152 -0.6518  0.0117 -0.3944
  117MOL   C40749359   6.468   0.050   4.942  0.2280 -0.3027  0.1499
  117MOL   H40849360   6.765   7.580   5.236 -0.3445  1.0881 -1.2470
  117MOL   H40949361   6.665   7.631   5.365  0.1182 -0.4063 -1.2006
  117MOL   H41049362   6.707   0.102   5.291 -2.2137  0.4070 -0.6822
  117MOL   H41149363   6.542   7.695   5.179 -0.0488  0.0705 -0.0240
  117MOL   H41249364   6.648   7.691   5.045 -0.3095  0.5588  0.1578
  117MOL   H41349365   6.730   0.173   4.975  0.6704 -0.5476  0.0129
  117MOL   H41449366   6.676   0.281   5.101  0.7638  0.7871 -1.1042
  117MOL   H41549367   6.596   0.281   4.944  1.1929 -1.4652 -2.0668
  117MOL   H41649368   6.363   0.088   5.188 -0.8247  0.3609  0.0140
  117MOL   H41749369   6.373   0.247   5.112  1.1024  2.8023  2.5242
  117MOL   H41849370   6.478   0.204   5.242  1.4486 -0.2908 -1.3125
  117MOL   H41949371   6.406   7.728   4.959 -0.3875 -0.0189 -0.5812
  117MOL   H42049372   6.388   0.112   4.901  3.2636  1.4878 -3.3978
  117MOL   H42149373   6.542   0.032   4.864  1.6370 -0.6724  1.5389
  117MOL   H42249374   6.822   0.048   5.171  0.0090  2.2941  0.8095
  118MOL     C149375   4.733   5.823   6.287  0.6918 -0.1823  0.0822
  118MOL     C249376   4.725   5.940   6.178 -0.3457  0.2844 -0.4888
  118MOL     C349377   4.637   6.056   6.222 -0.5075  0.0832 -0.0744
  118MOL     C449378   4.721   6.168   6.298  0.2266 -0.3792  0.4063
  118MOL     C549379   4.782   6.117   6.429  0.0840 -0.2946  0.6987
  118MOL     C649380   4.830   6.229   6.212  0.4155  0.5352 -0.1269
  118MOL     C749381   4.621   6.281   6.340 -0.5374  0.0497 -0.0189
  118MOL     H849382   4.789   5.851   6.376  1.1682 -1.5127  0.2222
  118MOL     H949383   4.630   5.802   6.317  0.1318  1.5722 -0.5634
  118MOL    H1049384   4.822   5.986   6.160 -1.0247  1.4304 -1.2969
  118MOL    H1149385   4.558   6.023   6.289 -0.3525 -0.0664  0.0349
  118MOL    H1249386   4.588   6.101   6.135  2.4792  0.2952 -1.7052
  118MOL    H1349387   4.701   6.075   6.489  0.5964 -1.3060  0.6827
  118MOL    H1449388   4.820   6.202   6.486  0.2138  0.9872 -1.2574
  118MOL    H1549389   4.860   6.045   6.404 -0.1477 -0.7282  1.2132
  118MOL    H1649390   4.846   6.327   6.257 -1.0711  0.1865  1.2217
  118MOL    H1749391   4.918   6.165   6.208 -1.8388 -2.5662 -1.7273
  118MOL    H1849392   4.794   6.234   6.109 -1.8377  1.1776  0.6551
  118MOL    H1949393   4.665   6.357   6.405 -1.2370 -1.5304  2.3762
  118MOL    H2049394   4.546   6.233   6.402 -0.0451  0.0585  0.5987
  118MOL    H2149395   4.573   6.332   6.256  0.6200  0.6130 -0.3564
  118MOL    H2249396   4.775   5.733   6.241 -0.9400 -1.2763  0.6532
  118MOL    C2349397   4.672   5.870   6.054  0.1852 -0.1068  0.0901
  118MOL    C2449398   4.786   5.810   5.967  0.0950  0.6983 -0.1581
  118MOL    C2549399   4.860   5.923   5.894 -0.5761 -0.1551 -0.1326
  118MOL    C2649400   5.017   5.912   5.901 -0.0415  0.0169  0.4287
  118MOL    C2749401   5.067   5.780   5.832  0.1876 -0.0108  1.2662
  118MOL    C2849402   5.075   6.033   5.816 -0.2151 -0.0159 -0.2757
  118MOL    C2949403   5.080   5.931   6.043 -0.3847  1.4616 -0.0651
  118MOL    H3049404   4.597   5.798   6.088 -0.5251  0.6020  0.0224
  118MOL    H3149405   4.623   5.940   5.986  1.9599  0.0241 -1.0700
  118MOL    H3249406   4.844   5.768   6.049  0.7082  2.6625  0.4435
  118MOL    H3349407   4.843   6.019   5.944  0.7464 -0.9622  1.9337
  118MOL    H3449408   4.831   5.941   5.790 -1.8589 -0.3248  0.1913
  118MOL    H3549409   5.172   5.764   5.811 -0.0811 -1.2311  0.7924
  118MOL    H3649410   5.035   5.699   5.898 -0.6984  0.9275  2.0096
  118MOL    H3749411   5.007   5.773   5.742  0.2410 -1.6125  1.3521
  118MOL    H3849412   5.062   6.010   5.710 -2.0096  0.5183 -0.1931
  118MOL    H3949413   5.034   6.127   5.853 -2.8353 -0.1181 -2.7153
  118MOL    H4049414   5.183   6.044   5.809 -0.3624  1.3066 -0.5538
  118MOL    H4149415   5.065   6.034   6.073  0.1426  1.8111 -0.9703
  118MOL    H4249416   5.188   5.915   6.046 -0.4570  1.2766  4.6264
  118MOL    H4349417   5.052   5.867   6.127  1.8050  0.6815  0.1176
  118MOL    C4449418   4.729   5.692   5.878 -0.5634 -0.1168  0.1711
  118MOL    C4549419   4.698   5.556   5.942 -0.2934  0.1369 -0.6606
  118MOL    C4649420   4.833   5.484   5.982  0.7713  0.5538  0.1728
  118MOL    C4749421   4.818   5.362   6.085  0.9564  0.7230 -0.1633
  118MOL    C4849422   4.801   5.230   6.005 -0.1340  0.6196 -0.0552
  118MOL    C4949423   4.706   5.386   6.188 -0.5015  0.4254 -0.6301
  118MOL    C5049424   4.949   5.344   6.167 -0.2086  0.5199 -0.3723
  118MOL    H5149425   4.654   5.725   5.806  2.4731 -0.6070 -3.3575
  118MOL    H5249426   4.802   5.671   5.800 -1.1427  1.0648 -0.7004
  118MOL    H5349427   4.641   5.567   6.034  0.0034  2.2267 -0.7081
  118MOL    H5449428   4.899   5.561   6.021  0.0932  0.3280  1.8159
  118MOL    H5549429   4.890   5.454   5.894  1.1642 -0.2420  0.7048
  118MOL    H5649430   4.697   5.211   5.977  0.7149  1.5542 -4.1211
  118MOL    H5749431   4.834   5.136   6.050  0.6899 -0.3912 -2.6938
  118MOL    H5849432   4.870   5.244   5.922 -1.2566 -0.6714 -1.2292
  118MOL    H5949433   4.602   5.395   6.155  0.2851 -0.6739 -3.5063
  118MOL    H6049434   4.710   5.307   6.264 -3.2989  1.0884  0.2893
  118MOL    H6149435   4.737   5.480   6.234 -0.1497 -1.3908  3.0942
  118MOL    H6249436   4.936   5.278   6.253 -0.3196 -0.3136 -1.0232
  118MOL    H6349437   5.029   5.305   6.104  1.0968  1.2576  0.8001
  118MOL    H6449438   4.990   5.437   6.207 -2.0569  1.5178 -0.7350
  118MOL    C6549439   4.623   5.456   5.844  0.4230 -0.3161  0.6723
  118MOL    C6649440   4.485   5.513   5.787 -0.6907 -0.2462  0.2436
  118MOL    C6749441   4.378   5.513   5.905 -0.5325 -0.3590  0.6380
  118MOL    C6849442   4.275   5.623   5.918  0.9727  0.4248  0.7210
  118MOL    C6949443   4.182   5.591   6.033  0.3499 -0.1605 -0.9972
  118MOL    C7049444   4.350   5.755   5.953 -0.3207 -1.2478 -0.2199
  118MOL    C7149445   4.196   5.651   5.783  0.4063 -0.0354 -0.3930
  118MOL    H7249446   4.688   5.449   5.757 -0.7135  0.8937 -0.3150
  118MOL    H7349447   4.609   5.359   5.891  0.8009 -1.1286 -0.8779
  118MOL    H7449448   4.493   5.612   5.741  2.9402 -0.7691 -0.4100
  118MOL    H7549449   4.433   5.518   5.999 -0.0711  0.8463  0.3059
  118MOL    H7649450   4.333   5.414   5.907  0.1577 -0.7237 -0.9649
  118MOL    H7749451   4.096   5.657   6.043 -0.3637 -1.4215  2.0137
  118MOL    H7849452   4.144   5.490   6.018  1.3009 -0.9234  1.4786
  118MOL    H7949453   4.236   5.599   6.127  1.4264 -1.1636 -1.5159
  118MOL    H8049454   4.300   5.850   5.934  0.8306 -0.3083  1.3097
  118MOL    H8149455   4.451   5.758   5.910 -0.5323  0.3070 -0.6080
  118MOL    H8249456   4.371   5.761   6.060 -1.1183  0.6923 -0.1533
  118MOL    H8349457   4.255   5.709   5.713  0.0671 -0.7080 -1.2518
  118MOL    H8449458   4.106   5.708   5.803  0.4815 -0.2114  0.4687
  118MOL    H8549459   4.158   5.564   5.729 -0.9030  1.4991 -1.9849
  118MOL    C8649460   4.422   5.439   5.665  0.4157 -0.1059  0.2745
  118MOL    C8749461   4.512   5.404   5.542 -0.0359  0.3577  0.5109
  118MOL    C8849462   4.580   5.523   5.473  0.4444  0.1465 -0.2176
  118MOL    C8949463   4.719   5.509   5.415 -0.4698  0.5254 -0.2563
  118MOL    C9049464   4.760   5.643   5.359 -0.3276  0.1714  0.5215
  118MOL    C9149465   4.714   5.426   5.290 -0.4916  0.0809  0.1290
  118MOL    C9249466   4.818   5.468   5.525  0.1888  0.1426  0.5911
  118MOL    H9349467   4.334   5.487   5.623  0.5327 -1.0936 -1.1281
  118MOL    H9449468   4.382   5.343   5.698 -1.7580 -0.0917 -2.1864
  118MOL    H9549469   4.590   5.333   5.571  0.4316  0.5726 -0.1895
  118MOL    H9649470   4.584   5.612   5.535 -0.7023 -0.7868  1.2344
  118MOL    H9749471   4.521   5.546   5.385  1.2736 -0.4812 -0.9425
  118MOL    H9849472   4.856   5.648   5.308 -1.7746 -1.9817 -2.5564
  118MOL    H9949473   4.766   5.713   5.443  2.9015  2.6995 -1.6974
  118MOL   H10049474   4.685   5.682   5.291  0.4565 -1.3373 -1.2245
  118MOL   H10149475   4.816   5.406   5.256  1.3775  4.2412  2.9076
  118MOL   H10249476   4.676   5.329   5.320 -2.1649  1.0846  1.3624
  118MOL   H10349477   4.649   5.465   5.212  1.1709 -0.7195 -1.6842
  118MOL   H10449478   4.821   5.540   5.608 -0.5444  2.2791 -1.1878
  118MOL   H10549479   4.799   5.367   5.562 -3.2519 -0.3618 -2.4076
  118MOL   H10649480   4.916   5.466   5.477  0.8126  2.2974  1.7130
  118MOL   C10749481   4.420   5.331   5.433  0.7684  0.2316 -0.1183
  118MOL   C10849482   4.385   5.183   5.464 -0.2366 -0.6902  0.3935
  118MOL   C10949483   4.245   5.142   5.416 -0.6163 -0.4618 -0.5240
  118MOL   C11049484   4.127   5.186   5.503  0.6148  0.2655  0.8022
  118MOL   C11149485   4.009   5.101   5.453 -0.2753  0.1841 -0.5035
  118MOL   C11249486   4.087   5.330   5.479  0.2252  0.1882  0.2095
  118MOL   C11349487   4.148   5.153   5.655  0.4147 -0.4512 -0.8424
  118MOL   H11449488   4.468   5.327   5.335 -1.9385 -0.9866 -1.4277
  118MOL   H11549489   4.330   5.390   5.414 -0.0483 -0.8061  0.4981
  118MOL   H11649490   4.403   5.157   5.569  0.8845  0.6909  0.5562
  118MOL   H11749491   4.228   5.175   5.313 -0.1059 -1.3362 -0.8865
  118MOL   H11849492   4.238   5.034   5.409  1.6658 -0.5472 -2.0960
  118MOL   H11949493   4.033   4.997   5.475  0.9398  0.8391  1.3805
  118MOL   H12049494   3.915   5.131   5.499  0.8503  1.2310  1.1713
  118MOL   H12149495   3.990   5.108   5.346  1.4071 -1.6302 -0.9575
  118MOL   H12249496   3.984   5.338   5.513  1.0993 -0.2866  3.1213
  118MOL   H12349497   4.098   5.353   5.373  3.5802 -0.7170  0.2794
  118MOL   H12449498   4.148   5.400   5.538 -1.8686  1.3528  1.0430
  118MOL   H12549499   4.217   5.228   5.694 -0.7432  1.0770 -1.6787
  118MOL   H12649500   4.182   5.052   5.674  2.4319  0.5248  0.9526
  118MOL   H12749501   4.059   5.162   5.717 -0.2829 -2.5940 -1.5104
  118MOL   C12849502   4.480   5.086   5.385  0.2461 -0.7074 -0.2346
  118MOL   C12949503   4.499   4.945   5.450 -0.0567  0.6680  0.2293
  118MOL   C13049504   4.572   4.845   5.352  0.0467 -0.4989 -0.0593
  118MOL   C13149505   4.496   4.746   5.277  0.3972 -0.5154  0.0810
  118MOL   C13249506   4.421   4.648   5.364  0.2495 -0.2045 -0.2499
  118MOL   C13349507   4.596   4.666   5.195  0.7418  0.1169  0.0697
  118MOL   C13449508   4.405   4.808   5.170  0.1681  0.8921  0.0380
  118MOL   H13549509   4.575   5.139   5.369 -0.8930  1.1129 -1.2211
  118MOL   H13649510   4.444   5.079   5.282 -0.6818  1.1610 -0.0568
  118MOL   H13749511   4.399   4.905   5.464  1.1938 -2.9590 -0.5368
  118MOL   H13849512   4.635   4.899   5.281  0.2409 -0.7660 -0.0935
  118MOL   H13949513   4.646   4.792   5.412  0.9627  1.7288  0.8167
  118MOL   H14049514   4.391   4.557   5.313 -0.6219  0.4990 -1.0067
  118MOL   H14149515   4.329   4.688   5.408 -0.7718 -1.3624 -1.3341
  118MOL   H14249516   4.479   4.619   5.452 -0.9883 -0.8533  0.3684
  118MOL   H14349517   4.650   4.727   5.123  0.0485  0.3878 -0.2328
  118MOL   H14449518   4.550   4.580   5.145  1.3904 -0.1943  0.0110
  118MOL   H14549519   4.674   4.625   5.258  0.1505  1.5904  1.8280
  118MOL   H14649520   4.315   4.853   5.212 -0.1569  0.4319 -0.1669
  118MOL   H14749521   4.455   4.861   5.090  0.7549 -0.0117 -0.2008
  118MOL   H14849522   4.369   4.714   5.128  1.7321 -0.1516  0.9653
  118MOL   C14949523   4.574   4.966   5.585  1.1706  0.4691  0.0442
  118MOL   C15049524   4.547   4.849   5.694  0.0904  0.0292  0.4594
  118MOL   C15149525   4.654   4.846   5.808 -0.5517 -0.5255  0.7996
  118MOL   C15249526   4.773   4.754   5.786 -0.9602 -0.1834 -0.0799
  118MOL   C15349527   4.737   4.608   5.745 -0.2443 -0.2635 -0.0383
  118MOL   C15449528   4.855   4.751   5.921  0.1564  0.2662 -0.2284
  118MOL   C15549529   4.865   4.816   5.679  0.1011 -0.1072 -0.1943
  118MOL   H15649530   4.564   5.061   5.637  0.5198  0.5056 -0.1425
  118MOL   H15749531   4.680   4.960   5.557  0.2469 -1.2850 -3.4172
  118MOL   H15849532   4.530   4.759   5.635 -0.0933  1.2948 -1.4356
  118MOL   H15949533   4.625   4.820   5.910 -1.4453  1.0045  0.9453
  118MOL   H16049534   4.700   4.943   5.823 -0.5767 -0.2995 -0.5845
  118MOL   H16149535   4.662   4.577   5.818 -1.6522 -0.2574 -1.4456
  118MOL   H16249536   4.673   4.586   5.659  0.5488  0.4900 -0.8324
  118MOL   H16349537   4.820   4.538   5.760 -0.2100  0.2220  2.2596
  118MOL   H16449538   4.877   4.845   5.970 -0.6693 -0.1088  0.9111
  118MOL   H16549539   4.952   4.702   5.910  0.3424  0.4708  0.4850
  118MOL   H16649540   4.793   4.709   6.000  0.1910  0.3184 -0.1747
  118MOL   H16749541   4.818   4.799   5.582 -1.2520 -0.5990  0.5335
  118MOL   H16849542   4.887   4.921   5.697 -1.2454 -0.0151  0.9608
  118MOL   H16949543   4.956   4.757   5.672 -1.5539 -3.0884  2.1420
  118MOL   C17049544   4.411   4.863   5.765  0.3431  0.3576 -0.1981
  118MOL   C17149545   4.346   4.739   5.837  0.0693 -0.7689  0.1597
  118MOL   C17249546   4.268   4.642   5.740  0.3823  0.6421  0.2526
  118MOL   C17349547   4.250   4.491   5.776  0.5349 -0.2720  0.6677
  118MOL   C17449548   4.388   4.428   5.818 -0.0598  0.7706  0.1253
  118MOL   C17549549   4.213   4.419   5.648 -0.3129 -0.1678  0.4405
  118MOL   C17649550   4.146   4.461   5.883 -0.5424  0.1924  0.0545
  118MOL   H17749551   4.330   4.896   5.700  0.3991  0.8828 -0.0087
  118MOL   H17849552   4.414   4.950   5.831 -0.4273 -0.1987  0.5892
  118MOL   H17949553   4.427   4.688   5.889 -1.4460 -0.1358  3.2336
  118MOL   H18049554   4.173   4.689   5.713  1.0437  2.0208  0.2754
  118MOL   H18149555   4.323   4.627   5.648  0.0886  0.9597  0.0238
  118MOL   H18249556   4.469   4.453   5.749 -1.0494  1.4723 -0.8037
  118MOL   H18349557   4.415   4.463   5.918  1.1413 -0.5995  0.2836
  118MOL   H18449558   4.372   4.321   5.833 -1.8693  1.0158  0.0929
  118MOL   H18549559   4.198   4.312   5.665 -1.0044 -0.7053 -3.1456
  118MOL   H18649560   4.112   4.451   5.620 -0.9365 -1.7299  0.8062
  118MOL   H18749561   4.283   4.431   5.566  0.3489  2.8183  1.3865
  118MOL   H18849562   4.121   4.356   5.901 -1.5299  0.4934  0.5142
  118MOL   H18949563   4.181   4.488   5.983  1.6031  0.3589 -0.7274
  118MOL   H19049564   4.049   4.503   5.857 -0.5034  0.2143 -0.0546
  118MOL   C19149565   4.245   4.786   5.951  0.8545 -0.2164 -0.5207
  118MOL   C19249566   4.290   4.808   6.098  0.2793 -0.3271 -0.8005
  118MOL   C19349567   4.383   4.932   6.107 -0.2665  0.4147  0.2088
  118MOL   C19449568   4.317   5.072   6.114 -0.6782  0.4146 -0.1936
  118MOL   C19549569   4.183   5.077   6.184  0.4514 -0.0042 -0.3235
  118MOL   C19649570   4.292   5.137   5.975 -0.1265 -0.6430 -0.9589
  118MOL   C19749571   4.420   5.180   6.176 -0.0240 -0.1006  0.6755
  118MOL   H19849572   4.190   4.869   5.909 -0.3458 -1.0720 -0.6646
  118MOL   H19949573   4.163   4.715   5.941  0.9467 -0.4087  0.0784
  118MOL   H20049574   4.197   4.816   6.154 -0.5473  0.2260 -2.2340
  118MOL   H20149575   4.462   4.924   6.032 -1.1832 -0.4843 -0.6740
  118MOL   H20249576   4.442   4.914   6.197 -2.3998 -3.7827  0.9121
  118MOL   H20349577   4.116   5.015   6.125  0.4788 -2.3900  2.1017
  118MOL   H20449578   4.188   5.052   6.290 -0.7499 -1.7401 -0.6586
  118MOL   H20549579   4.143   5.178   6.178 -0.9958 -0.5169  0.5359
  118MOL   H20649580   4.380   5.165   5.917  0.0055 -5.1641 -3.1065
  118MOL   H20749581   4.238   5.069   5.910  0.4497 -0.9196 -1.1472
  118MOL   H20849582   4.236   5.231   5.979  1.6391  0.4351 -1.0157
  118MOL   H20949583   4.446   5.171   6.281 -0.0415  0.2767  0.7125
  118MOL   H21049584   4.518   5.181   6.128 -0.7790 -0.3762 -0.9152
  118MOL   H21149585   4.385   5.282   6.167 -0.1736 -0.0904  1.3599
  118MOL   C21249586   4.366   4.675   6.155 -0.0963  0.0313 -0.2741
  118MOL   C21349587   4.360   4.664   6.309 -0.3349  0.4703 -0.0222
  118MOL   C21449588   4.483   4.593   6.360  0.0432  0.0518  0.6604
  118MOL   C21549589   4.611   4.679   6.398 -0.1837 -0.3351  0.0087
  118MOL   C21649590   4.715   4.598   6.472  0.5277 -0.6468  0.8652
  118MOL   C21749591   4.681   4.734   6.269  0.3454 -0.2771  0.1800
  118MOL   C21849592   4.585   4.798   6.494  0.4104  0.3281  0.5365
  118MOL   H21949593   4.322   4.585   6.111  2.4224 -0.1584 -2.5249
  118MOL   H22049594   4.467   4.689   6.116 -0.3574  0.4610 -0.8120
  118MOL   H22149595   4.355   4.764   6.350 -0.8748  0.2937  0.3408
  118MOL   H22249596   4.526   4.518   6.295  1.2344  1.1747  0.1243
  118MOL   H22349597   4.456   4.536   6.449  1.9367 -2.7977 -0.5392
  118MOL   H22449598   4.736   4.508   6.413  2.9933  0.0458  0.6104
  118MOL   H22549599   4.696   4.577   6.577 -2.0126 -1.3283  0.2925
  118MOL   H22649600   4.810   4.652   6.477  1.0035 -1.5290  1.5595
  118MOL   H22749601   4.707   4.651   6.203  0.7907  1.7113 -2.2009
  118MOL   H22849602   4.621   4.806   6.214  1.2915 -0.2737 -0.8764
  118MOL   H22949603   4.764   4.794   6.308  0.0502  0.2167  0.0524
  118MOL   H23049604   4.541   4.876   6.432 -0.4306 -2.7990 -2.9519
  118MOL   H23149605   4.676   4.837   6.539  0.5676  0.1079  0.4073
  118MOL   H23249606   4.522   4.785   6.582  0.0790  0.3635  0.3060
  118MOL   C23349607   4.232   4.582   6.339  0.7937 -0.0271 -0.4288
  118MOL   C23449608   4.191   4.548   6.493  0.2972  0.2527  0.2443
  118MOL   C23549609   4.204   4.668   6.595  0.6225 -0.2245 -0.2080
  118MOL   C23649610   4.099   4.793   6.598 -0.3700 -0.1933 -0.3205
  118MOL   C23749611   4.170   4.897   6.700  0.1969  0.6223  0.1895
  118MOL   C23849612   4.060   4.850   6.463  0.0631 -0.3145 -0.1243
  118MOL   C23949613   3.965   4.749   6.666 -0.6360 -0.5758  0.4787
  118MOL   H24049614   4.253   4.483   6.299 -1.9644 -0.7809 -0.1548
  118MOL   H24149615   4.142   4.614   6.286  0.5683  0.9923  0.5499
  118MOL   H24249616   4.264   4.474   6.527 -0.5880 -1.2476 -1.0210
  118MOL   H24349617   4.212   4.610   6.686 -4.0694  0.1577  0.5419
  118MOL   H24449618   4.304   4.712   6.585  0.8152 -1.0407 -2.0236
  118MOL   H24549619   4.221   4.847   6.782 -1.4186 -0.0805  0.7904
  118MOL   H24649620   4.112   4.987   6.718 -1.2560  0.8411 -4.8366
  118MOL   H24749621   4.255   4.944   6.651  2.6842  1.8708  5.3965
  118MOL   H24849622   3.985   4.783   6.420 -1.5499  1.6605 -0.4468
  118MOL   H24949623   4.021   4.951   6.472  0.0242 -0.4818  1.5717
  118MOL   H25049624   4.149   4.860   6.401  0.9639  1.5049  1.4253
  118MOL   H25149625   3.926   4.654   6.630  0.7771 -1.5692  1.5082
  118MOL   H25249626   3.991   4.719   6.767 -1.4771 -0.6541  0.6761
  118MOL   H25349627   3.889   4.827   6.672 -0.8827 -0.6771 -0.9358
  118MOL   C25449628   4.059   4.477   6.508  1.0036  0.5965 -0.4104
  118MOL   C25549629   4.058   4.331   6.449  0.1299 -0.1598 -0.1460
  118MOL   C25649630   3.903   4.294   6.419  0.0381 -0.1436  0.9094
  118MOL   C25749631   3.834   4.320   6.286  0.6013  0.6438  0.1904
  118MOL   C25849632   3.908   4.239   6.181 -0.3938  0.3108 -0.4445
  118MOL   C25949633   3.836   4.467   6.229  0.1143 -0.0883  0.3334
  118MOL   C26049634   3.694   4.267   6.293 -0.2927 -0.0120 -0.0217
  118MOL   H26149635   3.977   4.534   6.466  0.0921  0.0996  0.6686
  118MOL   H26249636   4.040   4.471   6.615  1.4485  1.7637 -0.2556
  118MOL   H26349637   4.113   4.338   6.355  0.0801  1.1549 -0.0882
  118MOL   H26449638   3.886   4.188   6.438  1.6358 -0.5555  0.1311
  118MOL   H26549639   3.844   4.349   6.491  3.1172  3.5058  0.8183
  118MOL   H26649640   3.910   4.134   6.209  1.3040  0.0379 -1.5421
  118MOL   H26749641   4.009   4.272   6.158 -0.4509  2.9477  2.7626
  118MOL   H26849642   3.848   4.233   6.090  0.0146  1.1029 -0.7722
  118MOL   H26949643   3.790   4.533   6.304 -2.7331 -2.2187  0.5433
  118MOL   H27049644   3.786   4.484   6.134 -0.1058  2.3286  0.8291
  118MOL   H27149645   3.939   4.503   6.223  0.0856  0.0484  0.6358
  118MOL   H27249646   3.655   4.275   6.192 -1.0529 -1.4098  0.1567
  118MOL   H27349647   3.693   4.161   6.320  1.0868  0.1212  0.6294
  118MOL   H27449648   3.637   4.313   6.373 -1.1749 -2.3777  0.7622
  118MOL   C27549649   4.119   4.229   6.543 -0.3042  0.2040  0.2154
  118MOL   C27649650   4.135   4.082   6.486 -0.3711 -0.4488 -1.0686
  118MOL   C27749651   4.282   4.028   6.496  0.9011  0.0031 -0.0515
  118MOL   C27849652   4.364   4.047   6.367 -0.5661  0.6500  0.3212
  118MOL   C27949653   4.359   4.189   6.316 -0.3526 -0.5989 -0.0873
  118MOL   C28049654   4.510   4.008   6.391  0.7880 -0.3115 -0.1769
  118MOL   C28149655   4.307   3.951   6.255 -0.4036 -0.0226 -0.6075
  118MOL   H28249656   4.215   4.268   6.576  0.2676  0.3058 -1.5540
  118MOL   H28349657   4.051   4.226   6.629  0.6833 -0.0212  1.0050
  118MOL   H28449658   4.093   4.078   6.386 -2.6378 -2.2211 -0.0903
  118MOL   H28549659   4.296   3.923   6.522  1.6936 -0.3309 -1.7424
  118MOL   H28649660   4.321   4.089   6.578 -0.2767  0.6072  0.0599
  118MOL   H28749661   4.263   4.212   6.269  0.1587 -0.0530 -0.8934
  118MOL   H28849662   4.380   4.255   6.400  2.0475 -0.4389 -0.7866
  118MOL   H28949663   4.438   4.203   6.243  0.3810  0.4010  0.8889
  118MOL   H29049664   4.561   3.998   6.295 -0.9518  0.3826 -1.1825
  118MOL   H29149665   4.511   3.908   6.435  0.6123 -0.1350  0.2277
  118MOL   H29249666   4.566   4.068   6.463  2.2325 -0.6915 -0.9612
  118MOL   H29349667   4.204   3.969   6.226 -0.7954  1.1076  1.4197
  118MOL   H29449668   4.315   3.847   6.287  2.3001 -0.0604 -1.2475
  118MOL   H29549669   4.359   3.958   6.159 -1.0020 -0.7749 -0.9927
  118MOL   C29649670   4.050   3.983   6.578  0.1687 -0.2954 -0.2489
  118MOL   C29749671   3.982   3.856   6.521  0.0861  0.0458  0.1720
  118MOL   C29849672   3.878   3.810   6.630 -0.0053  0.5654  0.8464
  118MOL   C29949673   3.734   3.816   6.597  0.5282  0.2103  0.4544
  118MOL   C30049674   3.696   3.752   6.457  0.8082  0.1085  0.2843
  118MOL   C30149675   3.652   3.757   6.704 -0.2969  0.0282 -0.3807
  118MOL   C30249676   3.693   3.966   6.593 -0.2568 -1.0418  0.4821
  118MOL   H30349677   3.964   4.037   6.616  0.3106 -1.6539  2.1038
  118MOL   H30449678   4.103   3.956   6.670 -0.2835 -2.2035 -0.5221
  118MOL   H30549679   3.938   3.904   6.434  0.9401 -0.7019 -0.6822
  118MOL   H30649680   3.906   3.858   6.724 -0.0361  1.3157  0.4717
  118MOL   H30749681   3.902   3.710   6.665 -1.9942 -0.0673  0.4364
  118MOL   H30849682   3.770   3.756   6.377  0.5222  0.4453  0.0335
  118MOL   H30949683   3.665   3.648   6.471 -1.8788  0.3702 -2.8831
  118MOL   H31049684   3.604   3.792   6.414  0.6030 -1.3371 -0.6895
  118MOL   H31149685   3.664   3.803   6.802  0.0634  0.1756 -0.4928
  118MOL   H31249686   3.547   3.773   6.680  0.0426  0.8981 -1.3128
  118MOL   H31349687   3.667   3.649   6.714  1.5399  0.1975 -1.0819
  118MOL   H31449688   3.715   4.017   6.686 -1.0053 -1.7097  1.0312
  118MOL   H31549689   3.737   4.018   6.508 -1.8069  0.1203  0.3516
  118MOL   H31649690   3.584   3.976   6.588  0.1027  3.9934 -0.5151
  118MOL   C31749691   4.060   3.751   6.446  0.3225 -0.2754 -0.0138
  118MOL   C31849692   4.127   3.633   6.522 -0.2408 -0.6895  0.1810
  118MOL   C31949693   4.224   3.561   6.423 -0.5492 -0.1292 -0.6828
  118MOL   C32049694   4.175   3.484   6.298  0.2904 -0.7798 -0.4010
  118MOL   C32149695   4.293   3.419   6.237  0.7054 -0.0420  0.1106
  118MOL   C32249696   4.125   3.571   6.185 -0.1526 -0.2173  1.3503
  118MOL   C32349697   4.064   3.386   6.330 -0.2667  0.4589 -0.3116
  118MOL   H32449698   3.984   3.706   6.381  0.2281 -1.3746  0.8347
  118MOL   H32549699   4.134   3.798   6.382 -0.8798  0.1511 -1.1085
  118MOL   H32649700   4.045   3.567   6.552  0.0951 -0.0948  2.4885
  118MOL   H32749701   4.283   3.497   6.489 -0.6258 -0.3415 -0.8192
  118MOL   H32849702   4.299   3.637   6.400 -1.2837  1.0904  0.8053
  118MOL   H32949703   4.376   3.488   6.217  0.6513  0.1028  0.3915
  118MOL   H33049704   4.267   3.370   6.143  1.2039 -0.0751 -0.0156
  118MOL   H33149705   4.333   3.342   6.303  0.2185 -1.4941 -1.2554
  118MOL   H33249706   4.130   3.525   6.086  3.5954  1.1541  0.8439
  118MOL   H33349707   4.024   3.606   6.206 -0.2961  0.4904 -0.4011
  118MOL   H33449708   4.183   3.663   6.185 -0.7291  0.1632  0.1652
  118MOL   H33549709   3.975   3.438   6.367 -0.9962  0.6506 -2.2413
  118MOL   H33649710   4.096   3.309   6.400 -0.5277 -0.6346 -1.3697
  118MOL   H33749711   4.031   3.331   6.242  0.1626 -1.5026  0.7439
  118MOL   C33849712   4.202   3.677   6.652  0.6492 -0.0027 -0.3508
  118MOL   C33949713   4.230   3.557   6.749 -0.2545 -0.2286  0.9008
  118MOL   C34049714   4.113   3.520   6.840 -0.3228 -0.8483  0.3309
  118MOL   C34149715   4.094   3.373   6.888  0.2735 -1.2016 -0.4120
  118MOL   C34249716   4.194   3.317   6.992 -0.6664 -0.1702  1.4885
  118MOL   C34349717   3.956   3.385   6.959 -0.3854 -0.9511 -0.4211
  118MOL   C34449718   4.069   3.279   6.771 -0.5157 -0.6179  0.5314
  118MOL   H34549719   4.161   3.760   6.710 -1.4513 -1.3634  0.1825
  118MOL   H34649720   4.300   3.712   6.621  1.0159 -0.9098 -0.2396
  118MOL   H34749721   4.250   3.467   6.690  0.1070  1.7363 -2.1093
  118MOL   H34849722   4.019   3.548   6.792 -0.3731 -2.1201 -0.3171
  118MOL   H34949723   4.119   3.592   6.923 -0.4320 -0.0921 -0.3132
  118MOL   H35049724   4.267   3.264   6.931 -2.1646 -1.6630  0.9610
  118MOL   H35149725   4.246   3.403   7.035 -0.8165  1.1494 -0.8941
  118MOL   H35249726   4.144   3.248   7.060 -0.2542 -0.4899  1.4715
  118MOL   H35349727   3.880   3.401   6.882 -1.7363  0.5871  1.1654
  118MOL   H35449728   3.930   3.294   7.013  1.6026 -1.5588 -0.4490
  118MOL   H35549729   3.940   3.463   7.034  1.5625 -0.2909 -0.6719
  118MOL   H35649730   4.019   3.328   6.688 -0.8790 -0.8161  0.6287
  118MOL   H35749731   4.165   3.247   6.732 -0.6026  3.7660 -3.7071
  118MOL   H35849732   4.005   3.197   6.805 -1.5621 -1.3020 -2.9257
  118MOL   C35949733   4.365   3.581   6.826  0.2475  0.1927 -0.5784
  118MOL   C36049734   4.489   3.513   6.744 -0.9229 -0.3981 -0.1351
  118MOL   C36149735   4.486   3.359   6.763 -0.3572  0.0516 -0.7099
  118MOL   C36249736   4.557   3.272   6.652  0.5314 -0.5171  0.6817
  118MOL   C36349737   4.507   3.309   6.512 -0.1730 -0.4928 -0.2172
  118MOL   C36449738   4.531   3.121   6.677  0.3088 -0.5782 -0.3775
  118MOL   C36549739   4.712   3.297   6.655  0.3998 -0.4026  0.6890
  118MOL   H36649740   4.341   3.538   6.924 -0.2504  0.0648 -0.7543
  118MOL   H36749741   4.386   3.684   6.854 -0.9931  0.1629  0.5253
  118MOL   H36849742   4.482   3.549   6.641 -0.5335  1.8730  0.5852
  118MOL   H36949743   4.523   3.338   6.863 -3.1096 -0.4722  0.2510
  118MOL   H37049744   4.387   3.312   6.757 -0.0731 -0.4646 -1.4427
  118MOL   H37149745   4.400   3.329   6.516  0.2818  2.0753 -0.1379
  118MOL   H37249746   4.555   3.398   6.471 -0.1775 -0.3635  0.0592
  118MOL   H37349747   4.526   3.238   6.431 -1.0135  0.4855 -1.2951
  118MOL   H37449748   4.582   3.100   6.771  0.8467  0.9757 -0.2880
  118MOL   H37549749   4.549   3.056   6.591  1.5974  0.4836 -0.9351
  118MOL   H37649750   4.425   3.109   6.698  0.4643 -0.1194  0.7140
  118MOL   H37749751   4.752   3.229   6.579 -0.4161  0.2481 -0.3425
  118MOL   H37849752   4.760   3.282   6.751  1.3190  0.6108  0.4100
  118MOL   H37949753   4.737   3.398   6.621  0.0841 -0.7878 -0.7408
  118MOL   C38049754   4.621   3.568   6.815  0.2029  0.0167  0.1964
  118MOL   C38149755   4.696   3.684   6.747  0.5759 -0.0559  0.6876
  118MOL   C38249756   4.837   3.720   6.813  0.0001 -0.0500  0.3112
  118MOL   C38349757   4.956   3.744   6.714  0.3612  0.0877  0.3868
  118MOL   C38449758   5.084   3.788   6.796  0.1696  0.0820  0.2084
  118MOL   C38549759   4.920   3.856   6.616  0.0070  0.8109 -0.4497
  118MOL   C38649760   4.990   3.613   6.646 -0.1018  0.1677 -0.9636
  118MOL   H38749761   4.698   3.492   6.805 -0.9340 -0.9726 -1.2879
  118MOL   H38849762   4.598   3.595   6.917 -0.0466  0.2856  0.0690
  118MOL   H38949763   4.708   3.653   6.644 -0.3907  1.2142  0.1653
  118MOL   H39049764   4.831   3.808   6.877  0.6650  0.4345 -0.2971
  118MOL   H39149765   4.861   3.642   6.886  1.1702 -0.7342 -0.7867
  118MOL   H39249766   5.072   3.887   6.839  1.2949 -0.1062  0.9614
  118MOL   H39349767   5.090   3.713   6.875  1.1352  0.0334  0.0878
  118MOL   H39449768   5.180   3.788   6.744  1.1522 -0.0867  1.9786
  118MOL   H39549769   4.895   3.947   6.671  1.0716  0.5019  0.5776
  118MOL   H39649770   4.831   3.830   6.559 -0.9494 -0.6989  1.6428
  118MOL   H39749771   5.004   3.878   6.550 -0.1488  1.4410 -0.4417
  118MOL   H39849772   4.994   3.525   6.711  1.2608  2.1982  1.8107
  118MOL   H39949773   5.087   3.609   6.597 -0.3399 -0.2469 -1.4057
  118MOL   H40049774   4.914   3.595   6.569  0.2089 -1.9663 -0.8161
  118MOL   C40149775   4.604   3.814   6.746  0.1522 -0.6938  0.6670
  118MOL   C40249776   4.573   3.882   6.883  0.1279 -0.2458 -1.1040
  118MOL   C40349777   4.460   3.986   6.870  0.2456  0.3629  0.1334
  118MOL   C40449778   4.419   4.066   7.001 -0.6981  0.1782  0.1259
  118MOL   C40549779   4.546   4.134   7.054 -0.5774  0.0532 -0.6699
  118MOL   C40649780   4.360   3.972   7.112  0.0540 -0.6168  0.4585
  118MOL   C40749781   4.314   4.182   6.974 -0.0205 -0.1058 -0.4739
  118MOL   H40849782   4.646   3.890   6.681 -0.6021 -0.3849  0.5333
  118MOL   H40949783   4.508   3.790   6.699  0.4397 -0.7162  0.0761
  118MOL   H41049784   4.569   3.800   6.955 -0.0454 -0.2723 -1.1439
  118MOL   H41149785   4.371   3.942   6.826 -0.5716  0.7688  1.3696
  118MOL   H41249786   4.488   4.065   6.800 -3.7075  0.8615 -0.9627
  118MOL   H41349787   4.519   4.191   7.143  4.4491  1.9829 -0.2222
  118MOL   H41449788   4.593   4.205   6.986  1.1782 -0.9442 -0.5270
  118MOL   H41549789   4.623   4.066   7.090 -1.0489 -0.1473 -0.0350
  118MOL   H41649790   4.426   3.911   7.174 -1.1078 -0.5792  1.7288
  118MOL   H41749791   4.295   3.901   7.062  1.3657 -1.2437 -0.4021
  118MOL   H41849792   4.303   4.034   7.180  0.1171  0.2143 -0.2423
  118MOL   H41949793   4.222   4.144   6.928 -0.0086  1.6998 -2.0780
  118MOL   H42049794   4.285   4.233   7.066  1.0903  1.8126 -1.1432
  118MOL   H42149795   4.341   4.256   6.898 -2.4372 -0.6613 -1.9305
  118MOL   H42249796   4.661   3.936   6.921 -1.4751  1.8096 -0.2088
   7.76589   7.76589   7.76589
