;
; Gromacs include topology (itp) file.
; For Molecular Group XYZ
; Force field scheme: opls2005
; Produced from DL_FIELD v4.11
;


[ moleculetype ]
; name    nrexcl
XYZ    3

[ atoms ]
; nr   type   resnr   residu    atom    cgnr    charge    mass
    1        CT    1  MOL      C1     1   0.1400000   12.0115
    2        OS    1  MOL      O2     2  -0.4000000   15.9994
    3        CO    1  MOL      C3     3   0.2000000   12.0115
    4        OS    1  MOL      O4     4  -0.2850000   15.9994
    5        CA    1  MOL      C5     5   0.0850000   12.0115
    6        CA    1  MOL      C6     6  -0.1150000   12.0115
    7        CA    1  MOL      C7     7  -0.1150000   12.0115
    8        CA    1  MOL      C8     8  -0.1150000   12.0115
    9        CA    1  MOL      C9     9  -0.1150000   12.0115
   10        CA    1  MOL     C10    10  -0.1150000   12.0115
   11        CT    1  MOL     C11    11  -0.1200000   12.0115
   12        HC    1  MOL     H12    12   0.0300000    1.0080
   13        HC    1  MOL     H13    13   0.1000000    1.0080
   14        HC    1  MOL     H14    14   0.1000000    1.0080
   15        HA    1  MOL     H15    15   0.1150000    1.0080
   16        HA    1  MOL     H16    16   0.1150000    1.0080
   17        HA    1  MOL     H17    17   0.1150000    1.0080
   18        HA    1  MOL     H18    18   0.1150000    1.0080
   19        HA    1  MOL     H19    19   0.1150000    1.0080
   20        HC    1  MOL     H20    20   0.0600000    1.0080
   21        HC    1  MOL     H21    21   0.0600000    1.0080
   22        HC    1  MOL     H22    22   0.0300000    1.0080
   23        CT    1  MOL     C23    23   0.1700000   12.0115
   24        OS    1  MOL     O24    24  -0.4000000   15.9994
   25        CO    1  MOL     C25    25   0.2000000   12.0115
   26        OS    1  MOL     O26    26  -0.2850000   15.9994
   27        CA    1  MOL     C27    27   0.0850000   12.0115
   28        CA    1  MOL     C28    28  -0.1150000   12.0115
   29        CA    1  MOL     C29    29  -0.1150000   12.0115
   30        CA    1  MOL     C30    30  -0.1150000   12.0115
   31        CA    1  MOL     C31    31  -0.1150000   12.0115
   32        CA    1  MOL     C32    32  -0.1150000   12.0115
   33        CT    1  MOL     C33    33  -0.1200000   12.0115
   34        HC    1  MOL     H34    34   0.0300000    1.0080
   35        HC    1  MOL     H35    35   0.1000000    1.0080
   36        HC    1  MOL     H36    36   0.1000000    1.0080
   37        HA    1  MOL     H37    37   0.1150000    1.0080
   38        HA    1  MOL     H38    38   0.1150000    1.0080
   39        HA    1  MOL     H39    39   0.1150000    1.0080
   40        HA    1  MOL     H40    40   0.1150000    1.0080
   41        HA    1  MOL     H41    41   0.1150000    1.0080
   42        HC    1  MOL     H42    42   0.0600000    1.0080
   43        HC    1  MOL     H43    43   0.0600000    1.0080
   44        CT    1  MOL     C44    44   0.1700000   12.0115
   45        OS    1  MOL     O45    45  -0.4000000   15.9994
   46        CO    1  MOL     C46    46   0.2000000   12.0115
   47        OS    1  MOL     O47    47  -0.2850000   15.9994
   48        CA    1  MOL     C48    48   0.0850000   12.0115
   49        CA    1  MOL     C49    49  -0.1150000   12.0115
   50        CA    1  MOL     C50    50  -0.1150000   12.0115
   51        CA    1  MOL     C51    51  -0.1150000   12.0115
   52        CA    1  MOL     C52    52  -0.1150000   12.0115
   53        CA    1  MOL     C53    53  -0.1150000   12.0115
   54        CT    1  MOL     C54    54  -0.1200000   12.0115
   55        HC    1  MOL     H55    55   0.0300000    1.0080
   56        HC    1  MOL     H56    56   0.1000000    1.0080
   57        HC    1  MOL     H57    57   0.1000000    1.0080
   58        HA    1  MOL     H58    58   0.1150000    1.0080
   59        HA    1  MOL     H59    59   0.1150000    1.0080
   60        HA    1  MOL     H60    60   0.1150000    1.0080
   61        HA    1  MOL     H61    61   0.1150000    1.0080
   62        HA    1  MOL     H62    62   0.1150000    1.0080
   63        HC    1  MOL     H63    63   0.0600000    1.0080
   64        HC    1  MOL     H64    64   0.0600000    1.0080
   65        CT    1  MOL     C65    65   0.1700000   12.0115
   66        OS    1  MOL     O66    66  -0.4000000   15.9994
   67        CO    1  MOL     C67    67   0.2000000   12.0115
   68        OS    1  MOL     O68    68  -0.2850000   15.9994
   69        CA    1  MOL     C69    69   0.0850000   12.0115
   70        CA    1  MOL     C70    70  -0.1150000   12.0115
   71        CA    1  MOL     C71    71  -0.1150000   12.0115
   72        CA    1  MOL     C72    72  -0.1150000   12.0115
   73        CA    1  MOL     C73    73  -0.1150000   12.0115
   74        CA    1  MOL     C74    74  -0.1150000   12.0115
   75        CT    1  MOL     C75    75  -0.1200000   12.0115
   76        HC    1  MOL     H76    76   0.0300000    1.0080
   77        HC    1  MOL     H77    77   0.1000000    1.0080
   78        HC    1  MOL     H78    78   0.1000000    1.0080
   79        HA    1  MOL     H79    79   0.1150000    1.0080
   80        HA    1  MOL     H80    80   0.1150000    1.0080
   81        HA    1  MOL     H81    81   0.1150000    1.0080
   82        HA    1  MOL     H82    82   0.1150000    1.0080
   83        HA    1  MOL     H83    83   0.1150000    1.0080
   84        HC    1  MOL     H84    84   0.0600000    1.0080
   85        HC    1  MOL     H85    85   0.0600000    1.0080
   86        CT    1  MOL     C86    86   0.1700000   12.0115
   87        OS    1  MOL     O87    87  -0.4000000   15.9994
   88        CO    1  MOL     C88    88   0.2000000   12.0115
   89        OS    1  MOL     O89    89  -0.2850000   15.9994
   90        CA    1  MOL     C90    90   0.0850000   12.0115
   91        CA    1  MOL     C91    91  -0.1150000   12.0115
   92        CA    1  MOL     C92    92  -0.1150000   12.0115
   93        CA    1  MOL     C93    93  -0.1150000   12.0115
   94        CA    1  MOL     C94    94  -0.1150000   12.0115
   95        CA    1  MOL     C95    95  -0.1150000   12.0115
   96        CT    1  MOL     C96    96  -0.1200000   12.0115
   97        HC    1  MOL     H97    97   0.0300000    1.0080
   98        HC    1  MOL     H98    98   0.1000000    1.0080
   99        HC    1  MOL     H99    99   0.1000000    1.0080
  100        HA    1  MOL    H100   100   0.1150000    1.0080
  101        HA    1  MOL    H101   101   0.1150000    1.0080
  102        HA    1  MOL    H102   102   0.1150000    1.0080
  103        HA    1  MOL    H103   103   0.1150000    1.0080
  104        HA    1  MOL    H104   104   0.1150000    1.0080
  105        HC    1  MOL    H105   105   0.0600000    1.0080
  106        HC    1  MOL    H106   106   0.0600000    1.0080
  107        CT    1  MOL    C107   107   0.1700000   12.0115
  108        OS    1  MOL    O108   108  -0.4000000   15.9994
  109        CO    1  MOL    C109   109   0.2000000   12.0115
  110        OS    1  MOL    O110   110  -0.2850000   15.9994
  111        CA    1  MOL    C111   111   0.0850000   12.0115
  112        CA    1  MOL    C112   112  -0.1150000   12.0115
  113        CA    1  MOL    C113   113  -0.1150000   12.0115
  114        CA    1  MOL    C114   114  -0.1150000   12.0115
  115        CA    1  MOL    C115   115  -0.1150000   12.0115
  116        CA    1  MOL    C116   116  -0.1150000   12.0115
  117        CT    1  MOL    C117   117  -0.1200000   12.0115
  118        HC    1  MOL    H118   118   0.0300000    1.0080
  119        HC    1  MOL    H119   119   0.1000000    1.0080
  120        HC    1  MOL    H120   120   0.1000000    1.0080
  121        HA    1  MOL    H121   121   0.1150000    1.0080
  122        HA    1  MOL    H122   122   0.1150000    1.0080
  123        HA    1  MOL    H123   123   0.1150000    1.0080
  124        HA    1  MOL    H124   124   0.1150000    1.0080
  125        HA    1  MOL    H125   125   0.1150000    1.0080
  126        HC    1  MOL    H126   126   0.0600000    1.0080
  127        HC    1  MOL    H127   127   0.0600000    1.0080
  128        CT    1  MOL    C128   128   0.1700000   12.0115
  129        OS    1  MOL    O129   129  -0.4000000   15.9994
  130        CO    1  MOL    C130   130   0.2000000   12.0115
  131        OS    1  MOL    O131   131  -0.2850000   15.9994
  132        CA    1  MOL    C132   132   0.0850000   12.0115
  133        CA    1  MOL    C133   133  -0.1150000   12.0115
  134        CA    1  MOL    C134   134  -0.1150000   12.0115
  135        CA    1  MOL    C135   135  -0.1150000   12.0115
  136        CA    1  MOL    C136   136  -0.1150000   12.0115
  137        CA    1  MOL    C137   137  -0.1150000   12.0115
  138        CT    1  MOL    C138   138  -0.1200000   12.0115
  139        HC    1  MOL    H139   139   0.0300000    1.0080
  140        HC    1  MOL    H140   140   0.1000000    1.0080
  141        HC    1  MOL    H141   141   0.1000000    1.0080
  142        HA    1  MOL    H142   142   0.1150000    1.0080
  143        HA    1  MOL    H143   143   0.1150000    1.0080
  144        HA    1  MOL    H144   144   0.1150000    1.0080
  145        HA    1  MOL    H145   145   0.1150000    1.0080
  146        HA    1  MOL    H146   146   0.1150000    1.0080
  147        HC    1  MOL    H147   147   0.0600000    1.0080
  148        HC    1  MOL    H148   148   0.0600000    1.0080
  149        CT    1  MOL    C149   149   0.1700000   12.0115
  150        OS    1  MOL    O150   150  -0.4000000   15.9994
  151        CO    1  MOL    C151   151   0.2000000   12.0115
  152        OS    1  MOL    O152   152  -0.2850000   15.9994
  153        CA    1  MOL    C153   153   0.0850000   12.0115
  154        CA    1  MOL    C154   154  -0.1150000   12.0115
  155        CA    1  MOL    C155   155  -0.1150000   12.0115
  156        CA    1  MOL    C156   156  -0.1150000   12.0115
  157        CA    1  MOL    C157   157  -0.1150000   12.0115
  158        CA    1  MOL    C158   158  -0.1150000   12.0115
  159        CT    1  MOL    C159   159  -0.1200000   12.0115
  160        HC    1  MOL    H160   160   0.0300000    1.0080
  161        HC    1  MOL    H161   161   0.1000000    1.0080
  162        HC    1  MOL    H162   162   0.1000000    1.0080
  163        HA    1  MOL    H163   163   0.1150000    1.0080
  164        HA    1  MOL    H164   164   0.1150000    1.0080
  165        HA    1  MOL    H165   165   0.1150000    1.0080
  166        HA    1  MOL    H166   166   0.1150000    1.0080
  167        HA    1  MOL    H167   167   0.1150000    1.0080
  168        HC    1  MOL    H168   168   0.0600000    1.0080
  169        HC    1  MOL    H169   169   0.0600000    1.0080
  170        CT    1  MOL    C170   170   0.1700000   12.0115
  171        OS    1  MOL    O171   171  -0.4000000   15.9994
  172        CO    1  MOL    C172   172   0.2000000   12.0115
  173        OS    1  MOL    O173   173  -0.2850000   15.9994
  174        CA    1  MOL    C174   174   0.0850000   12.0115
  175        CA    1  MOL    C175   175  -0.1150000   12.0115
  176        CA    1  MOL    C176   176  -0.1150000   12.0115
  177        CA    1  MOL    C177   177  -0.1150000   12.0115
  178        CA    1  MOL    C178   178  -0.1150000   12.0115
  179        CA    1  MOL    C179   179  -0.1150000   12.0115
  180        CT    1  MOL    C180   180  -0.1200000   12.0115
  181        HC    1  MOL    H181   181   0.0300000    1.0080
  182        HC    1  MOL    H182   182   0.1000000    1.0080
  183        HC    1  MOL    H183   183   0.1000000    1.0080
  184        HA    1  MOL    H184   184   0.1150000    1.0080
  185        HA    1  MOL    H185   185   0.1150000    1.0080
  186        HA    1  MOL    H186   186   0.1150000    1.0080
  187        HA    1  MOL    H187   187   0.1150000    1.0080
  188        HA    1  MOL    H188   188   0.1150000    1.0080
  189        HC    1  MOL    H189   189   0.0600000    1.0080
  190        HC    1  MOL    H190   190   0.0600000    1.0080
  191        CT    1  MOL    C191   191   0.1700000   12.0115
  192        OS    1  MOL    O192   192  -0.4000000   15.9994
  193        CO    1  MOL    C193   193   0.2000000   12.0115
  194        OS    1  MOL    O194   194  -0.2850000   15.9994
  195        CA    1  MOL    C195   195   0.0850000   12.0115
  196        CA    1  MOL    C196   196  -0.1150000   12.0115
  197        CA    1  MOL    C197   197  -0.1150000   12.0115
  198        CA    1  MOL    C198   198  -0.1150000   12.0115
  199        CA    1  MOL    C199   199  -0.1150000   12.0115
  200        CA    1  MOL    C200   200  -0.1150000   12.0115
  201        CT    1  MOL    C201   201  -0.1200000   12.0115
  202        HC    1  MOL    H202   202   0.0300000    1.0080
  203        HC    1  MOL    H203   203   0.1000000    1.0080
  204        HC    1  MOL    H204   204   0.1000000    1.0080
  205        HA    1  MOL    H205   205   0.1150000    1.0080
  206        HA    1  MOL    H206   206   0.1150000    1.0080
  207        HA    1  MOL    H207   207   0.1150000    1.0080
  208        HA    1  MOL    H208   208   0.1150000    1.0080
  209        HA    1  MOL    H209   209   0.1150000    1.0080
  210        HC    1  MOL    H210   210   0.0600000    1.0080
  211        HC    1  MOL    H211   211   0.0600000    1.0080
  212        CT    1  MOL    C212   212   0.1700000   12.0115
  213        OS    1  MOL    O213   213  -0.4000000   15.9994
  214        CO    1  MOL    C214   214   0.2000000   12.0115
  215        OS    1  MOL    O215   215  -0.2850000   15.9994
  216        CA    1  MOL    C216   216   0.0850000   12.0115
  217        CA    1  MOL    C217   217  -0.1150000   12.0115
  218        CA    1  MOL    C218   218  -0.1150000   12.0115
  219        CA    1  MOL    C219   219  -0.1150000   12.0115
  220        CA    1  MOL    C220   220  -0.1150000   12.0115
  221        CA    1  MOL    C221   221  -0.1150000   12.0115
  222        CT    1  MOL    C222   222  -0.1200000   12.0115
  223        HC    1  MOL    H223   223   0.0300000    1.0080
  224        HC    1  MOL    H224   224   0.1000000    1.0080
  225        HC    1  MOL    H225   225   0.1000000    1.0080
  226        HA    1  MOL    H226   226   0.1150000    1.0080
  227        HA    1  MOL    H227   227   0.1150000    1.0080
  228        HA    1  MOL    H228   228   0.1150000    1.0080
  229        HA    1  MOL    H229   229   0.1150000    1.0080
  230        HA    1  MOL    H230   230   0.1150000    1.0080
  231        HC    1  MOL    H231   231   0.0600000    1.0080
  232        HC    1  MOL    H232   232   0.0600000    1.0080
  233        CT    1  MOL    C233   233   0.1700000   12.0115
  234        OS    1  MOL    O234   234  -0.4000000   15.9994
  235        CO    1  MOL    C235   235   0.2000000   12.0115
  236        OS    1  MOL    O236   236  -0.2850000   15.9994
  237        CA    1  MOL    C237   237   0.0850000   12.0115
  238        CA    1  MOL    C238   238  -0.1150000   12.0115
  239        CA    1  MOL    C239   239  -0.1150000   12.0115
  240        CA    1  MOL    C240   240  -0.1150000   12.0115
  241        CA    1  MOL    C241   241  -0.1150000   12.0115
  242        CA    1  MOL    C242   242  -0.1150000   12.0115
  243        CT    1  MOL    C243   243  -0.1200000   12.0115
  244        HC    1  MOL    H244   244   0.0300000    1.0080
  245        HC    1  MOL    H245   245   0.1000000    1.0080
  246        HC    1  MOL    H246   246   0.1000000    1.0080
  247        HA    1  MOL    H247   247   0.1150000    1.0080
  248        HA    1  MOL    H248   248   0.1150000    1.0080
  249        HA    1  MOL    H249   249   0.1150000    1.0080
  250        HA    1  MOL    H250   250   0.1150000    1.0080
  251        HA    1  MOL    H251   251   0.1150000    1.0080
  252        HC    1  MOL    H252   252   0.0600000    1.0080
  253        HC    1  MOL    H253   253   0.0600000    1.0080
  254        CT    1  MOL    C254   254   0.1700000   12.0115
  255        OS    1  MOL    O255   255  -0.4000000   15.9994
  256        CO    1  MOL    C256   256   0.2000000   12.0115
  257        OS    1  MOL    O257   257  -0.2850000   15.9994
  258        CA    1  MOL    C258   258   0.0850000   12.0115
  259        CA    1  MOL    C259   259  -0.1150000   12.0115
  260        CA    1  MOL    C260   260  -0.1150000   12.0115
  261        CA    1  MOL    C261   261  -0.1150000   12.0115
  262        CA    1  MOL    C262   262  -0.1150000   12.0115
  263        CA    1  MOL    C263   263  -0.1150000   12.0115
  264        CT    1  MOL    C264   264  -0.1200000   12.0115
  265        HC    1  MOL    H265   265   0.0300000    1.0080
  266        HC    1  MOL    H266   266   0.1000000    1.0080
  267        HC    1  MOL    H267   267   0.1000000    1.0080
  268        HA    1  MOL    H268   268   0.1150000    1.0080
  269        HA    1  MOL    H269   269   0.1150000    1.0080
  270        HA    1  MOL    H270   270   0.1150000    1.0080
  271        HA    1  MOL    H271   271   0.1150000    1.0080
  272        HA    1  MOL    H272   272   0.1150000    1.0080
  273        HC    1  MOL    H273   273   0.0600000    1.0080
  274        HC    1  MOL    H274   274   0.0600000    1.0080
  275        CT    1  MOL    C275   275   0.1700000   12.0115
  276        OS    1  MOL    O276   276  -0.4000000   15.9994
  277        CO    1  MOL    C277   277   0.2000000   12.0115
  278        OS    1  MOL    O278   278  -0.2850000   15.9994
  279        CA    1  MOL    C279   279   0.0850000   12.0115
  280        CA    1  MOL    C280   280  -0.1150000   12.0115
  281        CA    1  MOL    C281   281  -0.1150000   12.0115
  282        CA    1  MOL    C282   282  -0.1150000   12.0115
  283        CA    1  MOL    C283   283  -0.1150000   12.0115
  284        CA    1  MOL    C284   284  -0.1150000   12.0115
  285        CT    1  MOL    C285   285  -0.1200000   12.0115
  286        HC    1  MOL    H286   286   0.0300000    1.0080
  287        HC    1  MOL    H287   287   0.1000000    1.0080
  288        HC    1  MOL    H288   288   0.1000000    1.0080
  289        HA    1  MOL    H289   289   0.1150000    1.0080
  290        HA    1  MOL    H290   290   0.1150000    1.0080
  291        HA    1  MOL    H291   291   0.1150000    1.0080
  292        HA    1  MOL    H292   292   0.1150000    1.0080
  293        HA    1  MOL    H293   293   0.1150000    1.0080
  294        HC    1  MOL    H294   294   0.0600000    1.0080
  295        HC    1  MOL    H295   295   0.0600000    1.0080
  296        CT    1  MOL    C296   296   0.1700000   12.0115
  297        OS    1  MOL    O297   297  -0.4000000   15.9994
  298        CO    1  MOL    C298   298   0.2000000   12.0115
  299        OS    1  MOL    O299   299  -0.2850000   15.9994
  300        CA    1  MOL    C300   300   0.0850000   12.0115
  301        CA    1  MOL    C301   301  -0.1150000   12.0115
  302        CA    1  MOL    C302   302  -0.1150000   12.0115
  303        CA    1  MOL    C303   303  -0.1150000   12.0115
  304        CA    1  MOL    C304   304  -0.1150000   12.0115
  305        CA    1  MOL    C305   305  -0.1150000   12.0115
  306        CT    1  MOL    C306   306  -0.1200000   12.0115
  307        HC    1  MOL    H307   307   0.0300000    1.0080
  308        HC    1  MOL    H308   308   0.1000000    1.0080
  309        HC    1  MOL    H309   309   0.1000000    1.0080
  310        HA    1  MOL    H310   310   0.1150000    1.0080
  311        HA    1  MOL    H311   311   0.1150000    1.0080
  312        HA    1  MOL    H312   312   0.1150000    1.0080
  313        HA    1  MOL    H313   313   0.1150000    1.0080
  314        HA    1  MOL    H314   314   0.1150000    1.0080
  315        HC    1  MOL    H315   315   0.0600000    1.0080
  316        HC    1  MOL    H316   316   0.0600000    1.0080
  317        CT    1  MOL    C317   317   0.1700000   12.0115
  318        OS    1  MOL    O318   318  -0.4000000   15.9994
  319        CO    1  MOL    C319   319   0.2000000   12.0115
  320        OS    1  MOL    O320   320  -0.2850000   15.9994
  321        CA    1  MOL    C321   321   0.0850000   12.0115
  322        CA    1  MOL    C322   322  -0.1150000   12.0115
  323        CA    1  MOL    C323   323  -0.1150000   12.0115
  324        CA    1  MOL    C324   324  -0.1150000   12.0115
  325        CA    1  MOL    C325   325  -0.1150000   12.0115
  326        CA    1  MOL    C326   326  -0.1150000   12.0115
  327        CT    1  MOL    C327   327  -0.1200000   12.0115
  328        HC    1  MOL    H328   328   0.0300000    1.0080
  329        HC    1  MOL    H329   329   0.1000000    1.0080
  330        HC    1  MOL    H330   330   0.1000000    1.0080
  331        HA    1  MOL    H331   331   0.1150000    1.0080
  332        HA    1  MOL    H332   332   0.1150000    1.0080
  333        HA    1  MOL    H333   333   0.1150000    1.0080
  334        HA    1  MOL    H334   334   0.1150000    1.0080
  335        HA    1  MOL    H335   335   0.1150000    1.0080
  336        HC    1  MOL    H336   336   0.0600000    1.0080
  337        HC    1  MOL    H337   337   0.0600000    1.0080
  338        CT    1  MOL    C338   338   0.1700000   12.0115
  339        OS    1  MOL    O339   339  -0.4000000   15.9994
  340        CO    1  MOL    C340   340   0.2000000   12.0115
  341        OS    1  MOL    O341   341  -0.2850000   15.9994
  342        CA    1  MOL    C342   342   0.0850000   12.0115
  343        CA    1  MOL    C343   343  -0.1150000   12.0115
  344        CA    1  MOL    C344   344  -0.1150000   12.0115
  345        CA    1  MOL    C345   345  -0.1150000   12.0115
  346        CA    1  MOL    C346   346  -0.1150000   12.0115
  347        CA    1  MOL    C347   347  -0.1150000   12.0115
  348        CT    1  MOL    C348   348  -0.1200000   12.0115
  349        HC    1  MOL    H349   349   0.0300000    1.0080
  350        HC    1  MOL    H350   350   0.1000000    1.0080
  351        HC    1  MOL    H351   351   0.1000000    1.0080
  352        HA    1  MOL    H352   352   0.1150000    1.0080
  353        HA    1  MOL    H353   353   0.1150000    1.0080
  354        HA    1  MOL    H354   354   0.1150000    1.0080
  355        HA    1  MOL    H355   355   0.1150000    1.0080
  356        HA    1  MOL    H356   356   0.1150000    1.0080
  357        HC    1  MOL    H357   357   0.0600000    1.0080
  358        HC    1  MOL    H358   358   0.0600000    1.0080
  359        CT    1  MOL    C359   359   0.1700000   12.0115
  360        OS    1  MOL    O360   360  -0.4000000   15.9994
  361        CO    1  MOL    C361   361   0.2000000   12.0115
  362        OS    1  MOL    O362   362  -0.2850000   15.9994
  363        CA    1  MOL    C363   363   0.0850000   12.0115
  364        CA    1  MOL    C364   364  -0.1150000   12.0115
  365        CA    1  MOL    C365   365  -0.1150000   12.0115
  366        CA    1  MOL    C366   366  -0.1150000   12.0115
  367        CA    1  MOL    C367   367  -0.1150000   12.0115
  368        CA    1  MOL    C368   368  -0.1150000   12.0115
  369        CT    1  MOL    C369   369  -0.1200000   12.0115
  370        HC    1  MOL    H370   370   0.0300000    1.0080
  371        HC    1  MOL    H371   371   0.1000000    1.0080
  372        HC    1  MOL    H372   372   0.1000000    1.0080
  373        HA    1  MOL    H373   373   0.1150000    1.0080
  374        HA    1  MOL    H374   374   0.1150000    1.0080
  375        HA    1  MOL    H375   375   0.1150000    1.0080
  376        HA    1  MOL    H376   376   0.1150000    1.0080
  377        HA    1  MOL    H377   377   0.1150000    1.0080
  378        HC    1  MOL    H378   378   0.0600000    1.0080
  379        HC    1  MOL    H379   379   0.0600000    1.0080
  380        CT    1  MOL    C380   380   0.1700000   12.0115
  381        OS    1  MOL    O381   381  -0.4000000   15.9994
  382        CO    1  MOL    C382   382   0.2000000   12.0115
  383        OS    1  MOL    O383   383  -0.2850000   15.9994
  384        CA    1  MOL    C384   384   0.0850000   12.0115
  385        CA    1  MOL    C385   385  -0.1150000   12.0115
  386        CA    1  MOL    C386   386  -0.1150000   12.0115
  387        CA    1  MOL    C387   387  -0.1150000   12.0115
  388        CA    1  MOL    C388   388  -0.1150000   12.0115
  389        CA    1  MOL    C389   389  -0.1150000   12.0115
  390        CT    1  MOL    C390   390  -0.1200000   12.0115
  391        HC    1  MOL    H391   391   0.0300000    1.0080
  392        HC    1  MOL    H392   392   0.1000000    1.0080
  393        HC    1  MOL    H393   393   0.1000000    1.0080
  394        HA    1  MOL    H394   394   0.1150000    1.0080
  395        HA    1  MOL    H395   395   0.1150000    1.0080
  396        HA    1  MOL    H396   396   0.1150000    1.0080
  397        HA    1  MOL    H397   397   0.1150000    1.0080
  398        HA    1  MOL    H398   398   0.1150000    1.0080
  399        HC    1  MOL    H399   399   0.0600000    1.0080
  400        HC    1  MOL    H400   400   0.0600000    1.0080
  401        CT    1  MOL    C401   401   0.1700000   12.0115
  402        OS    1  MOL    O402   402  -0.4000000   15.9994
  403        CO    1  MOL    C403   403   0.2000000   12.0115
  404        OS    1  MOL    O404   404  -0.2850000   15.9994
  405        CA    1  MOL    C405   405   0.0850000   12.0115
  406        CA    1  MOL    C406   406  -0.1150000   12.0115
  407        CA    1  MOL    C407   407  -0.1150000   12.0115
  408        CA    1  MOL    C408   408  -0.1150000   12.0115
  409        CA    1  MOL    C409   409  -0.1150000   12.0115
  410        CA    1  MOL    C410   410  -0.1150000   12.0115
  411        CT    1  MOL    C411   411  -0.1800000   12.0115
  412        HC    1  MOL    H412   412   0.0300000    1.0080
  413        HC    1  MOL    H413   413   0.1000000    1.0080
  414        HC    1  MOL    H414   414   0.1000000    1.0080
  415        HA    1  MOL    H415   415   0.1150000    1.0080
  416        HA    1  MOL    H416   416   0.1150000    1.0080
  417        HA    1  MOL    H417   417   0.1150000    1.0080
  418        HA    1  MOL    H418   418   0.1150000    1.0080
  419        HA    1  MOL    H419   419   0.1150000    1.0080
  420        HC    1  MOL    H420   420   0.0600000    1.0080
  421        HC    1  MOL    H421   421   0.0600000    1.0080
  422        HC    1  MOL    H422   422   0.0600000    1.0080

[ bonds ]
      1      2   1      0.1410 267776.0000
      1     11   1      0.1529 224262.4000
      1     12   1      0.1090 284512.0000
      1     22   1      0.1090 284512.0000
      2      3   1      0.1380 267776.0000
      3      4   1      0.1380 267776.0000
      3     13   1      0.1090 284512.0000
      3     14   1      0.1090 284512.0000
      4      5   1      0.1364 376560.0000
      5      6   1      0.1400 392459.2000
      5     10   1      0.1400 392459.2000
      6      7   1      0.1400 392459.2000
      6     15   1      0.1080 307105.6000
      7      8   1      0.1400 392459.2000
      7     16   1      0.1080 307105.6000
      8      9   1      0.1400 392459.2000
      8     17   1      0.1080 307105.6000
      9     10   1      0.1400 392459.2000
      9     18   1      0.1080 307105.6000
     10     19   1      0.1080 307105.6000
     11     20   1      0.1090 284512.0000
     11     21   1      0.1090 284512.0000
     11     23   1      0.1529 224262.4000
     23     24   1      0.1410 267776.0000
     23     33   1      0.1529 224262.4000
     23     34   1      0.1090 284512.0000
     24     25   1      0.1380 267776.0000
     25     26   1      0.1380 267776.0000
     25     35   1      0.1090 284512.0000
     25     36   1      0.1090 284512.0000
     26     27   1      0.1364 376560.0000
     27     28   1      0.1400 392459.2000
     27     32   1      0.1400 392459.2000
     28     29   1      0.1400 392459.2000
     28     37   1      0.1080 307105.6000
     29     30   1      0.1400 392459.2000
     29     38   1      0.1080 307105.6000
     30     31   1      0.1400 392459.2000
     30     39   1      0.1080 307105.6000
     31     32   1      0.1400 392459.2000
     31     40   1      0.1080 307105.6000
     32     41   1      0.1080 307105.6000
     33     42   1      0.1090 284512.0000
     33     43   1      0.1090 284512.0000
     33     44   1      0.1529 224262.4000
     44     45   1      0.1410 267776.0000
     44     54   1      0.1529 224262.4000
     44     55   1      0.1090 284512.0000
     45     46   1      0.1380 267776.0000
     46     47   1      0.1380 267776.0000
     46     56   1      0.1090 284512.0000
     46     57   1      0.1090 284512.0000
     47     48   1      0.1364 376560.0000
     48     49   1      0.1400 392459.2000
     48     53   1      0.1400 392459.2000
     49     50   1      0.1400 392459.2000
     49     58   1      0.1080 307105.6000
     50     51   1      0.1400 392459.2000
     50     59   1      0.1080 307105.6000
     51     52   1      0.1400 392459.2000
     51     60   1      0.1080 307105.6000
     52     53   1      0.1400 392459.2000
     52     61   1      0.1080 307105.6000
     53     62   1      0.1080 307105.6000
     54     63   1      0.1090 284512.0000
     54     64   1      0.1090 284512.0000
     54     65   1      0.1529 224262.4000
     65     66   1      0.1410 267776.0000
     65     75   1      0.1529 224262.4000
     65     76   1      0.1090 284512.0000
     66     67   1      0.1380 267776.0000
     67     68   1      0.1380 267776.0000
     67     77   1      0.1090 284512.0000
     67     78   1      0.1090 284512.0000
     68     69   1      0.1364 376560.0000
     69     70   1      0.1400 392459.2000
     69     74   1      0.1400 392459.2000
     70     71   1      0.1400 392459.2000
     70     79   1      0.1080 307105.6000
     71     72   1      0.1400 392459.2000
     71     80   1      0.1080 307105.6000
     72     73   1      0.1400 392459.2000
     72     81   1      0.1080 307105.6000
     73     74   1      0.1400 392459.2000
     73     82   1      0.1080 307105.6000
     74     83   1      0.1080 307105.6000
     75     84   1      0.1090 284512.0000
     75     85   1      0.1090 284512.0000
     75     86   1      0.1529 224262.4000
     86     87   1      0.1410 267776.0000
     86     96   1      0.1529 224262.4000
     86     97   1      0.1090 284512.0000
     87     88   1      0.1380 267776.0000
     88     89   1      0.1380 267776.0000
     88     98   1      0.1090 284512.0000
     88     99   1      0.1090 284512.0000
     89     90   1      0.1364 376560.0000
     90     91   1      0.1400 392459.2000
     90     95   1      0.1400 392459.2000
     91     92   1      0.1400 392459.2000
     91    100   1      0.1080 307105.6000
     92     93   1      0.1400 392459.2000
     92    101   1      0.1080 307105.6000
     93     94   1      0.1400 392459.2000
     93    102   1      0.1080 307105.6000
     94     95   1      0.1400 392459.2000
     94    103   1      0.1080 307105.6000
     95    104   1      0.1080 307105.6000
     96    105   1      0.1090 284512.0000
     96    106   1      0.1090 284512.0000
     96    107   1      0.1529 224262.4000
    107    108   1      0.1410 267776.0000
    107    117   1      0.1529 224262.4000
    107    118   1      0.1090 284512.0000
    108    109   1      0.1380 267776.0000
    109    110   1      0.1380 267776.0000
    109    119   1      0.1090 284512.0000
    109    120   1      0.1090 284512.0000
    110    111   1      0.1364 376560.0000
    111    112   1      0.1400 392459.2000
    111    116   1      0.1400 392459.2000
    112    113   1      0.1400 392459.2000
    112    121   1      0.1080 307105.6000
    113    114   1      0.1400 392459.2000
    113    122   1      0.1080 307105.6000
    114    115   1      0.1400 392459.2000
    114    123   1      0.1080 307105.6000
    115    116   1      0.1400 392459.2000
    115    124   1      0.1080 307105.6000
    116    125   1      0.1080 307105.6000
    117    126   1      0.1090 284512.0000
    117    127   1      0.1090 284512.0000
    117    128   1      0.1529 224262.4000
    128    129   1      0.1410 267776.0000
    128    138   1      0.1529 224262.4000
    128    139   1      0.1090 284512.0000
    129    130   1      0.1380 267776.0000
    130    131   1      0.1380 267776.0000
    130    140   1      0.1090 284512.0000
    130    141   1      0.1090 284512.0000
    131    132   1      0.1364 376560.0000
    132    133   1      0.1400 392459.2000
    132    137   1      0.1400 392459.2000
    133    134   1      0.1400 392459.2000
    133    142   1      0.1080 307105.6000
    134    135   1      0.1400 392459.2000
    134    143   1      0.1080 307105.6000
    135    136   1      0.1400 392459.2000
    135    144   1      0.1080 307105.6000
    136    137   1      0.1400 392459.2000
    136    145   1      0.1080 307105.6000
    137    146   1      0.1080 307105.6000
    138    147   1      0.1090 284512.0000
    138    148   1      0.1090 284512.0000
    138    149   1      0.1529 224262.4000
    149    150   1      0.1410 267776.0000
    149    159   1      0.1529 224262.4000
    149    160   1      0.1090 284512.0000
    150    151   1      0.1380 267776.0000
    151    152   1      0.1380 267776.0000
    151    161   1      0.1090 284512.0000
    151    162   1      0.1090 284512.0000
    152    153   1      0.1364 376560.0000
    153    154   1      0.1400 392459.2000
    153    158   1      0.1400 392459.2000
    154    155   1      0.1400 392459.2000
    154    163   1      0.1080 307105.6000
    155    156   1      0.1400 392459.2000
    155    164   1      0.1080 307105.6000
    156    157   1      0.1400 392459.2000
    156    165   1      0.1080 307105.6000
    157    158   1      0.1400 392459.2000
    157    166   1      0.1080 307105.6000
    158    167   1      0.1080 307105.6000
    159    168   1      0.1090 284512.0000
    159    169   1      0.1090 284512.0000
    159    170   1      0.1529 224262.4000
    170    171   1      0.1410 267776.0000
    170    180   1      0.1529 224262.4000
    170    181   1      0.1090 284512.0000
    171    172   1      0.1380 267776.0000
    172    173   1      0.1380 267776.0000
    172    182   1      0.1090 284512.0000
    172    183   1      0.1090 284512.0000
    173    174   1      0.1364 376560.0000
    174    175   1      0.1400 392459.2000
    174    179   1      0.1400 392459.2000
    175    176   1      0.1400 392459.2000
    175    184   1      0.1080 307105.6000
    176    177   1      0.1400 392459.2000
    176    185   1      0.1080 307105.6000
    177    178   1      0.1400 392459.2000
    177    186   1      0.1080 307105.6000
    178    179   1      0.1400 392459.2000
    178    187   1      0.1080 307105.6000
    179    188   1      0.1080 307105.6000
    180    189   1      0.1090 284512.0000
    180    190   1      0.1090 284512.0000
    180    191   1      0.1529 224262.4000
    191    192   1      0.1410 267776.0000
    191    201   1      0.1529 224262.4000
    191    202   1      0.1090 284512.0000
    192    193   1      0.1380 267776.0000
    193    194   1      0.1380 267776.0000
    193    203   1      0.1090 284512.0000
    193    204   1      0.1090 284512.0000
    194    195   1      0.1364 376560.0000
    195    196   1      0.1400 392459.2000
    195    200   1      0.1400 392459.2000
    196    197   1      0.1400 392459.2000
    196    205   1      0.1080 307105.6000
    197    198   1      0.1400 392459.2000
    197    206   1      0.1080 307105.6000
    198    199   1      0.1400 392459.2000
    198    207   1      0.1080 307105.6000
    199    200   1      0.1400 392459.2000
    199    208   1      0.1080 307105.6000
    200    209   1      0.1080 307105.6000
    201    210   1      0.1090 284512.0000
    201    211   1      0.1090 284512.0000
    201    212   1      0.1529 224262.4000
    212    213   1      0.1410 267776.0000
    212    222   1      0.1529 224262.4000
    212    223   1      0.1090 284512.0000
    213    214   1      0.1380 267776.0000
    214    215   1      0.1380 267776.0000
    214    224   1      0.1090 284512.0000
    214    225   1      0.1090 284512.0000
    215    216   1      0.1364 376560.0000
    216    217   1      0.1400 392459.2000
    216    221   1      0.1400 392459.2000
    217    218   1      0.1400 392459.2000
    217    226   1      0.1080 307105.6000
    218    219   1      0.1400 392459.2000
    218    227   1      0.1080 307105.6000
    219    220   1      0.1400 392459.2000
    219    228   1      0.1080 307105.6000
    220    221   1      0.1400 392459.2000
    220    229   1      0.1080 307105.6000
    221    230   1      0.1080 307105.6000
    222    231   1      0.1090 284512.0000
    222    232   1      0.1090 284512.0000
    222    233   1      0.1529 224262.4000
    233    234   1      0.1410 267776.0000
    233    243   1      0.1529 224262.4000
    233    244   1      0.1090 284512.0000
    234    235   1      0.1380 267776.0000
    235    236   1      0.1380 267776.0000
    235    245   1      0.1090 284512.0000
    235    246   1      0.1090 284512.0000
    236    237   1      0.1364 376560.0000
    237    238   1      0.1400 392459.2000
    237    242   1      0.1400 392459.2000
    238    239   1      0.1400 392459.2000
    238    247   1      0.1080 307105.6000
    239    240   1      0.1400 392459.2000
    239    248   1      0.1080 307105.6000
    240    241   1      0.1400 392459.2000
    240    249   1      0.1080 307105.6000
    241    242   1      0.1400 392459.2000
    241    250   1      0.1080 307105.6000
    242    251   1      0.1080 307105.6000
    243    252   1      0.1090 284512.0000
    243    253   1      0.1090 284512.0000
    243    254   1      0.1529 224262.4000
    254    255   1      0.1410 267776.0000
    254    264   1      0.1529 224262.4000
    254    265   1      0.1090 284512.0000
    255    256   1      0.1380 267776.0000
    256    257   1      0.1380 267776.0000
    256    266   1      0.1090 284512.0000
    256    267   1      0.1090 284512.0000
    257    258   1      0.1364 376560.0000
    258    259   1      0.1400 392459.2000
    258    263   1      0.1400 392459.2000
    259    260   1      0.1400 392459.2000
    259    268   1      0.1080 307105.6000
    260    261   1      0.1400 392459.2000
    260    269   1      0.1080 307105.6000
    261    262   1      0.1400 392459.2000
    261    270   1      0.1080 307105.6000
    262    263   1      0.1400 392459.2000
    262    271   1      0.1080 307105.6000
    263    272   1      0.1080 307105.6000
    264    273   1      0.1090 284512.0000
    264    274   1      0.1090 284512.0000
    264    275   1      0.1529 224262.4000
    275    276   1      0.1410 267776.0000
    275    285   1      0.1529 224262.4000
    275    286   1      0.1090 284512.0000
    276    277   1      0.1380 267776.0000
    277    278   1      0.1380 267776.0000
    277    287   1      0.1090 284512.0000
    277    288   1      0.1090 284512.0000
    278    279   1      0.1364 376560.0000
    279    280   1      0.1400 392459.2000
    279    284   1      0.1400 392459.2000
    280    281   1      0.1400 392459.2000
    280    289   1      0.1080 307105.6000
    281    282   1      0.1400 392459.2000
    281    290   1      0.1080 307105.6000
    282    283   1      0.1400 392459.2000
    282    291   1      0.1080 307105.6000
    283    284   1      0.1400 392459.2000
    283    292   1      0.1080 307105.6000
    284    293   1      0.1080 307105.6000
    285    294   1      0.1090 284512.0000
    285    295   1      0.1090 284512.0000
    285    296   1      0.1529 224262.4000
    296    297   1      0.1410 267776.0000
    296    306   1      0.1529 224262.4000
    296    307   1      0.1090 284512.0000
    297    298   1      0.1380 267776.0000
    298    299   1      0.1380 267776.0000
    298    308   1      0.1090 284512.0000
    298    309   1      0.1090 284512.0000
    299    300   1      0.1364 376560.0000
    300    301   1      0.1400 392459.2000
    300    305   1      0.1400 392459.2000
    301    302   1      0.1400 392459.2000
    301    310   1      0.1080 307105.6000
    302    303   1      0.1400 392459.2000
    302    311   1      0.1080 307105.6000
    303    304   1      0.1400 392459.2000
    303    312   1      0.1080 307105.6000
    304    305   1      0.1400 392459.2000
    304    313   1      0.1080 307105.6000
    305    314   1      0.1080 307105.6000
    306    315   1      0.1090 284512.0000
    306    316   1      0.1090 284512.0000
    306    317   1      0.1529 224262.4000
    317    318   1      0.1410 267776.0000
    317    327   1      0.1529 224262.4000
    317    328   1      0.1090 284512.0000
    318    319   1      0.1380 267776.0000
    319    320   1      0.1380 267776.0000
    319    329   1      0.1090 284512.0000
    319    330   1      0.1090 284512.0000
    320    321   1      0.1364 376560.0000
    321    322   1      0.1400 392459.2000
    321    326   1      0.1400 392459.2000
    322    323   1      0.1400 392459.2000
    322    331   1      0.1080 307105.6000
    323    324   1      0.1400 392459.2000
    323    332   1      0.1080 307105.6000
    324    325   1      0.1400 392459.2000
    324    333   1      0.1080 307105.6000
    325    326   1      0.1400 392459.2000
    325    334   1      0.1080 307105.6000
    326    335   1      0.1080 307105.6000
    327    336   1      0.1090 284512.0000
    327    337   1      0.1090 284512.0000
    327    338   1      0.1529 224262.4000
    338    339   1      0.1410 267776.0000
    338    348   1      0.1529 224262.4000
    338    349   1      0.1090 284512.0000
    339    340   1      0.1380 267776.0000
    340    341   1      0.1380 267776.0000
    340    350   1      0.1090 284512.0000
    340    351   1      0.1090 284512.0000
    341    342   1      0.1364 376560.0000
    342    343   1      0.1400 392459.2000
    342    347   1      0.1400 392459.2000
    343    344   1      0.1400 392459.2000
    343    352   1      0.1080 307105.6000
    344    345   1      0.1400 392459.2000
    344    353   1      0.1080 307105.6000
    345    346   1      0.1400 392459.2000
    345    354   1      0.1080 307105.6000
    346    347   1      0.1400 392459.2000
    346    355   1      0.1080 307105.6000
    347    356   1      0.1080 307105.6000
    348    357   1      0.1090 284512.0000
    348    358   1      0.1090 284512.0000
    348    359   1      0.1529 224262.4000
    359    360   1      0.1410 267776.0000
    359    369   1      0.1529 224262.4000
    359    370   1      0.1090 284512.0000
    360    361   1      0.1380 267776.0000
    361    362   1      0.1380 267776.0000
    361    371   1      0.1090 284512.0000
    361    372   1      0.1090 284512.0000
    362    363   1      0.1364 376560.0000
    363    364   1      0.1400 392459.2000
    363    368   1      0.1400 392459.2000
    364    365   1      0.1400 392459.2000
    364    373   1      0.1080 307105.6000
    365    366   1      0.1400 392459.2000
    365    374   1      0.1080 307105.6000
    366    367   1      0.1400 392459.2000
    366    375   1      0.1080 307105.6000
    367    368   1      0.1400 392459.2000
    367    376   1      0.1080 307105.6000
    368    377   1      0.1080 307105.6000
    369    378   1      0.1090 284512.0000
    369    379   1      0.1090 284512.0000
    369    380   1      0.1529 224262.4000
    380    381   1      0.1410 267776.0000
    380    390   1      0.1529 224262.4000
    380    391   1      0.1090 284512.0000
    381    382   1      0.1380 267776.0000
    382    383   1      0.1380 267776.0000
    382    392   1      0.1090 284512.0000
    382    393   1      0.1090 284512.0000
    383    384   1      0.1364 376560.0000
    384    385   1      0.1400 392459.2000
    384    389   1      0.1400 392459.2000
    385    386   1      0.1400 392459.2000
    385    394   1      0.1080 307105.6000
    386    387   1      0.1400 392459.2000
    386    395   1      0.1080 307105.6000
    387    388   1      0.1400 392459.2000
    387    396   1      0.1080 307105.6000
    388    389   1      0.1400 392459.2000
    388    397   1      0.1080 307105.6000
    389    398   1      0.1080 307105.6000
    390    399   1      0.1090 284512.0000
    390    400   1      0.1090 284512.0000
    390    401   1      0.1529 224262.4000
    401    402   1      0.1410 267776.0000
    401    411   1      0.1529 224262.4000
    401    412   1      0.1090 284512.0000
    402    403   1      0.1380 267776.0000
    403    404   1      0.1380 267776.0000
    403    413   1      0.1090 284512.0000
    403    414   1      0.1090 284512.0000
    404    405   1      0.1364 376560.0000
    405    406   1      0.1400 392459.2000
    405    410   1      0.1400 392459.2000
    406    407   1      0.1400 392459.2000
    406    415   1      0.1080 307105.6000
    407    408   1      0.1400 392459.2000
    407    416   1      0.1080 307105.6000
    408    409   1      0.1400 392459.2000
    408    417   1      0.1080 307105.6000
    409    410   1      0.1400 392459.2000
    409    418   1      0.1080 307105.6000
    410    419   1      0.1080 307105.6000
    411    420   1      0.1090 284512.0000
    411    421   1      0.1090 284512.0000
    411    422   1      0.1090 284512.0000

[ pairs ]
; ai   aj   funct   fudge_QQ  charge_i   charge_j   c6    c12
     11      3   2   0.50000    -0.1200000    0.2000000   1.015252e-03  1.866303e-06
     12      3   2   0.50000     0.0300000    0.2000000   2.494471e-04  1.671101e-07
     22      3   2   0.50000     0.0300000    0.2000000   2.494471e-04  1.671101e-07
      2     20   2   0.50000    -0.4000000    0.0600000   2.066619e-04  7.875431e-08
      2     21   2   0.50000    -0.4000000    0.0600000   2.066619e-04  7.875431e-08
      2     23   2   0.50000    -0.4000000    0.1700000   8.411158e-04  8.795366e-07
     12     20   2   0.50000     0.0300000    0.0600000   6.128906e-05  1.496315e-08
     12     21   2   0.50000     0.0300000    0.0600000   6.128906e-05  1.496315e-08
     12     23   2   0.50000     0.0300000    0.1700000   2.494471e-04  1.671101e-07
     22     20   2   0.50000     0.0300000    0.0600000   6.128906e-05  1.496315e-08
     22     21   2   0.50000     0.0300000    0.0600000   6.128906e-05  1.496315e-08
     22     23   2   0.50000     0.0300000    0.1700000   2.494471e-04  1.671101e-07
      1      4   2   0.50000     0.1400000   -0.2850000   8.411158e-04  8.795366e-07
      1     13   2   0.50000     0.1400000    0.1000000   2.494471e-04  1.671101e-07
      1     14   2   0.50000     0.1400000    0.1000000   2.494471e-04  1.671101e-07
      2      5   2   0.50000    -0.4000000    0.0850000   9.038862e-04  9.862632e-07
     13      5   2   0.50000     0.1000000    0.0850000   2.680627e-04  1.873879e-07
     14      5   2   0.50000     0.1000000    0.0850000   2.680627e-04  1.873879e-07
      3      6   2   0.50000     0.2000000   -0.1150000   1.091018e-03  2.092768e-06
      3     10   2   0.50000     0.2000000   -0.1150000   1.091018e-03  2.092768e-06
      4      7   2   0.50000    -0.2850000   -0.1150000   9.038862e-04  9.862632e-07
      4     15   2   0.50000    -0.2850000    0.1150000   1.874504e-04  6.479276e-08
     10      7   2   0.50000    -0.1150000   -0.1150000   1.172438e-03  2.346713e-06
     10     15   2   0.50000    -0.1150000    0.1150000   2.431434e-04  1.541678e-07
      4      9   2   0.50000    -0.2850000   -0.1150000   9.038862e-04  9.862632e-07
      4     19   2   0.50000    -0.2850000    0.1150000   1.874504e-04  6.479276e-08
      6      9   2   0.50000    -0.1150000   -0.1150000   1.172438e-03  2.346713e-06
      6     19   2   0.50000    -0.1150000    0.1150000   2.431434e-04  1.541678e-07
      5      8   2   0.50000     0.0850000   -0.1150000   1.172438e-03  2.346713e-06
      5     16   2   0.50000     0.0850000    0.1150000   2.431434e-04  1.541678e-07
     15      8   2   0.50000     0.1150000   -0.1150000   2.431434e-04  1.541678e-07
     15     16   2   0.50000     0.1150000    0.1150000   5.042375e-05  1.012808e-08
      6     17   2   0.50000    -0.1150000    0.1150000   2.431434e-04  1.541678e-07
     16      9   2   0.50000     0.1150000   -0.1150000   2.431434e-04  1.541678e-07
     16     17   2   0.50000     0.1150000    0.1150000   5.042375e-05  1.012808e-08
      7     18   2   0.50000    -0.1150000    0.1150000   2.431434e-04  1.541678e-07
     17     10   2   0.50000     0.1150000   -0.1150000   2.431434e-04  1.541678e-07
     17     18   2   0.50000     0.1150000    0.1150000   5.042375e-05  1.012808e-08
      8     19   2   0.50000    -0.1150000    0.1150000   2.431434e-04  1.541678e-07
     18      5   2   0.50000     0.1150000    0.0850000   2.431434e-04  1.541678e-07
     18     19   2   0.50000     0.1150000    0.1150000   5.042375e-05  1.012808e-08
      1     24   2   0.50000     0.1400000   -0.4000000   8.411158e-04  8.795366e-07
      1     33   2   0.50000     0.1400000   -0.1200000   1.015252e-03  1.866303e-06
      1     34   2   0.50000     0.1400000    0.0300000   2.494471e-04  1.671101e-07
     20     24   2   0.50000     0.0600000   -0.4000000   2.066619e-04  7.875431e-08
     20     33   2   0.50000     0.0600000   -0.1200000   2.494471e-04  1.671101e-07
     20     34   2   0.50000     0.0600000    0.0300000   6.128906e-05  1.496315e-08
     21     24   2   0.50000     0.0600000   -0.4000000   2.066619e-04  7.875431e-08
     21     33   2   0.50000     0.0600000   -0.1200000   2.494471e-04  1.671101e-07
     21     34   2   0.50000     0.0600000    0.0300000   6.128906e-05  1.496315e-08
     11     25   2   0.50000    -0.1200000    0.2000000   1.015252e-03  1.866303e-06
     33     25   2   0.50000    -0.1200000    0.2000000   1.015252e-03  1.866303e-06
     34     25   2   0.50000     0.0300000    0.2000000   2.494471e-04  1.671101e-07
     11     42   2   0.50000    -0.1200000    0.0600000   2.494471e-04  1.671101e-07
     11     43   2   0.50000    -0.1200000    0.0600000   2.494471e-04  1.671101e-07
     11     44   2   0.50000    -0.1200000    0.1700000   1.015252e-03  1.866303e-06
     24     42   2   0.50000    -0.4000000    0.0600000   2.066619e-04  7.875431e-08
     24     43   2   0.50000    -0.4000000    0.0600000   2.066619e-04  7.875431e-08
     24     44   2   0.50000    -0.4000000    0.1700000   8.411158e-04  8.795366e-07
     34     42   2   0.50000     0.0300000    0.0600000   6.128906e-05  1.496315e-08
     34     43   2   0.50000     0.0300000    0.0600000   6.128906e-05  1.496315e-08
     34     44   2   0.50000     0.0300000    0.1700000   2.494471e-04  1.671101e-07
     23     26   2   0.50000     0.1700000   -0.2850000   8.411158e-04  8.795366e-07
     23     35   2   0.50000     0.1700000    0.1000000   2.494471e-04  1.671101e-07
     23     36   2   0.50000     0.1700000    0.1000000   2.494471e-04  1.671101e-07
     24     27   2   0.50000    -0.4000000    0.0850000   9.038862e-04  9.862632e-07
     35     27   2   0.50000     0.1000000    0.0850000   2.680627e-04  1.873879e-07
     36     27   2   0.50000     0.1000000    0.0850000   2.680627e-04  1.873879e-07
     25     28   2   0.50000     0.2000000   -0.1150000   1.091018e-03  2.092768e-06
     25     32   2   0.50000     0.2000000   -0.1150000   1.091018e-03  2.092768e-06
     26     29   2   0.50000    -0.2850000   -0.1150000   9.038862e-04  9.862632e-07
     26     37   2   0.50000    -0.2850000    0.1150000   1.874504e-04  6.479276e-08
     32     29   2   0.50000    -0.1150000   -0.1150000   1.172438e-03  2.346713e-06
     32     37   2   0.50000    -0.1150000    0.1150000   2.431434e-04  1.541678e-07
     26     31   2   0.50000    -0.2850000   -0.1150000   9.038862e-04  9.862632e-07
     26     41   2   0.50000    -0.2850000    0.1150000   1.874504e-04  6.479276e-08
     28     31   2   0.50000    -0.1150000   -0.1150000   1.172438e-03  2.346713e-06
     28     41   2   0.50000    -0.1150000    0.1150000   2.431434e-04  1.541678e-07
     27     30   2   0.50000     0.0850000   -0.1150000   1.172438e-03  2.346713e-06
     27     38   2   0.50000     0.0850000    0.1150000   2.431434e-04  1.541678e-07
     37     30   2   0.50000     0.1150000   -0.1150000   2.431434e-04  1.541678e-07
     37     38   2   0.50000     0.1150000    0.1150000   5.042375e-05  1.012808e-08
     28     39   2   0.50000    -0.1150000    0.1150000   2.431434e-04  1.541678e-07
     38     31   2   0.50000     0.1150000   -0.1150000   2.431434e-04  1.541678e-07
     38     39   2   0.50000     0.1150000    0.1150000   5.042375e-05  1.012808e-08
     29     40   2   0.50000    -0.1150000    0.1150000   2.431434e-04  1.541678e-07
     39     32   2   0.50000     0.1150000   -0.1150000   2.431434e-04  1.541678e-07
     39     40   2   0.50000     0.1150000    0.1150000   5.042375e-05  1.012808e-08
     30     41   2   0.50000    -0.1150000    0.1150000   2.431434e-04  1.541678e-07
     40     27   2   0.50000     0.1150000    0.0850000   2.431434e-04  1.541678e-07
     40     41   2   0.50000     0.1150000    0.1150000   5.042375e-05  1.012808e-08
     23     45   2   0.50000     0.1700000   -0.4000000   8.411158e-04  8.795366e-07
     23     54   2   0.50000     0.1700000   -0.1200000   1.015252e-03  1.866303e-06
     23     55   2   0.50000     0.1700000    0.0300000   2.494471e-04  1.671101e-07
     42     45   2   0.50000     0.0600000   -0.4000000   2.066619e-04  7.875431e-08
     42     54   2   0.50000     0.0600000   -0.1200000   2.494471e-04  1.671101e-07
     42     55   2   0.50000     0.0600000    0.0300000   6.128906e-05  1.496315e-08
     43     45   2   0.50000     0.0600000   -0.4000000   2.066619e-04  7.875431e-08
     43     54   2   0.50000     0.0600000   -0.1200000   2.494471e-04  1.671101e-07
     43     55   2   0.50000     0.0600000    0.0300000   6.128906e-05  1.496315e-08
     33     46   2   0.50000    -0.1200000    0.2000000   1.015252e-03  1.866303e-06
     54     46   2   0.50000    -0.1200000    0.2000000   1.015252e-03  1.866303e-06
     55     46   2   0.50000     0.0300000    0.2000000   2.494471e-04  1.671101e-07
     33     63   2   0.50000    -0.1200000    0.0600000   2.494471e-04  1.671101e-07
     33     64   2   0.50000    -0.1200000    0.0600000   2.494471e-04  1.671101e-07
     33     65   2   0.50000    -0.1200000    0.1700000   1.015252e-03  1.866303e-06
     45     63   2   0.50000    -0.4000000    0.0600000   2.066619e-04  7.875431e-08
     45     64   2   0.50000    -0.4000000    0.0600000   2.066619e-04  7.875431e-08
     45     65   2   0.50000    -0.4000000    0.1700000   8.411158e-04  8.795366e-07
     55     63   2   0.50000     0.0300000    0.0600000   6.128906e-05  1.496315e-08
     55     64   2   0.50000     0.0300000    0.0600000   6.128906e-05  1.496315e-08
     55     65   2   0.50000     0.0300000    0.1700000   2.494471e-04  1.671101e-07
     44     47   2   0.50000     0.1700000   -0.2850000   8.411158e-04  8.795366e-07
     44     56   2   0.50000     0.1700000    0.1000000   2.494471e-04  1.671101e-07
     44     57   2   0.50000     0.1700000    0.1000000   2.494471e-04  1.671101e-07
     45     48   2   0.50000    -0.4000000    0.0850000   9.038862e-04  9.862632e-07
     56     48   2   0.50000     0.1000000    0.0850000   2.680627e-04  1.873879e-07
     57     48   2   0.50000     0.1000000    0.0850000   2.680627e-04  1.873879e-07
     46     49   2   0.50000     0.2000000   -0.1150000   1.091018e-03  2.092768e-06
     46     53   2   0.50000     0.2000000   -0.1150000   1.091018e-03  2.092768e-06
     47     50   2   0.50000    -0.2850000   -0.1150000   9.038862e-04  9.862632e-07
     47     58   2   0.50000    -0.2850000    0.1150000   1.874504e-04  6.479276e-08
     53     50   2   0.50000    -0.1150000   -0.1150000   1.172438e-03  2.346713e-06
     53     58   2   0.50000    -0.1150000    0.1150000   2.431434e-04  1.541678e-07
     47     52   2   0.50000    -0.2850000   -0.1150000   9.038862e-04  9.862632e-07
     47     62   2   0.50000    -0.2850000    0.1150000   1.874504e-04  6.479276e-08
     49     52   2   0.50000    -0.1150000   -0.1150000   1.172438e-03  2.346713e-06
     49     62   2   0.50000    -0.1150000    0.1150000   2.431434e-04  1.541678e-07
     48     51   2   0.50000     0.0850000   -0.1150000   1.172438e-03  2.346713e-06
     48     59   2   0.50000     0.0850000    0.1150000   2.431434e-04  1.541678e-07
     58     51   2   0.50000     0.1150000   -0.1150000   2.431434e-04  1.541678e-07
     58     59   2   0.50000     0.1150000    0.1150000   5.042375e-05  1.012808e-08
     49     60   2   0.50000    -0.1150000    0.1150000   2.431434e-04  1.541678e-07
     59     52   2   0.50000     0.1150000   -0.1150000   2.431434e-04  1.541678e-07
     59     60   2   0.50000     0.1150000    0.1150000   5.042375e-05  1.012808e-08
     50     61   2   0.50000    -0.1150000    0.1150000   2.431434e-04  1.541678e-07
     60     53   2   0.50000     0.1150000   -0.1150000   2.431434e-04  1.541678e-07
     60     61   2   0.50000     0.1150000    0.1150000   5.042375e-05  1.012808e-08
     51     62   2   0.50000    -0.1150000    0.1150000   2.431434e-04  1.541678e-07
     61     48   2   0.50000     0.1150000    0.0850000   2.431434e-04  1.541678e-07
     61     62   2   0.50000     0.1150000    0.1150000   5.042375e-05  1.012808e-08
     44     66   2   0.50000     0.1700000   -0.4000000   8.411158e-04  8.795366e-07
     44     75   2   0.50000     0.1700000   -0.1200000   1.015252e-03  1.866303e-06
     44     76   2   0.50000     0.1700000    0.0300000   2.494471e-04  1.671101e-07
     63     66   2   0.50000     0.0600000   -0.4000000   2.066619e-04  7.875431e-08
     63     75   2   0.50000     0.0600000   -0.1200000   2.494471e-04  1.671101e-07
     63     76   2   0.50000     0.0600000    0.0300000   6.128906e-05  1.496315e-08
     64     66   2   0.50000     0.0600000   -0.4000000   2.066619e-04  7.875431e-08
     64     75   2   0.50000     0.0600000   -0.1200000   2.494471e-04  1.671101e-07
     64     76   2   0.50000     0.0600000    0.0300000   6.128906e-05  1.496315e-08
     54     67   2   0.50000    -0.1200000    0.2000000   1.015252e-03  1.866303e-06
     75     67   2   0.50000    -0.1200000    0.2000000   1.015252e-03  1.866303e-06
     76     67   2   0.50000     0.0300000    0.2000000   2.494471e-04  1.671101e-07
     54     84   2   0.50000    -0.1200000    0.0600000   2.494471e-04  1.671101e-07
     54     85   2   0.50000    -0.1200000    0.0600000   2.494471e-04  1.671101e-07
     54     86   2   0.50000    -0.1200000    0.1700000   1.015252e-03  1.866303e-06
     66     84   2   0.50000    -0.4000000    0.0600000   2.066619e-04  7.875431e-08
     66     85   2   0.50000    -0.4000000    0.0600000   2.066619e-04  7.875431e-08
     66     86   2   0.50000    -0.4000000    0.1700000   8.411158e-04  8.795366e-07
     76     84   2   0.50000     0.0300000    0.0600000   6.128906e-05  1.496315e-08
     76     85   2   0.50000     0.0300000    0.0600000   6.128906e-05  1.496315e-08
     76     86   2   0.50000     0.0300000    0.1700000   2.494471e-04  1.671101e-07
     65     68   2   0.50000     0.1700000   -0.2850000   8.411158e-04  8.795366e-07
     65     77   2   0.50000     0.1700000    0.1000000   2.494471e-04  1.671101e-07
     65     78   2   0.50000     0.1700000    0.1000000   2.494471e-04  1.671101e-07
     66     69   2   0.50000    -0.4000000    0.0850000   9.038862e-04  9.862632e-07
     77     69   2   0.50000     0.1000000    0.0850000   2.680627e-04  1.873879e-07
     78     69   2   0.50000     0.1000000    0.0850000   2.680627e-04  1.873879e-07
     67     70   2   0.50000     0.2000000   -0.1150000   1.091018e-03  2.092768e-06
     67     74   2   0.50000     0.2000000   -0.1150000   1.091018e-03  2.092768e-06
     68     71   2   0.50000    -0.2850000   -0.1150000   9.038862e-04  9.862632e-07
     68     79   2   0.50000    -0.2850000    0.1150000   1.874504e-04  6.479276e-08
     74     71   2   0.50000    -0.1150000   -0.1150000   1.172438e-03  2.346713e-06
     74     79   2   0.50000    -0.1150000    0.1150000   2.431434e-04  1.541678e-07
     68     73   2   0.50000    -0.2850000   -0.1150000   9.038862e-04  9.862632e-07
     68     83   2   0.50000    -0.2850000    0.1150000   1.874504e-04  6.479276e-08
     70     73   2   0.50000    -0.1150000   -0.1150000   1.172438e-03  2.346713e-06
     70     83   2   0.50000    -0.1150000    0.1150000   2.431434e-04  1.541678e-07
     69     72   2   0.50000     0.0850000   -0.1150000   1.172438e-03  2.346713e-06
     69     80   2   0.50000     0.0850000    0.1150000   2.431434e-04  1.541678e-07
     79     72   2   0.50000     0.1150000   -0.1150000   2.431434e-04  1.541678e-07
     79     80   2   0.50000     0.1150000    0.1150000   5.042375e-05  1.012808e-08
     70     81   2   0.50000    -0.1150000    0.1150000   2.431434e-04  1.541678e-07
     80     73   2   0.50000     0.1150000   -0.1150000   2.431434e-04  1.541678e-07
     80     81   2   0.50000     0.1150000    0.1150000   5.042375e-05  1.012808e-08
     71     82   2   0.50000    -0.1150000    0.1150000   2.431434e-04  1.541678e-07
     81     74   2   0.50000     0.1150000   -0.1150000   2.431434e-04  1.541678e-07
     81     82   2   0.50000     0.1150000    0.1150000   5.042375e-05  1.012808e-08
     72     83   2   0.50000    -0.1150000    0.1150000   2.431434e-04  1.541678e-07
     82     69   2   0.50000     0.1150000    0.0850000   2.431434e-04  1.541678e-07
     82     83   2   0.50000     0.1150000    0.1150000   5.042375e-05  1.012808e-08
     65     87   2   0.50000     0.1700000   -0.4000000   8.411158e-04  8.795366e-07
     65     96   2   0.50000     0.1700000   -0.1200000   1.015252e-03  1.866303e-06
     65     97   2   0.50000     0.1700000    0.0300000   2.494471e-04  1.671101e-07
     84     87   2   0.50000     0.0600000   -0.4000000   2.066619e-04  7.875431e-08
     84     96   2   0.50000     0.0600000   -0.1200000   2.494471e-04  1.671101e-07
     84     97   2   0.50000     0.0600000    0.0300000   6.128906e-05  1.496315e-08
     85     87   2   0.50000     0.0600000   -0.4000000   2.066619e-04  7.875431e-08
     85     96   2   0.50000     0.0600000   -0.1200000   2.494471e-04  1.671101e-07
     85     97   2   0.50000     0.0600000    0.0300000   6.128906e-05  1.496315e-08
     75     88   2   0.50000    -0.1200000    0.2000000   1.015252e-03  1.866303e-06
     96     88   2   0.50000    -0.1200000    0.2000000   1.015252e-03  1.866303e-06
     97     88   2   0.50000     0.0300000    0.2000000   2.494471e-04  1.671101e-07
     75    105   2   0.50000    -0.1200000    0.0600000   2.494471e-04  1.671101e-07
     75    106   2   0.50000    -0.1200000    0.0600000   2.494471e-04  1.671101e-07
     75    107   2   0.50000    -0.1200000    0.1700000   1.015252e-03  1.866303e-06
     87    105   2   0.50000    -0.4000000    0.0600000   2.066619e-04  7.875431e-08
     87    106   2   0.50000    -0.4000000    0.0600000   2.066619e-04  7.875431e-08
     87    107   2   0.50000    -0.4000000    0.1700000   8.411158e-04  8.795366e-07
     97    105   2   0.50000     0.0300000    0.0600000   6.128906e-05  1.496315e-08
     97    106   2   0.50000     0.0300000    0.0600000   6.128906e-05  1.496315e-08
     97    107   2   0.50000     0.0300000    0.1700000   2.494471e-04  1.671101e-07
     86     89   2   0.50000     0.1700000   -0.2850000   8.411158e-04  8.795366e-07
     86     98   2   0.50000     0.1700000    0.1000000   2.494471e-04  1.671101e-07
     86     99   2   0.50000     0.1700000    0.1000000   2.494471e-04  1.671101e-07
     87     90   2   0.50000    -0.4000000    0.0850000   9.038862e-04  9.862632e-07
     98     90   2   0.50000     0.1000000    0.0850000   2.680627e-04  1.873879e-07
     99     90   2   0.50000     0.1000000    0.0850000   2.680627e-04  1.873879e-07
     88     91   2   0.50000     0.2000000   -0.1150000   1.091018e-03  2.092768e-06
     88     95   2   0.50000     0.2000000   -0.1150000   1.091018e-03  2.092768e-06
     89     92   2   0.50000    -0.2850000   -0.1150000   9.038862e-04  9.862632e-07
     89    100   2   0.50000    -0.2850000    0.1150000   1.874504e-04  6.479276e-08
     95     92   2   0.50000    -0.1150000   -0.1150000   1.172438e-03  2.346713e-06
     95    100   2   0.50000    -0.1150000    0.1150000   2.431434e-04  1.541678e-07
     89     94   2   0.50000    -0.2850000   -0.1150000   9.038862e-04  9.862632e-07
     89    104   2   0.50000    -0.2850000    0.1150000   1.874504e-04  6.479276e-08
     91     94   2   0.50000    -0.1150000   -0.1150000   1.172438e-03  2.346713e-06
     91    104   2   0.50000    -0.1150000    0.1150000   2.431434e-04  1.541678e-07
     90     93   2   0.50000     0.0850000   -0.1150000   1.172438e-03  2.346713e-06
     90    101   2   0.50000     0.0850000    0.1150000   2.431434e-04  1.541678e-07
    100     93   2   0.50000     0.1150000   -0.1150000   2.431434e-04  1.541678e-07
    100    101   2   0.50000     0.1150000    0.1150000   5.042375e-05  1.012808e-08
     91    102   2   0.50000    -0.1150000    0.1150000   2.431434e-04  1.541678e-07
    101     94   2   0.50000     0.1150000   -0.1150000   2.431434e-04  1.541678e-07
    101    102   2   0.50000     0.1150000    0.1150000   5.042375e-05  1.012808e-08
     92    103   2   0.50000    -0.1150000    0.1150000   2.431434e-04  1.541678e-07
    102     95   2   0.50000     0.1150000   -0.1150000   2.431434e-04  1.541678e-07
    102    103   2   0.50000     0.1150000    0.1150000   5.042375e-05  1.012808e-08
     93    104   2   0.50000    -0.1150000    0.1150000   2.431434e-04  1.541678e-07
    103     90   2   0.50000     0.1150000    0.0850000   2.431434e-04  1.541678e-07
    103    104   2   0.50000     0.1150000    0.1150000   5.042375e-05  1.012808e-08
     86    108   2   0.50000     0.1700000   -0.4000000   8.411158e-04  8.795366e-07
     86    117   2   0.50000     0.1700000   -0.1200000   1.015252e-03  1.866303e-06
     86    118   2   0.50000     0.1700000    0.0300000   2.494471e-04  1.671101e-07
    105    108   2   0.50000     0.0600000   -0.4000000   2.066619e-04  7.875431e-08
    105    117   2   0.50000     0.0600000   -0.1200000   2.494471e-04  1.671101e-07
    105    118   2   0.50000     0.0600000    0.0300000   6.128906e-05  1.496315e-08
    106    108   2   0.50000     0.0600000   -0.4000000   2.066619e-04  7.875431e-08
    106    117   2   0.50000     0.0600000   -0.1200000   2.494471e-04  1.671101e-07
    106    118   2   0.50000     0.0600000    0.0300000   6.128906e-05  1.496315e-08
     96    109   2   0.50000    -0.1200000    0.2000000   1.015252e-03  1.866303e-06
    117    109   2   0.50000    -0.1200000    0.2000000   1.015252e-03  1.866303e-06
    118    109   2   0.50000     0.0300000    0.2000000   2.494471e-04  1.671101e-07
     96    126   2   0.50000    -0.1200000    0.0600000   2.494471e-04  1.671101e-07
     96    127   2   0.50000    -0.1200000    0.0600000   2.494471e-04  1.671101e-07
     96    128   2   0.50000    -0.1200000    0.1700000   1.015252e-03  1.866303e-06
    108    126   2   0.50000    -0.4000000    0.0600000   2.066619e-04  7.875431e-08
    108    127   2   0.50000    -0.4000000    0.0600000   2.066619e-04  7.875431e-08
    108    128   2   0.50000    -0.4000000    0.1700000   8.411158e-04  8.795366e-07
    118    126   2   0.50000     0.0300000    0.0600000   6.128906e-05  1.496315e-08
    118    127   2   0.50000     0.0300000    0.0600000   6.128906e-05  1.496315e-08
    118    128   2   0.50000     0.0300000    0.1700000   2.494471e-04  1.671101e-07
    107    110   2   0.50000     0.1700000   -0.2850000   8.411158e-04  8.795366e-07
    107    119   2   0.50000     0.1700000    0.1000000   2.494471e-04  1.671101e-07
    107    120   2   0.50000     0.1700000    0.1000000   2.494471e-04  1.671101e-07
    108    111   2   0.50000    -0.4000000    0.0850000   9.038862e-04  9.862632e-07
    119    111   2   0.50000     0.1000000    0.0850000   2.680627e-04  1.873879e-07
    120    111   2   0.50000     0.1000000    0.0850000   2.680627e-04  1.873879e-07
    109    112   2   0.50000     0.2000000   -0.1150000   1.091018e-03  2.092768e-06
    109    116   2   0.50000     0.2000000   -0.1150000   1.091018e-03  2.092768e-06
    110    113   2   0.50000    -0.2850000   -0.1150000   9.038862e-04  9.862632e-07
    110    121   2   0.50000    -0.2850000    0.1150000   1.874504e-04  6.479276e-08
    116    113   2   0.50000    -0.1150000   -0.1150000   1.172438e-03  2.346713e-06
    116    121   2   0.50000    -0.1150000    0.1150000   2.431434e-04  1.541678e-07
    110    115   2   0.50000    -0.2850000   -0.1150000   9.038862e-04  9.862632e-07
    110    125   2   0.50000    -0.2850000    0.1150000   1.874504e-04  6.479276e-08
    112    115   2   0.50000    -0.1150000   -0.1150000   1.172438e-03  2.346713e-06
    112    125   2   0.50000    -0.1150000    0.1150000   2.431434e-04  1.541678e-07
    111    114   2   0.50000     0.0850000   -0.1150000   1.172438e-03  2.346713e-06
    111    122   2   0.50000     0.0850000    0.1150000   2.431434e-04  1.541678e-07
    121    114   2   0.50000     0.1150000   -0.1150000   2.431434e-04  1.541678e-07
    121    122   2   0.50000     0.1150000    0.1150000   5.042375e-05  1.012808e-08
    112    123   2   0.50000    -0.1150000    0.1150000   2.431434e-04  1.541678e-07
    122    115   2   0.50000     0.1150000   -0.1150000   2.431434e-04  1.541678e-07
    122    123   2   0.50000     0.1150000    0.1150000   5.042375e-05  1.012808e-08
    113    124   2   0.50000    -0.1150000    0.1150000   2.431434e-04  1.541678e-07
    123    116   2   0.50000     0.1150000   -0.1150000   2.431434e-04  1.541678e-07
    123    124   2   0.50000     0.1150000    0.1150000   5.042375e-05  1.012808e-08
    114    125   2   0.50000    -0.1150000    0.1150000   2.431434e-04  1.541678e-07
    124    111   2   0.50000     0.1150000    0.0850000   2.431434e-04  1.541678e-07
    124    125   2   0.50000     0.1150000    0.1150000   5.042375e-05  1.012808e-08
    107    129   2   0.50000     0.1700000   -0.4000000   8.411158e-04  8.795366e-07
    107    138   2   0.50000     0.1700000   -0.1200000   1.015252e-03  1.866303e-06
    107    139   2   0.50000     0.1700000    0.0300000   2.494471e-04  1.671101e-07
    126    129   2   0.50000     0.0600000   -0.4000000   2.066619e-04  7.875431e-08
    126    138   2   0.50000     0.0600000   -0.1200000   2.494471e-04  1.671101e-07
    126    139   2   0.50000     0.0600000    0.0300000   6.128906e-05  1.496315e-08
    127    129   2   0.50000     0.0600000   -0.4000000   2.066619e-04  7.875431e-08
    127    138   2   0.50000     0.0600000   -0.1200000   2.494471e-04  1.671101e-07
    127    139   2   0.50000     0.0600000    0.0300000   6.128906e-05  1.496315e-08
    117    130   2   0.50000    -0.1200000    0.2000000   1.015252e-03  1.866303e-06
    138    130   2   0.50000    -0.1200000    0.2000000   1.015252e-03  1.866303e-06
    139    130   2   0.50000     0.0300000    0.2000000   2.494471e-04  1.671101e-07
    117    147   2   0.50000    -0.1200000    0.0600000   2.494471e-04  1.671101e-07
    117    148   2   0.50000    -0.1200000    0.0600000   2.494471e-04  1.671101e-07
    117    149   2   0.50000    -0.1200000    0.1700000   1.015252e-03  1.866303e-06
    129    147   2   0.50000    -0.4000000    0.0600000   2.066619e-04  7.875431e-08
    129    148   2   0.50000    -0.4000000    0.0600000   2.066619e-04  7.875431e-08
    129    149   2   0.50000    -0.4000000    0.1700000   8.411158e-04  8.795366e-07
    139    147   2   0.50000     0.0300000    0.0600000   6.128906e-05  1.496315e-08
    139    148   2   0.50000     0.0300000    0.0600000   6.128906e-05  1.496315e-08
    139    149   2   0.50000     0.0300000    0.1700000   2.494471e-04  1.671101e-07
    128    131   2   0.50000     0.1700000   -0.2850000   8.411158e-04  8.795366e-07
    128    140   2   0.50000     0.1700000    0.1000000   2.494471e-04  1.671101e-07
    128    141   2   0.50000     0.1700000    0.1000000   2.494471e-04  1.671101e-07
    129    132   2   0.50000    -0.4000000    0.0850000   9.038862e-04  9.862632e-07
    140    132   2   0.50000     0.1000000    0.0850000   2.680627e-04  1.873879e-07
    141    132   2   0.50000     0.1000000    0.0850000   2.680627e-04  1.873879e-07
    130    133   2   0.50000     0.2000000   -0.1150000   1.091018e-03  2.092768e-06
    130    137   2   0.50000     0.2000000   -0.1150000   1.091018e-03  2.092768e-06
    131    134   2   0.50000    -0.2850000   -0.1150000   9.038862e-04  9.862632e-07
    131    142   2   0.50000    -0.2850000    0.1150000   1.874504e-04  6.479276e-08
    137    134   2   0.50000    -0.1150000   -0.1150000   1.172438e-03  2.346713e-06
    137    142   2   0.50000    -0.1150000    0.1150000   2.431434e-04  1.541678e-07
    131    136   2   0.50000    -0.2850000   -0.1150000   9.038862e-04  9.862632e-07
    131    146   2   0.50000    -0.2850000    0.1150000   1.874504e-04  6.479276e-08
    133    136   2   0.50000    -0.1150000   -0.1150000   1.172438e-03  2.346713e-06
    133    146   2   0.50000    -0.1150000    0.1150000   2.431434e-04  1.541678e-07
    132    135   2   0.50000     0.0850000   -0.1150000   1.172438e-03  2.346713e-06
    132    143   2   0.50000     0.0850000    0.1150000   2.431434e-04  1.541678e-07
    142    135   2   0.50000     0.1150000   -0.1150000   2.431434e-04  1.541678e-07
    142    143   2   0.50000     0.1150000    0.1150000   5.042375e-05  1.012808e-08
    133    144   2   0.50000    -0.1150000    0.1150000   2.431434e-04  1.541678e-07
    143    136   2   0.50000     0.1150000   -0.1150000   2.431434e-04  1.541678e-07
    143    144   2   0.50000     0.1150000    0.1150000   5.042375e-05  1.012808e-08
    134    145   2   0.50000    -0.1150000    0.1150000   2.431434e-04  1.541678e-07
    144    137   2   0.50000     0.1150000   -0.1150000   2.431434e-04  1.541678e-07
    144    145   2   0.50000     0.1150000    0.1150000   5.042375e-05  1.012808e-08
    135    146   2   0.50000    -0.1150000    0.1150000   2.431434e-04  1.541678e-07
    145    132   2   0.50000     0.1150000    0.0850000   2.431434e-04  1.541678e-07
    145    146   2   0.50000     0.1150000    0.1150000   5.042375e-05  1.012808e-08
    128    150   2   0.50000     0.1700000   -0.4000000   8.411158e-04  8.795366e-07
    128    159   2   0.50000     0.1700000   -0.1200000   1.015252e-03  1.866303e-06
    128    160   2   0.50000     0.1700000    0.0300000   2.494471e-04  1.671101e-07
    147    150   2   0.50000     0.0600000   -0.4000000   2.066619e-04  7.875431e-08
    147    159   2   0.50000     0.0600000   -0.1200000   2.494471e-04  1.671101e-07
    147    160   2   0.50000     0.0600000    0.0300000   6.128906e-05  1.496315e-08
    148    150   2   0.50000     0.0600000   -0.4000000   2.066619e-04  7.875431e-08
    148    159   2   0.50000     0.0600000   -0.1200000   2.494471e-04  1.671101e-07
    148    160   2   0.50000     0.0600000    0.0300000   6.128906e-05  1.496315e-08
    138    151   2   0.50000    -0.1200000    0.2000000   1.015252e-03  1.866303e-06
    159    151   2   0.50000    -0.1200000    0.2000000   1.015252e-03  1.866303e-06
    160    151   2   0.50000     0.0300000    0.2000000   2.494471e-04  1.671101e-07
    138    168   2   0.50000    -0.1200000    0.0600000   2.494471e-04  1.671101e-07
    138    169   2   0.50000    -0.1200000    0.0600000   2.494471e-04  1.671101e-07
    138    170   2   0.50000    -0.1200000    0.1700000   1.015252e-03  1.866303e-06
    150    168   2   0.50000    -0.4000000    0.0600000   2.066619e-04  7.875431e-08
    150    169   2   0.50000    -0.4000000    0.0600000   2.066619e-04  7.875431e-08
    150    170   2   0.50000    -0.4000000    0.1700000   8.411158e-04  8.795366e-07
    160    168   2   0.50000     0.0300000    0.0600000   6.128906e-05  1.496315e-08
    160    169   2   0.50000     0.0300000    0.0600000   6.128906e-05  1.496315e-08
    160    170   2   0.50000     0.0300000    0.1700000   2.494471e-04  1.671101e-07
    149    152   2   0.50000     0.1700000   -0.2850000   8.411158e-04  8.795366e-07
    149    161   2   0.50000     0.1700000    0.1000000   2.494471e-04  1.671101e-07
    149    162   2   0.50000     0.1700000    0.1000000   2.494471e-04  1.671101e-07
    150    153   2   0.50000    -0.4000000    0.0850000   9.038862e-04  9.862632e-07
    161    153   2   0.50000     0.1000000    0.0850000   2.680627e-04  1.873879e-07
    162    153   2   0.50000     0.1000000    0.0850000   2.680627e-04  1.873879e-07
    151    154   2   0.50000     0.2000000   -0.1150000   1.091018e-03  2.092768e-06
    151    158   2   0.50000     0.2000000   -0.1150000   1.091018e-03  2.092768e-06
    152    155   2   0.50000    -0.2850000   -0.1150000   9.038862e-04  9.862632e-07
    152    163   2   0.50000    -0.2850000    0.1150000   1.874504e-04  6.479276e-08
    158    155   2   0.50000    -0.1150000   -0.1150000   1.172438e-03  2.346713e-06
    158    163   2   0.50000    -0.1150000    0.1150000   2.431434e-04  1.541678e-07
    152    157   2   0.50000    -0.2850000   -0.1150000   9.038862e-04  9.862632e-07
    152    167   2   0.50000    -0.2850000    0.1150000   1.874504e-04  6.479276e-08
    154    157   2   0.50000    -0.1150000   -0.1150000   1.172438e-03  2.346713e-06
    154    167   2   0.50000    -0.1150000    0.1150000   2.431434e-04  1.541678e-07
    153    156   2   0.50000     0.0850000   -0.1150000   1.172438e-03  2.346713e-06
    153    164   2   0.50000     0.0850000    0.1150000   2.431434e-04  1.541678e-07
    163    156   2   0.50000     0.1150000   -0.1150000   2.431434e-04  1.541678e-07
    163    164   2   0.50000     0.1150000    0.1150000   5.042375e-05  1.012808e-08
    154    165   2   0.50000    -0.1150000    0.1150000   2.431434e-04  1.541678e-07
    164    157   2   0.50000     0.1150000   -0.1150000   2.431434e-04  1.541678e-07
    164    165   2   0.50000     0.1150000    0.1150000   5.042375e-05  1.012808e-08
    155    166   2   0.50000    -0.1150000    0.1150000   2.431434e-04  1.541678e-07
    165    158   2   0.50000     0.1150000   -0.1150000   2.431434e-04  1.541678e-07
    165    166   2   0.50000     0.1150000    0.1150000   5.042375e-05  1.012808e-08
    156    167   2   0.50000    -0.1150000    0.1150000   2.431434e-04  1.541678e-07
    166    153   2   0.50000     0.1150000    0.0850000   2.431434e-04  1.541678e-07
    166    167   2   0.50000     0.1150000    0.1150000   5.042375e-05  1.012808e-08
    149    171   2   0.50000     0.1700000   -0.4000000   8.411158e-04  8.795366e-07
    149    180   2   0.50000     0.1700000   -0.1200000   1.015252e-03  1.866303e-06
    149    181   2   0.50000     0.1700000    0.0300000   2.494471e-04  1.671101e-07
    168    171   2   0.50000     0.0600000   -0.4000000   2.066619e-04  7.875431e-08
    168    180   2   0.50000     0.0600000   -0.1200000   2.494471e-04  1.671101e-07
    168    181   2   0.50000     0.0600000    0.0300000   6.128906e-05  1.496315e-08
    169    171   2   0.50000     0.0600000   -0.4000000   2.066619e-04  7.875431e-08
    169    180   2   0.50000     0.0600000   -0.1200000   2.494471e-04  1.671101e-07
    169    181   2   0.50000     0.0600000    0.0300000   6.128906e-05  1.496315e-08
    159    172   2   0.50000    -0.1200000    0.2000000   1.015252e-03  1.866303e-06
    180    172   2   0.50000    -0.1200000    0.2000000   1.015252e-03  1.866303e-06
    181    172   2   0.50000     0.0300000    0.2000000   2.494471e-04  1.671101e-07
    159    189   2   0.50000    -0.1200000    0.0600000   2.494471e-04  1.671101e-07
    159    190   2   0.50000    -0.1200000    0.0600000   2.494471e-04  1.671101e-07
    159    191   2   0.50000    -0.1200000    0.1700000   1.015252e-03  1.866303e-06
    171    189   2   0.50000    -0.4000000    0.0600000   2.066619e-04  7.875431e-08
    171    190   2   0.50000    -0.4000000    0.0600000   2.066619e-04  7.875431e-08
    171    191   2   0.50000    -0.4000000    0.1700000   8.411158e-04  8.795366e-07
    181    189   2   0.50000     0.0300000    0.0600000   6.128906e-05  1.496315e-08
    181    190   2   0.50000     0.0300000    0.0600000   6.128906e-05  1.496315e-08
    181    191   2   0.50000     0.0300000    0.1700000   2.494471e-04  1.671101e-07
    170    173   2   0.50000     0.1700000   -0.2850000   8.411158e-04  8.795366e-07
    170    182   2   0.50000     0.1700000    0.1000000   2.494471e-04  1.671101e-07
    170    183   2   0.50000     0.1700000    0.1000000   2.494471e-04  1.671101e-07
    171    174   2   0.50000    -0.4000000    0.0850000   9.038862e-04  9.862632e-07
    182    174   2   0.50000     0.1000000    0.0850000   2.680627e-04  1.873879e-07
    183    174   2   0.50000     0.1000000    0.0850000   2.680627e-04  1.873879e-07
    172    175   2   0.50000     0.2000000   -0.1150000   1.091018e-03  2.092768e-06
    172    179   2   0.50000     0.2000000   -0.1150000   1.091018e-03  2.092768e-06
    173    176   2   0.50000    -0.2850000   -0.1150000   9.038862e-04  9.862632e-07
    173    184   2   0.50000    -0.2850000    0.1150000   1.874504e-04  6.479276e-08
    179    176   2   0.50000    -0.1150000   -0.1150000   1.172438e-03  2.346713e-06
    179    184   2   0.50000    -0.1150000    0.1150000   2.431434e-04  1.541678e-07
    173    178   2   0.50000    -0.2850000   -0.1150000   9.038862e-04  9.862632e-07
    173    188   2   0.50000    -0.2850000    0.1150000   1.874504e-04  6.479276e-08
    175    178   2   0.50000    -0.1150000   -0.1150000   1.172438e-03  2.346713e-06
    175    188   2   0.50000    -0.1150000    0.1150000   2.431434e-04  1.541678e-07
    174    177   2   0.50000     0.0850000   -0.1150000   1.172438e-03  2.346713e-06
    174    185   2   0.50000     0.0850000    0.1150000   2.431434e-04  1.541678e-07
    184    177   2   0.50000     0.1150000   -0.1150000   2.431434e-04  1.541678e-07
    184    185   2   0.50000     0.1150000    0.1150000   5.042375e-05  1.012808e-08
    175    186   2   0.50000    -0.1150000    0.1150000   2.431434e-04  1.541678e-07
    185    178   2   0.50000     0.1150000   -0.1150000   2.431434e-04  1.541678e-07
    185    186   2   0.50000     0.1150000    0.1150000   5.042375e-05  1.012808e-08
    176    187   2   0.50000    -0.1150000    0.1150000   2.431434e-04  1.541678e-07
    186    179   2   0.50000     0.1150000   -0.1150000   2.431434e-04  1.541678e-07
    186    187   2   0.50000     0.1150000    0.1150000   5.042375e-05  1.012808e-08
    177    188   2   0.50000    -0.1150000    0.1150000   2.431434e-04  1.541678e-07
    187    174   2   0.50000     0.1150000    0.0850000   2.431434e-04  1.541678e-07
    187    188   2   0.50000     0.1150000    0.1150000   5.042375e-05  1.012808e-08
    170    192   2   0.50000     0.1700000   -0.4000000   8.411158e-04  8.795366e-07
    170    201   2   0.50000     0.1700000   -0.1200000   1.015252e-03  1.866303e-06
    170    202   2   0.50000     0.1700000    0.0300000   2.494471e-04  1.671101e-07
    189    192   2   0.50000     0.0600000   -0.4000000   2.066619e-04  7.875431e-08
    189    201   2   0.50000     0.0600000   -0.1200000   2.494471e-04  1.671101e-07
    189    202   2   0.50000     0.0600000    0.0300000   6.128906e-05  1.496315e-08
    190    192   2   0.50000     0.0600000   -0.4000000   2.066619e-04  7.875431e-08
    190    201   2   0.50000     0.0600000   -0.1200000   2.494471e-04  1.671101e-07
    190    202   2   0.50000     0.0600000    0.0300000   6.128906e-05  1.496315e-08
    180    193   2   0.50000    -0.1200000    0.2000000   1.015252e-03  1.866303e-06
    201    193   2   0.50000    -0.1200000    0.2000000   1.015252e-03  1.866303e-06
    202    193   2   0.50000     0.0300000    0.2000000   2.494471e-04  1.671101e-07
    180    210   2   0.50000    -0.1200000    0.0600000   2.494471e-04  1.671101e-07
    180    211   2   0.50000    -0.1200000    0.0600000   2.494471e-04  1.671101e-07
    180    212   2   0.50000    -0.1200000    0.1700000   1.015252e-03  1.866303e-06
    192    210   2   0.50000    -0.4000000    0.0600000   2.066619e-04  7.875431e-08
    192    211   2   0.50000    -0.4000000    0.0600000   2.066619e-04  7.875431e-08
    192    212   2   0.50000    -0.4000000    0.1700000   8.411158e-04  8.795366e-07
    202    210   2   0.50000     0.0300000    0.0600000   6.128906e-05  1.496315e-08
    202    211   2   0.50000     0.0300000    0.0600000   6.128906e-05  1.496315e-08
    202    212   2   0.50000     0.0300000    0.1700000   2.494471e-04  1.671101e-07
    191    194   2   0.50000     0.1700000   -0.2850000   8.411158e-04  8.795366e-07
    191    203   2   0.50000     0.1700000    0.1000000   2.494471e-04  1.671101e-07
    191    204   2   0.50000     0.1700000    0.1000000   2.494471e-04  1.671101e-07
    192    195   2   0.50000    -0.4000000    0.0850000   9.038862e-04  9.862632e-07
    203    195   2   0.50000     0.1000000    0.0850000   2.680627e-04  1.873879e-07
    204    195   2   0.50000     0.1000000    0.0850000   2.680627e-04  1.873879e-07
    193    196   2   0.50000     0.2000000   -0.1150000   1.091018e-03  2.092768e-06
    193    200   2   0.50000     0.2000000   -0.1150000   1.091018e-03  2.092768e-06
    194    197   2   0.50000    -0.2850000   -0.1150000   9.038862e-04  9.862632e-07
    194    205   2   0.50000    -0.2850000    0.1150000   1.874504e-04  6.479276e-08
    200    197   2   0.50000    -0.1150000   -0.1150000   1.172438e-03  2.346713e-06
    200    205   2   0.50000    -0.1150000    0.1150000   2.431434e-04  1.541678e-07
    194    199   2   0.50000    -0.2850000   -0.1150000   9.038862e-04  9.862632e-07
    194    209   2   0.50000    -0.2850000    0.1150000   1.874504e-04  6.479276e-08
    196    199   2   0.50000    -0.1150000   -0.1150000   1.172438e-03  2.346713e-06
    196    209   2   0.50000    -0.1150000    0.1150000   2.431434e-04  1.541678e-07
    195    198   2   0.50000     0.0850000   -0.1150000   1.172438e-03  2.346713e-06
    195    206   2   0.50000     0.0850000    0.1150000   2.431434e-04  1.541678e-07
    205    198   2   0.50000     0.1150000   -0.1150000   2.431434e-04  1.541678e-07
    205    206   2   0.50000     0.1150000    0.1150000   5.042375e-05  1.012808e-08
    196    207   2   0.50000    -0.1150000    0.1150000   2.431434e-04  1.541678e-07
    206    199   2   0.50000     0.1150000   -0.1150000   2.431434e-04  1.541678e-07
    206    207   2   0.50000     0.1150000    0.1150000   5.042375e-05  1.012808e-08
    197    208   2   0.50000    -0.1150000    0.1150000   2.431434e-04  1.541678e-07
    207    200   2   0.50000     0.1150000   -0.1150000   2.431434e-04  1.541678e-07
    207    208   2   0.50000     0.1150000    0.1150000   5.042375e-05  1.012808e-08
    198    209   2   0.50000    -0.1150000    0.1150000   2.431434e-04  1.541678e-07
    208    195   2   0.50000     0.1150000    0.0850000   2.431434e-04  1.541678e-07
    208    209   2   0.50000     0.1150000    0.1150000   5.042375e-05  1.012808e-08
    191    213   2   0.50000     0.1700000   -0.4000000   8.411158e-04  8.795366e-07
    191    222   2   0.50000     0.1700000   -0.1200000   1.015252e-03  1.866303e-06
    191    223   2   0.50000     0.1700000    0.0300000   2.494471e-04  1.671101e-07
    210    213   2   0.50000     0.0600000   -0.4000000   2.066619e-04  7.875431e-08
    210    222   2   0.50000     0.0600000   -0.1200000   2.494471e-04  1.671101e-07
    210    223   2   0.50000     0.0600000    0.0300000   6.128906e-05  1.496315e-08
    211    213   2   0.50000     0.0600000   -0.4000000   2.066619e-04  7.875431e-08
    211    222   2   0.50000     0.0600000   -0.1200000   2.494471e-04  1.671101e-07
    211    223   2   0.50000     0.0600000    0.0300000   6.128906e-05  1.496315e-08
    201    214   2   0.50000    -0.1200000    0.2000000   1.015252e-03  1.866303e-06
    222    214   2   0.50000    -0.1200000    0.2000000   1.015252e-03  1.866303e-06
    223    214   2   0.50000     0.0300000    0.2000000   2.494471e-04  1.671101e-07
    201    231   2   0.50000    -0.1200000    0.0600000   2.494471e-04  1.671101e-07
    201    232   2   0.50000    -0.1200000    0.0600000   2.494471e-04  1.671101e-07
    201    233   2   0.50000    -0.1200000    0.1700000   1.015252e-03  1.866303e-06
    213    231   2   0.50000    -0.4000000    0.0600000   2.066619e-04  7.875431e-08
    213    232   2   0.50000    -0.4000000    0.0600000   2.066619e-04  7.875431e-08
    213    233   2   0.50000    -0.4000000    0.1700000   8.411158e-04  8.795366e-07
    223    231   2   0.50000     0.0300000    0.0600000   6.128906e-05  1.496315e-08
    223    232   2   0.50000     0.0300000    0.0600000   6.128906e-05  1.496315e-08
    223    233   2   0.50000     0.0300000    0.1700000   2.494471e-04  1.671101e-07
    212    215   2   0.50000     0.1700000   -0.2850000   8.411158e-04  8.795366e-07
    212    224   2   0.50000     0.1700000    0.1000000   2.494471e-04  1.671101e-07
    212    225   2   0.50000     0.1700000    0.1000000   2.494471e-04  1.671101e-07
    213    216   2   0.50000    -0.4000000    0.0850000   9.038862e-04  9.862632e-07
    224    216   2   0.50000     0.1000000    0.0850000   2.680627e-04  1.873879e-07
    225    216   2   0.50000     0.1000000    0.0850000   2.680627e-04  1.873879e-07
    214    217   2   0.50000     0.2000000   -0.1150000   1.091018e-03  2.092768e-06
    214    221   2   0.50000     0.2000000   -0.1150000   1.091018e-03  2.092768e-06
    215    218   2   0.50000    -0.2850000   -0.1150000   9.038862e-04  9.862632e-07
    215    226   2   0.50000    -0.2850000    0.1150000   1.874504e-04  6.479276e-08
    221    218   2   0.50000    -0.1150000   -0.1150000   1.172438e-03  2.346713e-06
    221    226   2   0.50000    -0.1150000    0.1150000   2.431434e-04  1.541678e-07
    215    220   2   0.50000    -0.2850000   -0.1150000   9.038862e-04  9.862632e-07
    215    230   2   0.50000    -0.2850000    0.1150000   1.874504e-04  6.479276e-08
    217    220   2   0.50000    -0.1150000   -0.1150000   1.172438e-03  2.346713e-06
    217    230   2   0.50000    -0.1150000    0.1150000   2.431434e-04  1.541678e-07
    216    219   2   0.50000     0.0850000   -0.1150000   1.172438e-03  2.346713e-06
    216    227   2   0.50000     0.0850000    0.1150000   2.431434e-04  1.541678e-07
    226    219   2   0.50000     0.1150000   -0.1150000   2.431434e-04  1.541678e-07
    226    227   2   0.50000     0.1150000    0.1150000   5.042375e-05  1.012808e-08
    217    228   2   0.50000    -0.1150000    0.1150000   2.431434e-04  1.541678e-07
    227    220   2   0.50000     0.1150000   -0.1150000   2.431434e-04  1.541678e-07
    227    228   2   0.50000     0.1150000    0.1150000   5.042375e-05  1.012808e-08
    218    229   2   0.50000    -0.1150000    0.1150000   2.431434e-04  1.541678e-07
    228    221   2   0.50000     0.1150000   -0.1150000   2.431434e-04  1.541678e-07
    228    229   2   0.50000     0.1150000    0.1150000   5.042375e-05  1.012808e-08
    219    230   2   0.50000    -0.1150000    0.1150000   2.431434e-04  1.541678e-07
    229    216   2   0.50000     0.1150000    0.0850000   2.431434e-04  1.541678e-07
    229    230   2   0.50000     0.1150000    0.1150000   5.042375e-05  1.012808e-08
    212    234   2   0.50000     0.1700000   -0.4000000   8.411158e-04  8.795366e-07
    212    243   2   0.50000     0.1700000   -0.1200000   1.015252e-03  1.866303e-06
    212    244   2   0.50000     0.1700000    0.0300000   2.494471e-04  1.671101e-07
    231    234   2   0.50000     0.0600000   -0.4000000   2.066619e-04  7.875431e-08
    231    243   2   0.50000     0.0600000   -0.1200000   2.494471e-04  1.671101e-07
    231    244   2   0.50000     0.0600000    0.0300000   6.128906e-05  1.496315e-08
    232    234   2   0.50000     0.0600000   -0.4000000   2.066619e-04  7.875431e-08
    232    243   2   0.50000     0.0600000   -0.1200000   2.494471e-04  1.671101e-07
    232    244   2   0.50000     0.0600000    0.0300000   6.128906e-05  1.496315e-08
    222    235   2   0.50000    -0.1200000    0.2000000   1.015252e-03  1.866303e-06
    243    235   2   0.50000    -0.1200000    0.2000000   1.015252e-03  1.866303e-06
    244    235   2   0.50000     0.0300000    0.2000000   2.494471e-04  1.671101e-07
    222    252   2   0.50000    -0.1200000    0.0600000   2.494471e-04  1.671101e-07
    222    253   2   0.50000    -0.1200000    0.0600000   2.494471e-04  1.671101e-07
    222    254   2   0.50000    -0.1200000    0.1700000   1.015252e-03  1.866303e-06
    234    252   2   0.50000    -0.4000000    0.0600000   2.066619e-04  7.875431e-08
    234    253   2   0.50000    -0.4000000    0.0600000   2.066619e-04  7.875431e-08
    234    254   2   0.50000    -0.4000000    0.1700000   8.411158e-04  8.795366e-07
    244    252   2   0.50000     0.0300000    0.0600000   6.128906e-05  1.496315e-08
    244    253   2   0.50000     0.0300000    0.0600000   6.128906e-05  1.496315e-08
    244    254   2   0.50000     0.0300000    0.1700000   2.494471e-04  1.671101e-07
    233    236   2   0.50000     0.1700000   -0.2850000   8.411158e-04  8.795366e-07
    233    245   2   0.50000     0.1700000    0.1000000   2.494471e-04  1.671101e-07
    233    246   2   0.50000     0.1700000    0.1000000   2.494471e-04  1.671101e-07
    234    237   2   0.50000    -0.4000000    0.0850000   9.038862e-04  9.862632e-07
    245    237   2   0.50000     0.1000000    0.0850000   2.680627e-04  1.873879e-07
    246    237   2   0.50000     0.1000000    0.0850000   2.680627e-04  1.873879e-07
    235    238   2   0.50000     0.2000000   -0.1150000   1.091018e-03  2.092768e-06
    235    242   2   0.50000     0.2000000   -0.1150000   1.091018e-03  2.092768e-06
    236    239   2   0.50000    -0.2850000   -0.1150000   9.038862e-04  9.862632e-07
    236    247   2   0.50000    -0.2850000    0.1150000   1.874504e-04  6.479276e-08
    242    239   2   0.50000    -0.1150000   -0.1150000   1.172438e-03  2.346713e-06
    242    247   2   0.50000    -0.1150000    0.1150000   2.431434e-04  1.541678e-07
    236    241   2   0.50000    -0.2850000   -0.1150000   9.038862e-04  9.862632e-07
    236    251   2   0.50000    -0.2850000    0.1150000   1.874504e-04  6.479276e-08
    238    241   2   0.50000    -0.1150000   -0.1150000   1.172438e-03  2.346713e-06
    238    251   2   0.50000    -0.1150000    0.1150000   2.431434e-04  1.541678e-07
    237    240   2   0.50000     0.0850000   -0.1150000   1.172438e-03  2.346713e-06
    237    248   2   0.50000     0.0850000    0.1150000   2.431434e-04  1.541678e-07
    247    240   2   0.50000     0.1150000   -0.1150000   2.431434e-04  1.541678e-07
    247    248   2   0.50000     0.1150000    0.1150000   5.042375e-05  1.012808e-08
    238    249   2   0.50000    -0.1150000    0.1150000   2.431434e-04  1.541678e-07
    248    241   2   0.50000     0.1150000   -0.1150000   2.431434e-04  1.541678e-07
    248    249   2   0.50000     0.1150000    0.1150000   5.042375e-05  1.012808e-08
    239    250   2   0.50000    -0.1150000    0.1150000   2.431434e-04  1.541678e-07
    249    242   2   0.50000     0.1150000   -0.1150000   2.431434e-04  1.541678e-07
    249    250   2   0.50000     0.1150000    0.1150000   5.042375e-05  1.012808e-08
    240    251   2   0.50000    -0.1150000    0.1150000   2.431434e-04  1.541678e-07
    250    237   2   0.50000     0.1150000    0.0850000   2.431434e-04  1.541678e-07
    250    251   2   0.50000     0.1150000    0.1150000   5.042375e-05  1.012808e-08
    233    255   2   0.50000     0.1700000   -0.4000000   8.411158e-04  8.795366e-07
    233    264   2   0.50000     0.1700000   -0.1200000   1.015252e-03  1.866303e-06
    233    265   2   0.50000     0.1700000    0.0300000   2.494471e-04  1.671101e-07
    252    255   2   0.50000     0.0600000   -0.4000000   2.066619e-04  7.875431e-08
    252    264   2   0.50000     0.0600000   -0.1200000   2.494471e-04  1.671101e-07
    252    265   2   0.50000     0.0600000    0.0300000   6.128906e-05  1.496315e-08
    253    255   2   0.50000     0.0600000   -0.4000000   2.066619e-04  7.875431e-08
    253    264   2   0.50000     0.0600000   -0.1200000   2.494471e-04  1.671101e-07
    253    265   2   0.50000     0.0600000    0.0300000   6.128906e-05  1.496315e-08
    243    256   2   0.50000    -0.1200000    0.2000000   1.015252e-03  1.866303e-06
    264    256   2   0.50000    -0.1200000    0.2000000   1.015252e-03  1.866303e-06
    265    256   2   0.50000     0.0300000    0.2000000   2.494471e-04  1.671101e-07
    243    273   2   0.50000    -0.1200000    0.0600000   2.494471e-04  1.671101e-07
    243    274   2   0.50000    -0.1200000    0.0600000   2.494471e-04  1.671101e-07
    243    275   2   0.50000    -0.1200000    0.1700000   1.015252e-03  1.866303e-06
    255    273   2   0.50000    -0.4000000    0.0600000   2.066619e-04  7.875431e-08
    255    274   2   0.50000    -0.4000000    0.0600000   2.066619e-04  7.875431e-08
    255    275   2   0.50000    -0.4000000    0.1700000   8.411158e-04  8.795366e-07
    265    273   2   0.50000     0.0300000    0.0600000   6.128906e-05  1.496315e-08
    265    274   2   0.50000     0.0300000    0.0600000   6.128906e-05  1.496315e-08
    265    275   2   0.50000     0.0300000    0.1700000   2.494471e-04  1.671101e-07
    254    257   2   0.50000     0.1700000   -0.2850000   8.411158e-04  8.795366e-07
    254    266   2   0.50000     0.1700000    0.1000000   2.494471e-04  1.671101e-07
    254    267   2   0.50000     0.1700000    0.1000000   2.494471e-04  1.671101e-07
    255    258   2   0.50000    -0.4000000    0.0850000   9.038862e-04  9.862632e-07
    266    258   2   0.50000     0.1000000    0.0850000   2.680627e-04  1.873879e-07
    267    258   2   0.50000     0.1000000    0.0850000   2.680627e-04  1.873879e-07
    256    259   2   0.50000     0.2000000   -0.1150000   1.091018e-03  2.092768e-06
    256    263   2   0.50000     0.2000000   -0.1150000   1.091018e-03  2.092768e-06
    257    260   2   0.50000    -0.2850000   -0.1150000   9.038862e-04  9.862632e-07
    257    268   2   0.50000    -0.2850000    0.1150000   1.874504e-04  6.479276e-08
    263    260   2   0.50000    -0.1150000   -0.1150000   1.172438e-03  2.346713e-06
    263    268   2   0.50000    -0.1150000    0.1150000   2.431434e-04  1.541678e-07
    257    262   2   0.50000    -0.2850000   -0.1150000   9.038862e-04  9.862632e-07
    257    272   2   0.50000    -0.2850000    0.1150000   1.874504e-04  6.479276e-08
    259    262   2   0.50000    -0.1150000   -0.1150000   1.172438e-03  2.346713e-06
    259    272   2   0.50000    -0.1150000    0.1150000   2.431434e-04  1.541678e-07
    258    261   2   0.50000     0.0850000   -0.1150000   1.172438e-03  2.346713e-06
    258    269   2   0.50000     0.0850000    0.1150000   2.431434e-04  1.541678e-07
    268    261   2   0.50000     0.1150000   -0.1150000   2.431434e-04  1.541678e-07
    268    269   2   0.50000     0.1150000    0.1150000   5.042375e-05  1.012808e-08
    259    270   2   0.50000    -0.1150000    0.1150000   2.431434e-04  1.541678e-07
    269    262   2   0.50000     0.1150000   -0.1150000   2.431434e-04  1.541678e-07
    269    270   2   0.50000     0.1150000    0.1150000   5.042375e-05  1.012808e-08
    260    271   2   0.50000    -0.1150000    0.1150000   2.431434e-04  1.541678e-07
    270    263   2   0.50000     0.1150000   -0.1150000   2.431434e-04  1.541678e-07
    270    271   2   0.50000     0.1150000    0.1150000   5.042375e-05  1.012808e-08
    261    272   2   0.50000    -0.1150000    0.1150000   2.431434e-04  1.541678e-07
    271    258   2   0.50000     0.1150000    0.0850000   2.431434e-04  1.541678e-07
    271    272   2   0.50000     0.1150000    0.1150000   5.042375e-05  1.012808e-08
    254    276   2   0.50000     0.1700000   -0.4000000   8.411158e-04  8.795366e-07
    254    285   2   0.50000     0.1700000   -0.1200000   1.015252e-03  1.866303e-06
    254    286   2   0.50000     0.1700000    0.0300000   2.494471e-04  1.671101e-07
    273    276   2   0.50000     0.0600000   -0.4000000   2.066619e-04  7.875431e-08
    273    285   2   0.50000     0.0600000   -0.1200000   2.494471e-04  1.671101e-07
    273    286   2   0.50000     0.0600000    0.0300000   6.128906e-05  1.496315e-08
    274    276   2   0.50000     0.0600000   -0.4000000   2.066619e-04  7.875431e-08
    274    285   2   0.50000     0.0600000   -0.1200000   2.494471e-04  1.671101e-07
    274    286   2   0.50000     0.0600000    0.0300000   6.128906e-05  1.496315e-08
    264    277   2   0.50000    -0.1200000    0.2000000   1.015252e-03  1.866303e-06
    285    277   2   0.50000    -0.1200000    0.2000000   1.015252e-03  1.866303e-06
    286    277   2   0.50000     0.0300000    0.2000000   2.494471e-04  1.671101e-07
    264    294   2   0.50000    -0.1200000    0.0600000   2.494471e-04  1.671101e-07
    264    295   2   0.50000    -0.1200000    0.0600000   2.494471e-04  1.671101e-07
    264    296   2   0.50000    -0.1200000    0.1700000   1.015252e-03  1.866303e-06
    276    294   2   0.50000    -0.4000000    0.0600000   2.066619e-04  7.875431e-08
    276    295   2   0.50000    -0.4000000    0.0600000   2.066619e-04  7.875431e-08
    276    296   2   0.50000    -0.4000000    0.1700000   8.411158e-04  8.795366e-07
    286    294   2   0.50000     0.0300000    0.0600000   6.128906e-05  1.496315e-08
    286    295   2   0.50000     0.0300000    0.0600000   6.128906e-05  1.496315e-08
    286    296   2   0.50000     0.0300000    0.1700000   2.494471e-04  1.671101e-07
    275    278   2   0.50000     0.1700000   -0.2850000   8.411158e-04  8.795366e-07
    275    287   2   0.50000     0.1700000    0.1000000   2.494471e-04  1.671101e-07
    275    288   2   0.50000     0.1700000    0.1000000   2.494471e-04  1.671101e-07
    276    279   2   0.50000    -0.4000000    0.0850000   9.038862e-04  9.862632e-07
    287    279   2   0.50000     0.1000000    0.0850000   2.680627e-04  1.873879e-07
    288    279   2   0.50000     0.1000000    0.0850000   2.680627e-04  1.873879e-07
    277    280   2   0.50000     0.2000000   -0.1150000   1.091018e-03  2.092768e-06
    277    284   2   0.50000     0.2000000   -0.1150000   1.091018e-03  2.092768e-06
    278    281   2   0.50000    -0.2850000   -0.1150000   9.038862e-04  9.862632e-07
    278    289   2   0.50000    -0.2850000    0.1150000   1.874504e-04  6.479276e-08
    284    281   2   0.50000    -0.1150000   -0.1150000   1.172438e-03  2.346713e-06
    284    289   2   0.50000    -0.1150000    0.1150000   2.431434e-04  1.541678e-07
    278    283   2   0.50000    -0.2850000   -0.1150000   9.038862e-04  9.862632e-07
    278    293   2   0.50000    -0.2850000    0.1150000   1.874504e-04  6.479276e-08
    280    283   2   0.50000    -0.1150000   -0.1150000   1.172438e-03  2.346713e-06
    280    293   2   0.50000    -0.1150000    0.1150000   2.431434e-04  1.541678e-07
    279    282   2   0.50000     0.0850000   -0.1150000   1.172438e-03  2.346713e-06
    279    290   2   0.50000     0.0850000    0.1150000   2.431434e-04  1.541678e-07
    289    282   2   0.50000     0.1150000   -0.1150000   2.431434e-04  1.541678e-07
    289    290   2   0.50000     0.1150000    0.1150000   5.042375e-05  1.012808e-08
    280    291   2   0.50000    -0.1150000    0.1150000   2.431434e-04  1.541678e-07
    290    283   2   0.50000     0.1150000   -0.1150000   2.431434e-04  1.541678e-07
    290    291   2   0.50000     0.1150000    0.1150000   5.042375e-05  1.012808e-08
    281    292   2   0.50000    -0.1150000    0.1150000   2.431434e-04  1.541678e-07
    291    284   2   0.50000     0.1150000   -0.1150000   2.431434e-04  1.541678e-07
    291    292   2   0.50000     0.1150000    0.1150000   5.042375e-05  1.012808e-08
    282    293   2   0.50000    -0.1150000    0.1150000   2.431434e-04  1.541678e-07
    292    279   2   0.50000     0.1150000    0.0850000   2.431434e-04  1.541678e-07
    292    293   2   0.50000     0.1150000    0.1150000   5.042375e-05  1.012808e-08
    275    297   2   0.50000     0.1700000   -0.4000000   8.411158e-04  8.795366e-07
    275    306   2   0.50000     0.1700000   -0.1200000   1.015252e-03  1.866303e-06
    275    307   2   0.50000     0.1700000    0.0300000   2.494471e-04  1.671101e-07
    294    297   2   0.50000     0.0600000   -0.4000000   2.066619e-04  7.875431e-08
    294    306   2   0.50000     0.0600000   -0.1200000   2.494471e-04  1.671101e-07
    294    307   2   0.50000     0.0600000    0.0300000   6.128906e-05  1.496315e-08
    295    297   2   0.50000     0.0600000   -0.4000000   2.066619e-04  7.875431e-08
    295    306   2   0.50000     0.0600000   -0.1200000   2.494471e-04  1.671101e-07
    295    307   2   0.50000     0.0600000    0.0300000   6.128906e-05  1.496315e-08
    285    298   2   0.50000    -0.1200000    0.2000000   1.015252e-03  1.866303e-06
    306    298   2   0.50000    -0.1200000    0.2000000   1.015252e-03  1.866303e-06
    307    298   2   0.50000     0.0300000    0.2000000   2.494471e-04  1.671101e-07
    285    315   2   0.50000    -0.1200000    0.0600000   2.494471e-04  1.671101e-07
    285    316   2   0.50000    -0.1200000    0.0600000   2.494471e-04  1.671101e-07
    285    317   2   0.50000    -0.1200000    0.1700000   1.015252e-03  1.866303e-06
    297    315   2   0.50000    -0.4000000    0.0600000   2.066619e-04  7.875431e-08
    297    316   2   0.50000    -0.4000000    0.0600000   2.066619e-04  7.875431e-08
    297    317   2   0.50000    -0.4000000    0.1700000   8.411158e-04  8.795366e-07
    307    315   2   0.50000     0.0300000    0.0600000   6.128906e-05  1.496315e-08
    307    316   2   0.50000     0.0300000    0.0600000   6.128906e-05  1.496315e-08
    307    317   2   0.50000     0.0300000    0.1700000   2.494471e-04  1.671101e-07
    296    299   2   0.50000     0.1700000   -0.2850000   8.411158e-04  8.795366e-07
    296    308   2   0.50000     0.1700000    0.1000000   2.494471e-04  1.671101e-07
    296    309   2   0.50000     0.1700000    0.1000000   2.494471e-04  1.671101e-07
    297    300   2   0.50000    -0.4000000    0.0850000   9.038862e-04  9.862632e-07
    308    300   2   0.50000     0.1000000    0.0850000   2.680627e-04  1.873879e-07
    309    300   2   0.50000     0.1000000    0.0850000   2.680627e-04  1.873879e-07
    298    301   2   0.50000     0.2000000   -0.1150000   1.091018e-03  2.092768e-06
    298    305   2   0.50000     0.2000000   -0.1150000   1.091018e-03  2.092768e-06
    299    302   2   0.50000    -0.2850000   -0.1150000   9.038862e-04  9.862632e-07
    299    310   2   0.50000    -0.2850000    0.1150000   1.874504e-04  6.479276e-08
    305    302   2   0.50000    -0.1150000   -0.1150000   1.172438e-03  2.346713e-06
    305    310   2   0.50000    -0.1150000    0.1150000   2.431434e-04  1.541678e-07
    299    304   2   0.50000    -0.2850000   -0.1150000   9.038862e-04  9.862632e-07
    299    314   2   0.50000    -0.2850000    0.1150000   1.874504e-04  6.479276e-08
    301    304   2   0.50000    -0.1150000   -0.1150000   1.172438e-03  2.346713e-06
    301    314   2   0.50000    -0.1150000    0.1150000   2.431434e-04  1.541678e-07
    300    303   2   0.50000     0.0850000   -0.1150000   1.172438e-03  2.346713e-06
    300    311   2   0.50000     0.0850000    0.1150000   2.431434e-04  1.541678e-07
    310    303   2   0.50000     0.1150000   -0.1150000   2.431434e-04  1.541678e-07
    310    311   2   0.50000     0.1150000    0.1150000   5.042375e-05  1.012808e-08
    301    312   2   0.50000    -0.1150000    0.1150000   2.431434e-04  1.541678e-07
    311    304   2   0.50000     0.1150000   -0.1150000   2.431434e-04  1.541678e-07
    311    312   2   0.50000     0.1150000    0.1150000   5.042375e-05  1.012808e-08
    302    313   2   0.50000    -0.1150000    0.1150000   2.431434e-04  1.541678e-07
    312    305   2   0.50000     0.1150000   -0.1150000   2.431434e-04  1.541678e-07
    312    313   2   0.50000     0.1150000    0.1150000   5.042375e-05  1.012808e-08
    303    314   2   0.50000    -0.1150000    0.1150000   2.431434e-04  1.541678e-07
    313    300   2   0.50000     0.1150000    0.0850000   2.431434e-04  1.541678e-07
    313    314   2   0.50000     0.1150000    0.1150000   5.042375e-05  1.012808e-08
    296    318   2   0.50000     0.1700000   -0.4000000   8.411158e-04  8.795366e-07
    296    327   2   0.50000     0.1700000   -0.1200000   1.015252e-03  1.866303e-06
    296    328   2   0.50000     0.1700000    0.0300000   2.494471e-04  1.671101e-07
    315    318   2   0.50000     0.0600000   -0.4000000   2.066619e-04  7.875431e-08
    315    327   2   0.50000     0.0600000   -0.1200000   2.494471e-04  1.671101e-07
    315    328   2   0.50000     0.0600000    0.0300000   6.128906e-05  1.496315e-08
    316    318   2   0.50000     0.0600000   -0.4000000   2.066619e-04  7.875431e-08
    316    327   2   0.50000     0.0600000   -0.1200000   2.494471e-04  1.671101e-07
    316    328   2   0.50000     0.0600000    0.0300000   6.128906e-05  1.496315e-08
    306    319   2   0.50000    -0.1200000    0.2000000   1.015252e-03  1.866303e-06
    327    319   2   0.50000    -0.1200000    0.2000000   1.015252e-03  1.866303e-06
    328    319   2   0.50000     0.0300000    0.2000000   2.494471e-04  1.671101e-07
    306    336   2   0.50000    -0.1200000    0.0600000   2.494471e-04  1.671101e-07
    306    337   2   0.50000    -0.1200000    0.0600000   2.494471e-04  1.671101e-07
    306    338   2   0.50000    -0.1200000    0.1700000   1.015252e-03  1.866303e-06
    318    336   2   0.50000    -0.4000000    0.0600000   2.066619e-04  7.875431e-08
    318    337   2   0.50000    -0.4000000    0.0600000   2.066619e-04  7.875431e-08
    318    338   2   0.50000    -0.4000000    0.1700000   8.411158e-04  8.795366e-07
    328    336   2   0.50000     0.0300000    0.0600000   6.128906e-05  1.496315e-08
    328    337   2   0.50000     0.0300000    0.0600000   6.128906e-05  1.496315e-08
    328    338   2   0.50000     0.0300000    0.1700000   2.494471e-04  1.671101e-07
    317    320   2   0.50000     0.1700000   -0.2850000   8.411158e-04  8.795366e-07
    317    329   2   0.50000     0.1700000    0.1000000   2.494471e-04  1.671101e-07
    317    330   2   0.50000     0.1700000    0.1000000   2.494471e-04  1.671101e-07
    318    321   2   0.50000    -0.4000000    0.0850000   9.038862e-04  9.862632e-07
    329    321   2   0.50000     0.1000000    0.0850000   2.680627e-04  1.873879e-07
    330    321   2   0.50000     0.1000000    0.0850000   2.680627e-04  1.873879e-07
    319    322   2   0.50000     0.2000000   -0.1150000   1.091018e-03  2.092768e-06
    319    326   2   0.50000     0.2000000   -0.1150000   1.091018e-03  2.092768e-06
    320    323   2   0.50000    -0.2850000   -0.1150000   9.038862e-04  9.862632e-07
    320    331   2   0.50000    -0.2850000    0.1150000   1.874504e-04  6.479276e-08
    326    323   2   0.50000    -0.1150000   -0.1150000   1.172438e-03  2.346713e-06
    326    331   2   0.50000    -0.1150000    0.1150000   2.431434e-04  1.541678e-07
    320    325   2   0.50000    -0.2850000   -0.1150000   9.038862e-04  9.862632e-07
    320    335   2   0.50000    -0.2850000    0.1150000   1.874504e-04  6.479276e-08
    322    325   2   0.50000    -0.1150000   -0.1150000   1.172438e-03  2.346713e-06
    322    335   2   0.50000    -0.1150000    0.1150000   2.431434e-04  1.541678e-07
    321    324   2   0.50000     0.0850000   -0.1150000   1.172438e-03  2.346713e-06
    321    332   2   0.50000     0.0850000    0.1150000   2.431434e-04  1.541678e-07
    331    324   2   0.50000     0.1150000   -0.1150000   2.431434e-04  1.541678e-07
    331    332   2   0.50000     0.1150000    0.1150000   5.042375e-05  1.012808e-08
    322    333   2   0.50000    -0.1150000    0.1150000   2.431434e-04  1.541678e-07
    332    325   2   0.50000     0.1150000   -0.1150000   2.431434e-04  1.541678e-07
    332    333   2   0.50000     0.1150000    0.1150000   5.042375e-05  1.012808e-08
    323    334   2   0.50000    -0.1150000    0.1150000   2.431434e-04  1.541678e-07
    333    326   2   0.50000     0.1150000   -0.1150000   2.431434e-04  1.541678e-07
    333    334   2   0.50000     0.1150000    0.1150000   5.042375e-05  1.012808e-08
    324    335   2   0.50000    -0.1150000    0.1150000   2.431434e-04  1.541678e-07
    334    321   2   0.50000     0.1150000    0.0850000   2.431434e-04  1.541678e-07
    334    335   2   0.50000     0.1150000    0.1150000   5.042375e-05  1.012808e-08
    317    339   2   0.50000     0.1700000   -0.4000000   8.411158e-04  8.795366e-07
    317    348   2   0.50000     0.1700000   -0.1200000   1.015252e-03  1.866303e-06
    317    349   2   0.50000     0.1700000    0.0300000   2.494471e-04  1.671101e-07
    336    339   2   0.50000     0.0600000   -0.4000000   2.066619e-04  7.875431e-08
    336    348   2   0.50000     0.0600000   -0.1200000   2.494471e-04  1.671101e-07
    336    349   2   0.50000     0.0600000    0.0300000   6.128906e-05  1.496315e-08
    337    339   2   0.50000     0.0600000   -0.4000000   2.066619e-04  7.875431e-08
    337    348   2   0.50000     0.0600000   -0.1200000   2.494471e-04  1.671101e-07
    337    349   2   0.50000     0.0600000    0.0300000   6.128906e-05  1.496315e-08
    327    340   2   0.50000    -0.1200000    0.2000000   1.015252e-03  1.866303e-06
    348    340   2   0.50000    -0.1200000    0.2000000   1.015252e-03  1.866303e-06
    349    340   2   0.50000     0.0300000    0.2000000   2.494471e-04  1.671101e-07
    327    357   2   0.50000    -0.1200000    0.0600000   2.494471e-04  1.671101e-07
    327    358   2   0.50000    -0.1200000    0.0600000   2.494471e-04  1.671101e-07
    327    359   2   0.50000    -0.1200000    0.1700000   1.015252e-03  1.866303e-06
    339    357   2   0.50000    -0.4000000    0.0600000   2.066619e-04  7.875431e-08
    339    358   2   0.50000    -0.4000000    0.0600000   2.066619e-04  7.875431e-08
    339    359   2   0.50000    -0.4000000    0.1700000   8.411158e-04  8.795366e-07
    349    357   2   0.50000     0.0300000    0.0600000   6.128906e-05  1.496315e-08
    349    358   2   0.50000     0.0300000    0.0600000   6.128906e-05  1.496315e-08
    349    359   2   0.50000     0.0300000    0.1700000   2.494471e-04  1.671101e-07
    338    341   2   0.50000     0.1700000   -0.2850000   8.411158e-04  8.795366e-07
    338    350   2   0.50000     0.1700000    0.1000000   2.494471e-04  1.671101e-07
    338    351   2   0.50000     0.1700000    0.1000000   2.494471e-04  1.671101e-07
    339    342   2   0.50000    -0.4000000    0.0850000   9.038862e-04  9.862632e-07
    350    342   2   0.50000     0.1000000    0.0850000   2.680627e-04  1.873879e-07
    351    342   2   0.50000     0.1000000    0.0850000   2.680627e-04  1.873879e-07
    340    343   2   0.50000     0.2000000   -0.1150000   1.091018e-03  2.092768e-06
    340    347   2   0.50000     0.2000000   -0.1150000   1.091018e-03  2.092768e-06
    341    344   2   0.50000    -0.2850000   -0.1150000   9.038862e-04  9.862632e-07
    341    352   2   0.50000    -0.2850000    0.1150000   1.874504e-04  6.479276e-08
    347    344   2   0.50000    -0.1150000   -0.1150000   1.172438e-03  2.346713e-06
    347    352   2   0.50000    -0.1150000    0.1150000   2.431434e-04  1.541678e-07
    341    346   2   0.50000    -0.2850000   -0.1150000   9.038862e-04  9.862632e-07
    341    356   2   0.50000    -0.2850000    0.1150000   1.874504e-04  6.479276e-08
    343    346   2   0.50000    -0.1150000   -0.1150000   1.172438e-03  2.346713e-06
    343    356   2   0.50000    -0.1150000    0.1150000   2.431434e-04  1.541678e-07
    342    345   2   0.50000     0.0850000   -0.1150000   1.172438e-03  2.346713e-06
    342    353   2   0.50000     0.0850000    0.1150000   2.431434e-04  1.541678e-07
    352    345   2   0.50000     0.1150000   -0.1150000   2.431434e-04  1.541678e-07
    352    353   2   0.50000     0.1150000    0.1150000   5.042375e-05  1.012808e-08
    343    354   2   0.50000    -0.1150000    0.1150000   2.431434e-04  1.541678e-07
    353    346   2   0.50000     0.1150000   -0.1150000   2.431434e-04  1.541678e-07
    353    354   2   0.50000     0.1150000    0.1150000   5.042375e-05  1.012808e-08
    344    355   2   0.50000    -0.1150000    0.1150000   2.431434e-04  1.541678e-07
    354    347   2   0.50000     0.1150000   -0.1150000   2.431434e-04  1.541678e-07
    354    355   2   0.50000     0.1150000    0.1150000   5.042375e-05  1.012808e-08
    345    356   2   0.50000    -0.1150000    0.1150000   2.431434e-04  1.541678e-07
    355    342   2   0.50000     0.1150000    0.0850000   2.431434e-04  1.541678e-07
    355    356   2   0.50000     0.1150000    0.1150000   5.042375e-05  1.012808e-08
    338    360   2   0.50000     0.1700000   -0.4000000   8.411158e-04  8.795366e-07
    338    369   2   0.50000     0.1700000   -0.1200000   1.015252e-03  1.866303e-06
    338    370   2   0.50000     0.1700000    0.0300000   2.494471e-04  1.671101e-07
    357    360   2   0.50000     0.0600000   -0.4000000   2.066619e-04  7.875431e-08
    357    369   2   0.50000     0.0600000   -0.1200000   2.494471e-04  1.671101e-07
    357    370   2   0.50000     0.0600000    0.0300000   6.128906e-05  1.496315e-08
    358    360   2   0.50000     0.0600000   -0.4000000   2.066619e-04  7.875431e-08
    358    369   2   0.50000     0.0600000   -0.1200000   2.494471e-04  1.671101e-07
    358    370   2   0.50000     0.0600000    0.0300000   6.128906e-05  1.496315e-08
    348    361   2   0.50000    -0.1200000    0.2000000   1.015252e-03  1.866303e-06
    369    361   2   0.50000    -0.1200000    0.2000000   1.015252e-03  1.866303e-06
    370    361   2   0.50000     0.0300000    0.2000000   2.494471e-04  1.671101e-07
    348    378   2   0.50000    -0.1200000    0.0600000   2.494471e-04  1.671101e-07
    348    379   2   0.50000    -0.1200000    0.0600000   2.494471e-04  1.671101e-07
    348    380   2   0.50000    -0.1200000    0.1700000   1.015252e-03  1.866303e-06
    360    378   2   0.50000    -0.4000000    0.0600000   2.066619e-04  7.875431e-08
    360    379   2   0.50000    -0.4000000    0.0600000   2.066619e-04  7.875431e-08
    360    380   2   0.50000    -0.4000000    0.1700000   8.411158e-04  8.795366e-07
    370    378   2   0.50000     0.0300000    0.0600000   6.128906e-05  1.496315e-08
    370    379   2   0.50000     0.0300000    0.0600000   6.128906e-05  1.496315e-08
    370    380   2   0.50000     0.0300000    0.1700000   2.494471e-04  1.671101e-07
    359    362   2   0.50000     0.1700000   -0.2850000   8.411158e-04  8.795366e-07
    359    371   2   0.50000     0.1700000    0.1000000   2.494471e-04  1.671101e-07
    359    372   2   0.50000     0.1700000    0.1000000   2.494471e-04  1.671101e-07
    360    363   2   0.50000    -0.4000000    0.0850000   9.038862e-04  9.862632e-07
    371    363   2   0.50000     0.1000000    0.0850000   2.680627e-04  1.873879e-07
    372    363   2   0.50000     0.1000000    0.0850000   2.680627e-04  1.873879e-07
    361    364   2   0.50000     0.2000000   -0.1150000   1.091018e-03  2.092768e-06
    361    368   2   0.50000     0.2000000   -0.1150000   1.091018e-03  2.092768e-06
    362    365   2   0.50000    -0.2850000   -0.1150000   9.038862e-04  9.862632e-07
    362    373   2   0.50000    -0.2850000    0.1150000   1.874504e-04  6.479276e-08
    368    365   2   0.50000    -0.1150000   -0.1150000   1.172438e-03  2.346713e-06
    368    373   2   0.50000    -0.1150000    0.1150000   2.431434e-04  1.541678e-07
    362    367   2   0.50000    -0.2850000   -0.1150000   9.038862e-04  9.862632e-07
    362    377   2   0.50000    -0.2850000    0.1150000   1.874504e-04  6.479276e-08
    364    367   2   0.50000    -0.1150000   -0.1150000   1.172438e-03  2.346713e-06
    364    377   2   0.50000    -0.1150000    0.1150000   2.431434e-04  1.541678e-07
    363    366   2   0.50000     0.0850000   -0.1150000   1.172438e-03  2.346713e-06
    363    374   2   0.50000     0.0850000    0.1150000   2.431434e-04  1.541678e-07
    373    366   2   0.50000     0.1150000   -0.1150000   2.431434e-04  1.541678e-07
    373    374   2   0.50000     0.1150000    0.1150000   5.042375e-05  1.012808e-08
    364    375   2   0.50000    -0.1150000    0.1150000   2.431434e-04  1.541678e-07
    374    367   2   0.50000     0.1150000   -0.1150000   2.431434e-04  1.541678e-07
    374    375   2   0.50000     0.1150000    0.1150000   5.042375e-05  1.012808e-08
    365    376   2   0.50000    -0.1150000    0.1150000   2.431434e-04  1.541678e-07
    375    368   2   0.50000     0.1150000   -0.1150000   2.431434e-04  1.541678e-07
    375    376   2   0.50000     0.1150000    0.1150000   5.042375e-05  1.012808e-08
    366    377   2   0.50000    -0.1150000    0.1150000   2.431434e-04  1.541678e-07
    376    363   2   0.50000     0.1150000    0.0850000   2.431434e-04  1.541678e-07
    376    377   2   0.50000     0.1150000    0.1150000   5.042375e-05  1.012808e-08
    359    381   2   0.50000     0.1700000   -0.4000000   8.411158e-04  8.795366e-07
    359    390   2   0.50000     0.1700000   -0.1200000   1.015252e-03  1.866303e-06
    359    391   2   0.50000     0.1700000    0.0300000   2.494471e-04  1.671101e-07
    378    381   2   0.50000     0.0600000   -0.4000000   2.066619e-04  7.875431e-08
    378    390   2   0.50000     0.0600000   -0.1200000   2.494471e-04  1.671101e-07
    378    391   2   0.50000     0.0600000    0.0300000   6.128906e-05  1.496315e-08
    379    381   2   0.50000     0.0600000   -0.4000000   2.066619e-04  7.875431e-08
    379    390   2   0.50000     0.0600000   -0.1200000   2.494471e-04  1.671101e-07
    379    391   2   0.50000     0.0600000    0.0300000   6.128906e-05  1.496315e-08
    369    382   2   0.50000    -0.1200000    0.2000000   1.015252e-03  1.866303e-06
    390    382   2   0.50000    -0.1200000    0.2000000   1.015252e-03  1.866303e-06
    391    382   2   0.50000     0.0300000    0.2000000   2.494471e-04  1.671101e-07
    369    399   2   0.50000    -0.1200000    0.0600000   2.494471e-04  1.671101e-07
    369    400   2   0.50000    -0.1200000    0.0600000   2.494471e-04  1.671101e-07
    369    401   2   0.50000    -0.1200000    0.1700000   1.015252e-03  1.866303e-06
    381    399   2   0.50000    -0.4000000    0.0600000   2.066619e-04  7.875431e-08
    381    400   2   0.50000    -0.4000000    0.0600000   2.066619e-04  7.875431e-08
    381    401   2   0.50000    -0.4000000    0.1700000   8.411158e-04  8.795366e-07
    391    399   2   0.50000     0.0300000    0.0600000   6.128906e-05  1.496315e-08
    391    400   2   0.50000     0.0300000    0.0600000   6.128906e-05  1.496315e-08
    391    401   2   0.50000     0.0300000    0.1700000   2.494471e-04  1.671101e-07
    380    383   2   0.50000     0.1700000   -0.2850000   8.411158e-04  8.795366e-07
    380    392   2   0.50000     0.1700000    0.1000000   2.494471e-04  1.671101e-07
    380    393   2   0.50000     0.1700000    0.1000000   2.494471e-04  1.671101e-07
    381    384   2   0.50000    -0.4000000    0.0850000   9.038862e-04  9.862632e-07
    392    384   2   0.50000     0.1000000    0.0850000   2.680627e-04  1.873879e-07
    393    384   2   0.50000     0.1000000    0.0850000   2.680627e-04  1.873879e-07
    382    385   2   0.50000     0.2000000   -0.1150000   1.091018e-03  2.092768e-06
    382    389   2   0.50000     0.2000000   -0.1150000   1.091018e-03  2.092768e-06
    383    386   2   0.50000    -0.2850000   -0.1150000   9.038862e-04  9.862632e-07
    383    394   2   0.50000    -0.2850000    0.1150000   1.874504e-04  6.479276e-08
    389    386   2   0.50000    -0.1150000   -0.1150000   1.172438e-03  2.346713e-06
    389    394   2   0.50000    -0.1150000    0.1150000   2.431434e-04  1.541678e-07
    383    388   2   0.50000    -0.2850000   -0.1150000   9.038862e-04  9.862632e-07
    383    398   2   0.50000    -0.2850000    0.1150000   1.874504e-04  6.479276e-08
    385    388   2   0.50000    -0.1150000   -0.1150000   1.172438e-03  2.346713e-06
    385    398   2   0.50000    -0.1150000    0.1150000   2.431434e-04  1.541678e-07
    384    387   2   0.50000     0.0850000   -0.1150000   1.172438e-03  2.346713e-06
    384    395   2   0.50000     0.0850000    0.1150000   2.431434e-04  1.541678e-07
    394    387   2   0.50000     0.1150000   -0.1150000   2.431434e-04  1.541678e-07
    394    395   2   0.50000     0.1150000    0.1150000   5.042375e-05  1.012808e-08
    385    396   2   0.50000    -0.1150000    0.1150000   2.431434e-04  1.541678e-07
    395    388   2   0.50000     0.1150000   -0.1150000   2.431434e-04  1.541678e-07
    395    396   2   0.50000     0.1150000    0.1150000   5.042375e-05  1.012808e-08
    386    397   2   0.50000    -0.1150000    0.1150000   2.431434e-04  1.541678e-07
    396    389   2   0.50000     0.1150000   -0.1150000   2.431434e-04  1.541678e-07
    396    397   2   0.50000     0.1150000    0.1150000   5.042375e-05  1.012808e-08
    387    398   2   0.50000    -0.1150000    0.1150000   2.431434e-04  1.541678e-07
    397    384   2   0.50000     0.1150000    0.0850000   2.431434e-04  1.541678e-07
    397    398   2   0.50000     0.1150000    0.1150000   5.042375e-05  1.012808e-08
    380    402   2   0.50000     0.1700000   -0.4000000   8.411158e-04  8.795366e-07
    380    411   2   0.50000     0.1700000   -0.1800000   1.015252e-03  1.866303e-06
    380    412   2   0.50000     0.1700000    0.0300000   2.494471e-04  1.671101e-07
    399    402   2   0.50000     0.0600000   -0.4000000   2.066619e-04  7.875431e-08
    399    411   2   0.50000     0.0600000   -0.1800000   2.494471e-04  1.671101e-07
    399    412   2   0.50000     0.0600000    0.0300000   6.128906e-05  1.496315e-08
    400    402   2   0.50000     0.0600000   -0.4000000   2.066619e-04  7.875431e-08
    400    411   2   0.50000     0.0600000   -0.1800000   2.494471e-04  1.671101e-07
    400    412   2   0.50000     0.0600000    0.0300000   6.128906e-05  1.496315e-08
    390    403   2   0.50000    -0.1200000    0.2000000   1.015252e-03  1.866303e-06
    411    403   2   0.50000    -0.1800000    0.2000000   1.015252e-03  1.866303e-06
    412    403   2   0.50000     0.0300000    0.2000000   2.494471e-04  1.671101e-07
    390    420   2   0.50000    -0.1200000    0.0600000   2.494471e-04  1.671101e-07
    390    421   2   0.50000    -0.1200000    0.0600000   2.494471e-04  1.671101e-07
    390    422   2   0.50000    -0.1200000    0.0600000   2.494471e-04  1.671101e-07
    402    420   2   0.50000    -0.4000000    0.0600000   2.066619e-04  7.875431e-08
    402    421   2   0.50000    -0.4000000    0.0600000   2.066619e-04  7.875431e-08
    402    422   2   0.50000    -0.4000000    0.0600000   2.066619e-04  7.875431e-08
    412    420   2   0.50000     0.0300000    0.0600000   6.128906e-05  1.496315e-08
    412    421   2   0.50000     0.0300000    0.0600000   6.128906e-05  1.496315e-08
    412    422   2   0.50000     0.0300000    0.0600000   6.128906e-05  1.496315e-08
    401    404   2   0.50000     0.1700000   -0.2850000   8.411158e-04  8.795366e-07
    401    413   2   0.50000     0.1700000    0.1000000   2.494471e-04  1.671101e-07
    401    414   2   0.50000     0.1700000    0.1000000   2.494471e-04  1.671101e-07
    402    405   2   0.50000    -0.4000000    0.0850000   9.038862e-04  9.862632e-07
    413    405   2   0.50000     0.1000000    0.0850000   2.680627e-04  1.873879e-07
    414    405   2   0.50000     0.1000000    0.0850000   2.680627e-04  1.873879e-07
    403    406   2   0.50000     0.2000000   -0.1150000   1.091018e-03  2.092768e-06
    403    410   2   0.50000     0.2000000   -0.1150000   1.091018e-03  2.092768e-06
    404    407   2   0.50000    -0.2850000   -0.1150000   9.038862e-04  9.862632e-07
    404    415   2   0.50000    -0.2850000    0.1150000   1.874504e-04  6.479276e-08
    410    407   2   0.50000    -0.1150000   -0.1150000   1.172438e-03  2.346713e-06
    410    415   2   0.50000    -0.1150000    0.1150000   2.431434e-04  1.541678e-07
    404    409   2   0.50000    -0.2850000   -0.1150000   9.038862e-04  9.862632e-07
    404    419   2   0.50000    -0.2850000    0.1150000   1.874504e-04  6.479276e-08
    406    409   2   0.50000    -0.1150000   -0.1150000   1.172438e-03  2.346713e-06
    406    419   2   0.50000    -0.1150000    0.1150000   2.431434e-04  1.541678e-07
    405    408   2   0.50000     0.0850000   -0.1150000   1.172438e-03  2.346713e-06
    405    416   2   0.50000     0.0850000    0.1150000   2.431434e-04  1.541678e-07
    415    408   2   0.50000     0.1150000   -0.1150000   2.431434e-04  1.541678e-07
    415    416   2   0.50000     0.1150000    0.1150000   5.042375e-05  1.012808e-08
    406    417   2   0.50000    -0.1150000    0.1150000   2.431434e-04  1.541678e-07
    416    409   2   0.50000     0.1150000   -0.1150000   2.431434e-04  1.541678e-07
    416    417   2   0.50000     0.1150000    0.1150000   5.042375e-05  1.012808e-08
    407    418   2   0.50000    -0.1150000    0.1150000   2.431434e-04  1.541678e-07
    417    410   2   0.50000     0.1150000   -0.1150000   2.431434e-04  1.541678e-07
    417    418   2   0.50000     0.1150000    0.1150000   5.042375e-05  1.012808e-08
    408    419   2   0.50000    -0.1150000    0.1150000   2.431434e-04  1.541678e-07
    418    405   2   0.50000     0.1150000    0.0850000   2.431434e-04  1.541678e-07
    418    419   2   0.50000     0.1150000    0.1150000   5.042375e-05  1.012808e-08

[ angles ]
; ai  aj  ak
      2      1     11   1    109.5000    418.4000
      2      1     12   1    109.5000    292.8800
      2      1     22   1    109.5000    292.8800
     11      1     12   1    110.7000    313.8000
     11      1     22   1    110.7000    313.8000
     12      1     22   1    107.8000    276.1440
      1      2      3   1    109.5000    502.0800
      2      3      4   1    111.5500    774.8768
      2      3     13   1    109.5000    292.8800
      2      3     14   1    109.5000    292.8800
      4      3     13   1    109.5000    292.8800
      4      3     14   1    109.5000    292.8800
     13      3     14   1    109.5000    276.1440
      3      4      5   1    112.3670    836.8000
      4      5      6   1    120.0000    585.7600
      4      5     10   1    120.0000    585.7600
      6      5     10   1    120.0000    527.1840
      5      6      7   1    120.0000    527.1840
      5      6     15   1    120.0000    292.8800
      7      6     15   1    120.0000    292.8800
      6      7      8   1    120.0000    527.1840
      6      7     16   1    120.0000    292.8800
      8      7     16   1    120.0000    292.8800
      7      8      9   1    120.0000    527.1840
      7      8     17   1    120.0000    292.8800
      9      8     17   1    120.0000    292.8800
      8      9     10   1    120.0000    527.1840
      8      9     18   1    120.0000    292.8800
     10      9     18   1    120.0000    292.8800
      5     10      9   1    120.0000    527.1840
      5     10     19   1    120.0000    292.8800
      9     10     19   1    120.0000    292.8800
      1     11     20   1    110.7000    313.8000
      1     11     21   1    110.7000    313.8000
      1     11     23   1    112.7000    488.2728
     20     11     21   1    107.8000    276.1440
     20     11     23   1    110.7000    313.8000
     21     11     23   1    110.7000    313.8000
     11     23     24   1    109.5000    418.4000
     11     23     33   1    112.7000    488.2728
     11     23     34   1    110.7000    313.8000
     24     23     33   1    109.5000    418.4000
     24     23     34   1    109.5000    292.8800
     33     23     34   1    110.7000    313.8000
     23     24     25   1    109.5000    502.0800
     24     25     26   1    111.5500    774.8768
     24     25     35   1    109.5000    292.8800
     24     25     36   1    109.5000    292.8800
     26     25     35   1    109.5000    292.8800
     26     25     36   1    109.5000    292.8800
     35     25     36   1    109.5000    276.1440
     25     26     27   1    112.3670    836.8000
     26     27     28   1    120.0000    585.7600
     26     27     32   1    120.0000    585.7600
     28     27     32   1    120.0000    527.1840
     27     28     29   1    120.0000    527.1840
     27     28     37   1    120.0000    292.8800
     29     28     37   1    120.0000    292.8800
     28     29     30   1    120.0000    527.1840
     28     29     38   1    120.0000    292.8800
     30     29     38   1    120.0000    292.8800
     29     30     31   1    120.0000    527.1840
     29     30     39   1    120.0000    292.8800
     31     30     39   1    120.0000    292.8800
     30     31     32   1    120.0000    527.1840
     30     31     40   1    120.0000    292.8800
     32     31     40   1    120.0000    292.8800
     27     32     31   1    120.0000    527.1840
     27     32     41   1    120.0000    292.8800
     31     32     41   1    120.0000    292.8800
     23     33     42   1    110.7000    313.8000
     23     33     43   1    110.7000    313.8000
     23     33     44   1    112.7000    488.2728
     42     33     43   1    107.8000    276.1440
     42     33     44   1    110.7000    313.8000
     43     33     44   1    110.7000    313.8000
     33     44     45   1    109.5000    418.4000
     33     44     54   1    112.7000    488.2728
     33     44     55   1    110.7000    313.8000
     45     44     54   1    109.5000    418.4000
     45     44     55   1    109.5000    292.8800
     54     44     55   1    110.7000    313.8000
     44     45     46   1    109.5000    502.0800
     45     46     47   1    111.5500    774.8768
     45     46     56   1    109.5000    292.8800
     45     46     57   1    109.5000    292.8800
     47     46     56   1    109.5000    292.8800
     47     46     57   1    109.5000    292.8800
     56     46     57   1    109.5000    276.1440
     46     47     48   1    112.3670    836.8000
     47     48     49   1    120.0000    585.7600
     47     48     53   1    120.0000    585.7600
     49     48     53   1    120.0000    527.1840
     48     49     50   1    120.0000    527.1840
     48     49     58   1    120.0000    292.8800
     50     49     58   1    120.0000    292.8800
     49     50     51   1    120.0000    527.1840
     49     50     59   1    120.0000    292.8800
     51     50     59   1    120.0000    292.8800
     50     51     52   1    120.0000    527.1840
     50     51     60   1    120.0000    292.8800
     52     51     60   1    120.0000    292.8800
     51     52     53   1    120.0000    527.1840
     51     52     61   1    120.0000    292.8800
     53     52     61   1    120.0000    292.8800
     48     53     52   1    120.0000    527.1840
     48     53     62   1    120.0000    292.8800
     52     53     62   1    120.0000    292.8800
     44     54     63   1    110.7000    313.8000
     44     54     64   1    110.7000    313.8000
     44     54     65   1    112.7000    488.2728
     63     54     64   1    107.8000    276.1440
     63     54     65   1    110.7000    313.8000
     64     54     65   1    110.7000    313.8000
     54     65     66   1    109.5000    418.4000
     54     65     75   1    112.7000    488.2728
     54     65     76   1    110.7000    313.8000
     66     65     75   1    109.5000    418.4000
     66     65     76   1    109.5000    292.8800
     75     65     76   1    110.7000    313.8000
     65     66     67   1    109.5000    502.0800
     66     67     68   1    111.5500    774.8768
     66     67     77   1    109.5000    292.8800
     66     67     78   1    109.5000    292.8800
     68     67     77   1    109.5000    292.8800
     68     67     78   1    109.5000    292.8800
     77     67     78   1    109.5000    276.1440
     67     68     69   1    112.3670    836.8000
     68     69     70   1    120.0000    585.7600
     68     69     74   1    120.0000    585.7600
     70     69     74   1    120.0000    527.1840
     69     70     71   1    120.0000    527.1840
     69     70     79   1    120.0000    292.8800
     71     70     79   1    120.0000    292.8800
     70     71     72   1    120.0000    527.1840
     70     71     80   1    120.0000    292.8800
     72     71     80   1    120.0000    292.8800
     71     72     73   1    120.0000    527.1840
     71     72     81   1    120.0000    292.8800
     73     72     81   1    120.0000    292.8800
     72     73     74   1    120.0000    527.1840
     72     73     82   1    120.0000    292.8800
     74     73     82   1    120.0000    292.8800
     69     74     73   1    120.0000    527.1840
     69     74     83   1    120.0000    292.8800
     73     74     83   1    120.0000    292.8800
     65     75     84   1    110.7000    313.8000
     65     75     85   1    110.7000    313.8000
     65     75     86   1    112.7000    488.2728
     84     75     85   1    107.8000    276.1440
     84     75     86   1    110.7000    313.8000
     85     75     86   1    110.7000    313.8000
     75     86     87   1    109.5000    418.4000
     75     86     96   1    112.7000    488.2728
     75     86     97   1    110.7000    313.8000
     87     86     96   1    109.5000    418.4000
     87     86     97   1    109.5000    292.8800
     96     86     97   1    110.7000    313.8000
     86     87     88   1    109.5000    502.0800
     87     88     89   1    111.5500    774.8768
     87     88     98   1    109.5000    292.8800
     87     88     99   1    109.5000    292.8800
     89     88     98   1    109.5000    292.8800
     89     88     99   1    109.5000    292.8800
     98     88     99   1    109.5000    276.1440
     88     89     90   1    112.3670    836.8000
     89     90     91   1    120.0000    585.7600
     89     90     95   1    120.0000    585.7600
     91     90     95   1    120.0000    527.1840
     90     91     92   1    120.0000    527.1840
     90     91    100   1    120.0000    292.8800
     92     91    100   1    120.0000    292.8800
     91     92     93   1    120.0000    527.1840
     91     92    101   1    120.0000    292.8800
     93     92    101   1    120.0000    292.8800
     92     93     94   1    120.0000    527.1840
     92     93    102   1    120.0000    292.8800
     94     93    102   1    120.0000    292.8800
     93     94     95   1    120.0000    527.1840
     93     94    103   1    120.0000    292.8800
     95     94    103   1    120.0000    292.8800
     90     95     94   1    120.0000    527.1840
     90     95    104   1    120.0000    292.8800
     94     95    104   1    120.0000    292.8800
     86     96    105   1    110.7000    313.8000
     86     96    106   1    110.7000    313.8000
     86     96    107   1    112.7000    488.2728
    105     96    106   1    107.8000    276.1440
    105     96    107   1    110.7000    313.8000
    106     96    107   1    110.7000    313.8000
     96    107    108   1    109.5000    418.4000
     96    107    117   1    112.7000    488.2728
     96    107    118   1    110.7000    313.8000
    108    107    117   1    109.5000    418.4000
    108    107    118   1    109.5000    292.8800
    117    107    118   1    110.7000    313.8000
    107    108    109   1    109.5000    502.0800
    108    109    110   1    111.5500    774.8768
    108    109    119   1    109.5000    292.8800
    108    109    120   1    109.5000    292.8800
    110    109    119   1    109.5000    292.8800
    110    109    120   1    109.5000    292.8800
    119    109    120   1    109.5000    276.1440
    109    110    111   1    112.3670    836.8000
    110    111    112   1    120.0000    585.7600
    110    111    116   1    120.0000    585.7600
    112    111    116   1    120.0000    527.1840
    111    112    113   1    120.0000    527.1840
    111    112    121   1    120.0000    292.8800
    113    112    121   1    120.0000    292.8800
    112    113    114   1    120.0000    527.1840
    112    113    122   1    120.0000    292.8800
    114    113    122   1    120.0000    292.8800
    113    114    115   1    120.0000    527.1840
    113    114    123   1    120.0000    292.8800
    115    114    123   1    120.0000    292.8800
    114    115    116   1    120.0000    527.1840
    114    115    124   1    120.0000    292.8800
    116    115    124   1    120.0000    292.8800
    111    116    115   1    120.0000    527.1840
    111    116    125   1    120.0000    292.8800
    115    116    125   1    120.0000    292.8800
    107    117    126   1    110.7000    313.8000
    107    117    127   1    110.7000    313.8000
    107    117    128   1    112.7000    488.2728
    126    117    127   1    107.8000    276.1440
    126    117    128   1    110.7000    313.8000
    127    117    128   1    110.7000    313.8000
    117    128    129   1    109.5000    418.4000
    117    128    138   1    112.7000    488.2728
    117    128    139   1    110.7000    313.8000
    129    128    138   1    109.5000    418.4000
    129    128    139   1    109.5000    292.8800
    138    128    139   1    110.7000    313.8000
    128    129    130   1    109.5000    502.0800
    129    130    131   1    111.5500    774.8768
    129    130    140   1    109.5000    292.8800
    129    130    141   1    109.5000    292.8800
    131    130    140   1    109.5000    292.8800
    131    130    141   1    109.5000    292.8800
    140    130    141   1    109.5000    276.1440
    130    131    132   1    112.3670    836.8000
    131    132    133   1    120.0000    585.7600
    131    132    137   1    120.0000    585.7600
    133    132    137   1    120.0000    527.1840
    132    133    134   1    120.0000    527.1840
    132    133    142   1    120.0000    292.8800
    134    133    142   1    120.0000    292.8800
    133    134    135   1    120.0000    527.1840
    133    134    143   1    120.0000    292.8800
    135    134    143   1    120.0000    292.8800
    134    135    136   1    120.0000    527.1840
    134    135    144   1    120.0000    292.8800
    136    135    144   1    120.0000    292.8800
    135    136    137   1    120.0000    527.1840
    135    136    145   1    120.0000    292.8800
    137    136    145   1    120.0000    292.8800
    132    137    136   1    120.0000    527.1840
    132    137    146   1    120.0000    292.8800
    136    137    146   1    120.0000    292.8800
    128    138    147   1    110.7000    313.8000
    128    138    148   1    110.7000    313.8000
    128    138    149   1    112.7000    488.2728
    147    138    148   1    107.8000    276.1440
    147    138    149   1    110.7000    313.8000
    148    138    149   1    110.7000    313.8000
    138    149    150   1    109.5000    418.4000
    138    149    159   1    112.7000    488.2728
    138    149    160   1    110.7000    313.8000
    150    149    159   1    109.5000    418.4000
    150    149    160   1    109.5000    292.8800
    159    149    160   1    110.7000    313.8000
    149    150    151   1    109.5000    502.0800
    150    151    152   1    111.5500    774.8768
    150    151    161   1    109.5000    292.8800
    150    151    162   1    109.5000    292.8800
    152    151    161   1    109.5000    292.8800
    152    151    162   1    109.5000    292.8800
    161    151    162   1    109.5000    276.1440
    151    152    153   1    112.3670    836.8000
    152    153    154   1    120.0000    585.7600
    152    153    158   1    120.0000    585.7600
    154    153    158   1    120.0000    527.1840
    153    154    155   1    120.0000    527.1840
    153    154    163   1    120.0000    292.8800
    155    154    163   1    120.0000    292.8800
    154    155    156   1    120.0000    527.1840
    154    155    164   1    120.0000    292.8800
    156    155    164   1    120.0000    292.8800
    155    156    157   1    120.0000    527.1840
    155    156    165   1    120.0000    292.8800
    157    156    165   1    120.0000    292.8800
    156    157    158   1    120.0000    527.1840
    156    157    166   1    120.0000    292.8800
    158    157    166   1    120.0000    292.8800
    153    158    157   1    120.0000    527.1840
    153    158    167   1    120.0000    292.8800
    157    158    167   1    120.0000    292.8800
    149    159    168   1    110.7000    313.8000
    149    159    169   1    110.7000    313.8000
    149    159    170   1    112.7000    488.2728
    168    159    169   1    107.8000    276.1440
    168    159    170   1    110.7000    313.8000
    169    159    170   1    110.7000    313.8000
    159    170    171   1    109.5000    418.4000
    159    170    180   1    112.7000    488.2728
    159    170    181   1    110.7000    313.8000
    171    170    180   1    109.5000    418.4000
    171    170    181   1    109.5000    292.8800
    180    170    181   1    110.7000    313.8000
    170    171    172   1    109.5000    502.0800
    171    172    173   1    111.5500    774.8768
    171    172    182   1    109.5000    292.8800
    171    172    183   1    109.5000    292.8800
    173    172    182   1    109.5000    292.8800
    173    172    183   1    109.5000    292.8800
    182    172    183   1    109.5000    276.1440
    172    173    174   1    112.3670    836.8000
    173    174    175   1    120.0000    585.7600
    173    174    179   1    120.0000    585.7600
    175    174    179   1    120.0000    527.1840
    174    175    176   1    120.0000    527.1840
    174    175    184   1    120.0000    292.8800
    176    175    184   1    120.0000    292.8800
    175    176    177   1    120.0000    527.1840
    175    176    185   1    120.0000    292.8800
    177    176    185   1    120.0000    292.8800
    176    177    178   1    120.0000    527.1840
    176    177    186   1    120.0000    292.8800
    178    177    186   1    120.0000    292.8800
    177    178    179   1    120.0000    527.1840
    177    178    187   1    120.0000    292.8800
    179    178    187   1    120.0000    292.8800
    174    179    178   1    120.0000    527.1840
    174    179    188   1    120.0000    292.8800
    178    179    188   1    120.0000    292.8800
    170    180    189   1    110.7000    313.8000
    170    180    190   1    110.7000    313.8000
    170    180    191   1    112.7000    488.2728
    189    180    190   1    107.8000    276.1440
    189    180    191   1    110.7000    313.8000
    190    180    191   1    110.7000    313.8000
    180    191    192   1    109.5000    418.4000
    180    191    201   1    112.7000    488.2728
    180    191    202   1    110.7000    313.8000
    192    191    201   1    109.5000    418.4000
    192    191    202   1    109.5000    292.8800
    201    191    202   1    110.7000    313.8000
    191    192    193   1    109.5000    502.0800
    192    193    194   1    111.5500    774.8768
    192    193    203   1    109.5000    292.8800
    192    193    204   1    109.5000    292.8800
    194    193    203   1    109.5000    292.8800
    194    193    204   1    109.5000    292.8800
    203    193    204   1    109.5000    276.1440
    193    194    195   1    112.3670    836.8000
    194    195    196   1    120.0000    585.7600
    194    195    200   1    120.0000    585.7600
    196    195    200   1    120.0000    527.1840
    195    196    197   1    120.0000    527.1840
    195    196    205   1    120.0000    292.8800
    197    196    205   1    120.0000    292.8800
    196    197    198   1    120.0000    527.1840
    196    197    206   1    120.0000    292.8800
    198    197    206   1    120.0000    292.8800
    197    198    199   1    120.0000    527.1840
    197    198    207   1    120.0000    292.8800
    199    198    207   1    120.0000    292.8800
    198    199    200   1    120.0000    527.1840
    198    199    208   1    120.0000    292.8800
    200    199    208   1    120.0000    292.8800
    195    200    199   1    120.0000    527.1840
    195    200    209   1    120.0000    292.8800
    199    200    209   1    120.0000    292.8800
    191    201    210   1    110.7000    313.8000
    191    201    211   1    110.7000    313.8000
    191    201    212   1    112.7000    488.2728
    210    201    211   1    107.8000    276.1440
    210    201    212   1    110.7000    313.8000
    211    201    212   1    110.7000    313.8000
    201    212    213   1    109.5000    418.4000
    201    212    222   1    112.7000    488.2728
    201    212    223   1    110.7000    313.8000
    213    212    222   1    109.5000    418.4000
    213    212    223   1    109.5000    292.8800
    222    212    223   1    110.7000    313.8000
    212    213    214   1    109.5000    502.0800
    213    214    215   1    111.5500    774.8768
    213    214    224   1    109.5000    292.8800
    213    214    225   1    109.5000    292.8800
    215    214    224   1    109.5000    292.8800
    215    214    225   1    109.5000    292.8800
    224    214    225   1    109.5000    276.1440
    214    215    216   1    112.3670    836.8000
    215    216    217   1    120.0000    585.7600
    215    216    221   1    120.0000    585.7600
    217    216    221   1    120.0000    527.1840
    216    217    218   1    120.0000    527.1840
    216    217    226   1    120.0000    292.8800
    218    217    226   1    120.0000    292.8800
    217    218    219   1    120.0000    527.1840
    217    218    227   1    120.0000    292.8800
    219    218    227   1    120.0000    292.8800
    218    219    220   1    120.0000    527.1840
    218    219    228   1    120.0000    292.8800
    220    219    228   1    120.0000    292.8800
    219    220    221   1    120.0000    527.1840
    219    220    229   1    120.0000    292.8800
    221    220    229   1    120.0000    292.8800
    216    221    220   1    120.0000    527.1840
    216    221    230   1    120.0000    292.8800
    220    221    230   1    120.0000    292.8800
    212    222    231   1    110.7000    313.8000
    212    222    232   1    110.7000    313.8000
    212    222    233   1    112.7000    488.2728
    231    222    232   1    107.8000    276.1440
    231    222    233   1    110.7000    313.8000
    232    222    233   1    110.7000    313.8000
    222    233    234   1    109.5000    418.4000
    222    233    243   1    112.7000    488.2728
    222    233    244   1    110.7000    313.8000
    234    233    243   1    109.5000    418.4000
    234    233    244   1    109.5000    292.8800
    243    233    244   1    110.7000    313.8000
    233    234    235   1    109.5000    502.0800
    234    235    236   1    111.5500    774.8768
    234    235    245   1    109.5000    292.8800
    234    235    246   1    109.5000    292.8800
    236    235    245   1    109.5000    292.8800
    236    235    246   1    109.5000    292.8800
    245    235    246   1    109.5000    276.1440
    235    236    237   1    112.3670    836.8000
    236    237    238   1    120.0000    585.7600
    236    237    242   1    120.0000    585.7600
    238    237    242   1    120.0000    527.1840
    237    238    239   1    120.0000    527.1840
    237    238    247   1    120.0000    292.8800
    239    238    247   1    120.0000    292.8800
    238    239    240   1    120.0000    527.1840
    238    239    248   1    120.0000    292.8800
    240    239    248   1    120.0000    292.8800
    239    240    241   1    120.0000    527.1840
    239    240    249   1    120.0000    292.8800
    241    240    249   1    120.0000    292.8800
    240    241    242   1    120.0000    527.1840
    240    241    250   1    120.0000    292.8800
    242    241    250   1    120.0000    292.8800
    237    242    241   1    120.0000    527.1840
    237    242    251   1    120.0000    292.8800
    241    242    251   1    120.0000    292.8800
    233    243    252   1    110.7000    313.8000
    233    243    253   1    110.7000    313.8000
    233    243    254   1    112.7000    488.2728
    252    243    253   1    107.8000    276.1440
    252    243    254   1    110.7000    313.8000
    253    243    254   1    110.7000    313.8000
    243    254    255   1    109.5000    418.4000
    243    254    264   1    112.7000    488.2728
    243    254    265   1    110.7000    313.8000
    255    254    264   1    109.5000    418.4000
    255    254    265   1    109.5000    292.8800
    264    254    265   1    110.7000    313.8000
    254    255    256   1    109.5000    502.0800
    255    256    257   1    111.5500    774.8768
    255    256    266   1    109.5000    292.8800
    255    256    267   1    109.5000    292.8800
    257    256    266   1    109.5000    292.8800
    257    256    267   1    109.5000    292.8800
    266    256    267   1    109.5000    276.1440
    256    257    258   1    112.3670    836.8000
    257    258    259   1    120.0000    585.7600
    257    258    263   1    120.0000    585.7600
    259    258    263   1    120.0000    527.1840
    258    259    260   1    120.0000    527.1840
    258    259    268   1    120.0000    292.8800
    260    259    268   1    120.0000    292.8800
    259    260    261   1    120.0000    527.1840
    259    260    269   1    120.0000    292.8800
    261    260    269   1    120.0000    292.8800
    260    261    262   1    120.0000    527.1840
    260    261    270   1    120.0000    292.8800
    262    261    270   1    120.0000    292.8800
    261    262    263   1    120.0000    527.1840
    261    262    271   1    120.0000    292.8800
    263    262    271   1    120.0000    292.8800
    258    263    262   1    120.0000    527.1840
    258    263    272   1    120.0000    292.8800
    262    263    272   1    120.0000    292.8800
    254    264    273   1    110.7000    313.8000
    254    264    274   1    110.7000    313.8000
    254    264    275   1    112.7000    488.2728
    273    264    274   1    107.8000    276.1440
    273    264    275   1    110.7000    313.8000
    274    264    275   1    110.7000    313.8000
    264    275    276   1    109.5000    418.4000
    264    275    285   1    112.7000    488.2728
    264    275    286   1    110.7000    313.8000
    276    275    285   1    109.5000    418.4000
    276    275    286   1    109.5000    292.8800
    285    275    286   1    110.7000    313.8000
    275    276    277   1    109.5000    502.0800
    276    277    278   1    111.5500    774.8768
    276    277    287   1    109.5000    292.8800
    276    277    288   1    109.5000    292.8800
    278    277    287   1    109.5000    292.8800
    278    277    288   1    109.5000    292.8800
    287    277    288   1    109.5000    276.1440
    277    278    279   1    112.3670    836.8000
    278    279    280   1    120.0000    585.7600
    278    279    284   1    120.0000    585.7600
    280    279    284   1    120.0000    527.1840
    279    280    281   1    120.0000    527.1840
    279    280    289   1    120.0000    292.8800
    281    280    289   1    120.0000    292.8800
    280    281    282   1    120.0000    527.1840
    280    281    290   1    120.0000    292.8800
    282    281    290   1    120.0000    292.8800
    281    282    283   1    120.0000    527.1840
    281    282    291   1    120.0000    292.8800
    283    282    291   1    120.0000    292.8800
    282    283    284   1    120.0000    527.1840
    282    283    292   1    120.0000    292.8800
    284    283    292   1    120.0000    292.8800
    279    284    283   1    120.0000    527.1840
    279    284    293   1    120.0000    292.8800
    283    284    293   1    120.0000    292.8800
    275    285    294   1    110.7000    313.8000
    275    285    295   1    110.7000    313.8000
    275    285    296   1    112.7000    488.2728
    294    285    295   1    107.8000    276.1440
    294    285    296   1    110.7000    313.8000
    295    285    296   1    110.7000    313.8000
    285    296    297   1    109.5000    418.4000
    285    296    306   1    112.7000    488.2728
    285    296    307   1    110.7000    313.8000
    297    296    306   1    109.5000    418.4000
    297    296    307   1    109.5000    292.8800
    306    296    307   1    110.7000    313.8000
    296    297    298   1    109.5000    502.0800
    297    298    299   1    111.5500    774.8768
    297    298    308   1    109.5000    292.8800
    297    298    309   1    109.5000    292.8800
    299    298    308   1    109.5000    292.8800
    299    298    309   1    109.5000    292.8800
    308    298    309   1    109.5000    276.1440
    298    299    300   1    112.3670    836.8000
    299    300    301   1    120.0000    585.7600
    299    300    305   1    120.0000    585.7600
    301    300    305   1    120.0000    527.1840
    300    301    302   1    120.0000    527.1840
    300    301    310   1    120.0000    292.8800
    302    301    310   1    120.0000    292.8800
    301    302    303   1    120.0000    527.1840
    301    302    311   1    120.0000    292.8800
    303    302    311   1    120.0000    292.8800
    302    303    304   1    120.0000    527.1840
    302    303    312   1    120.0000    292.8800
    304    303    312   1    120.0000    292.8800
    303    304    305   1    120.0000    527.1840
    303    304    313   1    120.0000    292.8800
    305    304    313   1    120.0000    292.8800
    300    305    304   1    120.0000    527.1840
    300    305    314   1    120.0000    292.8800
    304    305    314   1    120.0000    292.8800
    296    306    315   1    110.7000    313.8000
    296    306    316   1    110.7000    313.8000
    296    306    317   1    112.7000    488.2728
    315    306    316   1    107.8000    276.1440
    315    306    317   1    110.7000    313.8000
    316    306    317   1    110.7000    313.8000
    306    317    318   1    109.5000    418.4000
    306    317    327   1    112.7000    488.2728
    306    317    328   1    110.7000    313.8000
    318    317    327   1    109.5000    418.4000
    318    317    328   1    109.5000    292.8800
    327    317    328   1    110.7000    313.8000
    317    318    319   1    109.5000    502.0800
    318    319    320   1    111.5500    774.8768
    318    319    329   1    109.5000    292.8800
    318    319    330   1    109.5000    292.8800
    320    319    329   1    109.5000    292.8800
    320    319    330   1    109.5000    292.8800
    329    319    330   1    109.5000    276.1440
    319    320    321   1    112.3670    836.8000
    320    321    322   1    120.0000    585.7600
    320    321    326   1    120.0000    585.7600
    322    321    326   1    120.0000    527.1840
    321    322    323   1    120.0000    527.1840
    321    322    331   1    120.0000    292.8800
    323    322    331   1    120.0000    292.8800
    322    323    324   1    120.0000    527.1840
    322    323    332   1    120.0000    292.8800
    324    323    332   1    120.0000    292.8800
    323    324    325   1    120.0000    527.1840
    323    324    333   1    120.0000    292.8800
    325    324    333   1    120.0000    292.8800
    324    325    326   1    120.0000    527.1840
    324    325    334   1    120.0000    292.8800
    326    325    334   1    120.0000    292.8800
    321    326    325   1    120.0000    527.1840
    321    326    335   1    120.0000    292.8800
    325    326    335   1    120.0000    292.8800
    317    327    336   1    110.7000    313.8000
    317    327    337   1    110.7000    313.8000
    317    327    338   1    112.7000    488.2728
    336    327    337   1    107.8000    276.1440
    336    327    338   1    110.7000    313.8000
    337    327    338   1    110.7000    313.8000
    327    338    339   1    109.5000    418.4000
    327    338    348   1    112.7000    488.2728
    327    338    349   1    110.7000    313.8000
    339    338    348   1    109.5000    418.4000
    339    338    349   1    109.5000    292.8800
    348    338    349   1    110.7000    313.8000
    338    339    340   1    109.5000    502.0800
    339    340    341   1    111.5500    774.8768
    339    340    350   1    109.5000    292.8800
    339    340    351   1    109.5000    292.8800
    341    340    350   1    109.5000    292.8800
    341    340    351   1    109.5000    292.8800
    350    340    351   1    109.5000    276.1440
    340    341    342   1    112.3670    836.8000
    341    342    343   1    120.0000    585.7600
    341    342    347   1    120.0000    585.7600
    343    342    347   1    120.0000    527.1840
    342    343    344   1    120.0000    527.1840
    342    343    352   1    120.0000    292.8800
    344    343    352   1    120.0000    292.8800
    343    344    345   1    120.0000    527.1840
    343    344    353   1    120.0000    292.8800
    345    344    353   1    120.0000    292.8800
    344    345    346   1    120.0000    527.1840
    344    345    354   1    120.0000    292.8800
    346    345    354   1    120.0000    292.8800
    345    346    347   1    120.0000    527.1840
    345    346    355   1    120.0000    292.8800
    347    346    355   1    120.0000    292.8800
    342    347    346   1    120.0000    527.1840
    342    347    356   1    120.0000    292.8800
    346    347    356   1    120.0000    292.8800
    338    348    357   1    110.7000    313.8000
    338    348    358   1    110.7000    313.8000
    338    348    359   1    112.7000    488.2728
    357    348    358   1    107.8000    276.1440
    357    348    359   1    110.7000    313.8000
    358    348    359   1    110.7000    313.8000
    348    359    360   1    109.5000    418.4000
    348    359    369   1    112.7000    488.2728
    348    359    370   1    110.7000    313.8000
    360    359    369   1    109.5000    418.4000
    360    359    370   1    109.5000    292.8800
    369    359    370   1    110.7000    313.8000
    359    360    361   1    109.5000    502.0800
    360    361    362   1    111.5500    774.8768
    360    361    371   1    109.5000    292.8800
    360    361    372   1    109.5000    292.8800
    362    361    371   1    109.5000    292.8800
    362    361    372   1    109.5000    292.8800
    371    361    372   1    109.5000    276.1440
    361    362    363   1    112.3670    836.8000
    362    363    364   1    120.0000    585.7600
    362    363    368   1    120.0000    585.7600
    364    363    368   1    120.0000    527.1840
    363    364    365   1    120.0000    527.1840
    363    364    373   1    120.0000    292.8800
    365    364    373   1    120.0000    292.8800
    364    365    366   1    120.0000    527.1840
    364    365    374   1    120.0000    292.8800
    366    365    374   1    120.0000    292.8800
    365    366    367   1    120.0000    527.1840
    365    366    375   1    120.0000    292.8800
    367    366    375   1    120.0000    292.8800
    366    367    368   1    120.0000    527.1840
    366    367    376   1    120.0000    292.8800
    368    367    376   1    120.0000    292.8800
    363    368    367   1    120.0000    527.1840
    363    368    377   1    120.0000    292.8800
    367    368    377   1    120.0000    292.8800
    359    369    378   1    110.7000    313.8000
    359    369    379   1    110.7000    313.8000
    359    369    380   1    112.7000    488.2728
    378    369    379   1    107.8000    276.1440
    378    369    380   1    110.7000    313.8000
    379    369    380   1    110.7000    313.8000
    369    380    381   1    109.5000    418.4000
    369    380    390   1    112.7000    488.2728
    369    380    391   1    110.7000    313.8000
    381    380    390   1    109.5000    418.4000
    381    380    391   1    109.5000    292.8800
    390    380    391   1    110.7000    313.8000
    380    381    382   1    109.5000    502.0800
    381    382    383   1    111.5500    774.8768
    381    382    392   1    109.5000    292.8800
    381    382    393   1    109.5000    292.8800
    383    382    392   1    109.5000    292.8800
    383    382    393   1    109.5000    292.8800
    392    382    393   1    109.5000    276.1440
    382    383    384   1    112.3670    836.8000
    383    384    385   1    120.0000    585.7600
    383    384    389   1    120.0000    585.7600
    385    384    389   1    120.0000    527.1840
    384    385    386   1    120.0000    527.1840
    384    385    394   1    120.0000    292.8800
    386    385    394   1    120.0000    292.8800
    385    386    387   1    120.0000    527.1840
    385    386    395   1    120.0000    292.8800
    387    386    395   1    120.0000    292.8800
    386    387    388   1    120.0000    527.1840
    386    387    396   1    120.0000    292.8800
    388    387    396   1    120.0000    292.8800
    387    388    389   1    120.0000    527.1840
    387    388    397   1    120.0000    292.8800
    389    388    397   1    120.0000    292.8800
    384    389    388   1    120.0000    527.1840
    384    389    398   1    120.0000    292.8800
    388    389    398   1    120.0000    292.8800
    380    390    399   1    110.7000    313.8000
    380    390    400   1    110.7000    313.8000
    380    390    401   1    112.7000    488.2728
    399    390    400   1    107.8000    276.1440
    399    390    401   1    110.7000    313.8000
    400    390    401   1    110.7000    313.8000
    390    401    402   1    109.5000    418.4000
    390    401    411   1    112.7000    488.2728
    390    401    412   1    110.7000    313.8000
    402    401    411   1    109.5000    418.4000
    402    401    412   1    109.5000    292.8800
    411    401    412   1    110.7000    313.8000
    401    402    403   1    109.5000    502.0800
    402    403    404   1    111.5500    774.8768
    402    403    413   1    109.5000    292.8800
    402    403    414   1    109.5000    292.8800
    404    403    413   1    109.5000    292.8800
    404    403    414   1    109.5000    292.8800
    413    403    414   1    109.5000    276.1440
    403    404    405   1    112.3670    836.8000
    404    405    406   1    120.0000    585.7600
    404    405    410   1    120.0000    585.7600
    406    405    410   1    120.0000    527.1840
    405    406    407   1    120.0000    527.1840
    405    406    415   1    120.0000    292.8800
    407    406    415   1    120.0000    292.8800
    406    407    408   1    120.0000    527.1840
    406    407    416   1    120.0000    292.8800
    408    407    416   1    120.0000    292.8800
    407    408    409   1    120.0000    527.1840
    407    408    417   1    120.0000    292.8800
    409    408    417   1    120.0000    292.8800
    408    409    410   1    120.0000    527.1840
    408    409    418   1    120.0000    292.8800
    410    409    418   1    120.0000    292.8800
    405    410    409   1    120.0000    527.1840
    405    410    419   1    120.0000    292.8800
    409    410    419   1    120.0000    292.8800
    401    411    420   1    110.7000    313.8000
    401    411    421   1    110.7000    313.8000
    401    411    422   1    110.7000    313.8000
    420    411    421   1    107.8000    276.1440
    420    411    422   1    107.8000    276.1440
    421    411    422   1    107.8000    276.1440

[ dihedrals ]
; Proper dihedrals
     11      1      2      3   5     0.52300    -0.09205     2.34722  0.0
     12      1      2      3   5     0.00000     0.00000     3.10034  0.0
     22      1      2      3   5     0.00000     0.00000     3.10034  0.0
      2      1     11     20   5     0.00000     0.00000     1.95811  0.0
      2      1     11     21   5     0.00000     0.00000     1.95811  0.0
      2      1     11     23   5     5.25092    -2.58990     2.28446  0.0
     12      1     11     20   5     0.00000     0.00000     1.25520  0.0
     12      1     11     21   5     0.00000     0.00000     1.25520  0.0
     12      1     11     23   5     0.00000     0.00000     1.25520  0.0
     22      1     11     20   5     0.00000     0.00000     1.25520  0.0
     22      1     11     21   5     0.00000     0.00000     1.25520  0.0
     22      1     11     23   5     0.00000     0.00000     1.25520  0.0
      1      2      3      4   5    -4.46433    -6.55633     2.82420  0.0
      1      2      3     13   5     0.00000     0.00000     3.10034  0.0
      1      2      3     14   5     0.00000     0.00000     3.10034  0.0
      2      3      4      5   5    -2.14221    -3.35138     2.90370  0.0
     13      3      4      5   5     0.00000     0.00000     0.67362  0.0
     14      3      4      5   5     0.00000     0.00000     0.67362  0.0
      3      4      5      6   5     0.00000    16.38454     0.00000  0.0
      3      4      5     10   5     0.00000    16.38454     0.00000  0.0
      4      5      6      7   5     0.00000    30.33400     0.00000  0.0
      4      5      6     15   5     0.00000    30.33400     0.00000  0.0
     10      5      6      7   5     0.00000    30.33400     0.00000  0.0
     10      5      6     15   5     0.00000    30.33400     0.00000  0.0
      4      5     10      9   5     0.00000    30.33400     0.00000  0.0
      4      5     10     19   5     0.00000    30.33400     0.00000  0.0
      6      5     10      9   5     0.00000    30.33400     0.00000  0.0
      6      5     10     19   5     0.00000    30.33400     0.00000  0.0
      5      6      7      8   5     0.00000    30.33400     0.00000  0.0
      5      6      7     16   5     0.00000    30.33400     0.00000  0.0
     15      6      7      8   5     0.00000    30.33400     0.00000  0.0
     15      6      7     16   5     0.00000    30.33400     0.00000  0.0
      6      7      8      9   5     0.00000    30.33400     0.00000  0.0
      6      7      8     17   5     0.00000    30.33400     0.00000  0.0
     16      7      8      9   5     0.00000    30.33400     0.00000  0.0
     16      7      8     17   5     0.00000    30.33400     0.00000  0.0
      7      8      9     10   5     0.00000    30.33400     0.00000  0.0
      7      8      9     18   5     0.00000    30.33400     0.00000  0.0
     17      8      9     10   5     0.00000    30.33400     0.00000  0.0
     17      8      9     18   5     0.00000    30.33400     0.00000  0.0
      8      9     10      5   5     0.00000    30.33400     0.00000  0.0
      8      9     10     19   5     0.00000    30.33400     0.00000  0.0
     18      9     10      5   5     0.00000    30.33400     0.00000  0.0
     18      9     10     19   5     0.00000    30.33400     0.00000  0.0
      1     11     23     24   5     5.25092    -2.58990     2.28446  0.0
      1     11     23     33   5     4.74884    -0.63178     1.67360  0.0
      1     11     23     34   5     0.00000     0.00000     1.25520  0.0
     20     11     23     24   5     0.00000     0.00000     1.95811  0.0
     20     11     23     33   5     0.00000     0.00000     1.25520  0.0
     20     11     23     34   5     0.00000     0.00000     1.25520  0.0
     21     11     23     24   5     0.00000     0.00000     1.95811  0.0
     21     11     23     33   5     0.00000     0.00000     1.25520  0.0
     21     11     23     34   5     0.00000     0.00000     1.25520  0.0
     11     23     24     25   5     0.52300    -0.09205     2.34722  0.0
     33     23     24     25   5     0.52300    -0.09205     2.34722  0.0
     34     23     24     25   5     0.00000     0.00000     3.10034  0.0
     11     23     33     42   5     0.00000     0.00000     1.25520  0.0
     11     23     33     43   5     0.00000     0.00000     1.25520  0.0
     11     23     33     44   5     4.74884    -0.63178     1.67360  0.0
     24     23     33     42   5     0.00000     0.00000     1.95811  0.0
     24     23     33     43   5     0.00000     0.00000     1.95811  0.0
     24     23     33     44   5     5.25092    -2.58990     2.28446  0.0
     34     23     33     42   5     0.00000     0.00000     1.25520  0.0
     34     23     33     43   5     0.00000     0.00000     1.25520  0.0
     34     23     33     44   5     0.00000     0.00000     1.25520  0.0
     23     24     25     26   5    -4.46433    -6.55633     2.82420  0.0
     23     24     25     35   5     0.00000     0.00000     3.10034  0.0
     23     24     25     36   5     0.00000     0.00000     3.10034  0.0
     24     25     26     27   5    -2.14221    -3.35138     2.90370  0.0
     35     25     26     27   5     0.00000     0.00000     0.67362  0.0
     36     25     26     27   5     0.00000     0.00000     0.67362  0.0
     25     26     27     28   5     0.00000    16.38454     0.00000  0.0
     25     26     27     32   5     0.00000    16.38454     0.00000  0.0
     26     27     28     29   5     0.00000    30.33400     0.00000  0.0
     26     27     28     37   5     0.00000    30.33400     0.00000  0.0
     32     27     28     29   5     0.00000    30.33400     0.00000  0.0
     32     27     28     37   5     0.00000    30.33400     0.00000  0.0
     26     27     32     31   5     0.00000    30.33400     0.00000  0.0
     26     27     32     41   5     0.00000    30.33400     0.00000  0.0
     28     27     32     31   5     0.00000    30.33400     0.00000  0.0
     28     27     32     41   5     0.00000    30.33400     0.00000  0.0
     27     28     29     30   5     0.00000    30.33400     0.00000  0.0
     27     28     29     38   5     0.00000    30.33400     0.00000  0.0
     37     28     29     30   5     0.00000    30.33400     0.00000  0.0
     37     28     29     38   5     0.00000    30.33400     0.00000  0.0
     28     29     30     31   5     0.00000    30.33400     0.00000  0.0
     28     29     30     39   5     0.00000    30.33400     0.00000  0.0
     38     29     30     31   5     0.00000    30.33400     0.00000  0.0
     38     29     30     39   5     0.00000    30.33400     0.00000  0.0
     29     30     31     32   5     0.00000    30.33400     0.00000  0.0
     29     30     31     40   5     0.00000    30.33400     0.00000  0.0
     39     30     31     32   5     0.00000    30.33400     0.00000  0.0
     39     30     31     40   5     0.00000    30.33400     0.00000  0.0
     30     31     32     27   5     0.00000    30.33400     0.00000  0.0
     30     31     32     41   5     0.00000    30.33400     0.00000  0.0
     40     31     32     27   5     0.00000    30.33400     0.00000  0.0
     40     31     32     41   5     0.00000    30.33400     0.00000  0.0
     23     33     44     45   5     5.25092    -2.58990     2.28446  0.0
     23     33     44     54   5     4.74884    -0.63178     1.67360  0.0
     23     33     44     55   5     0.00000     0.00000     1.25520  0.0
     42     33     44     45   5     0.00000     0.00000     1.95811  0.0
     42     33     44     54   5     0.00000     0.00000     1.25520  0.0
     42     33     44     55   5     0.00000     0.00000     1.25520  0.0
     43     33     44     45   5     0.00000     0.00000     1.95811  0.0
     43     33     44     54   5     0.00000     0.00000     1.25520  0.0
     43     33     44     55   5     0.00000     0.00000     1.25520  0.0
     33     44     45     46   5     0.52300    -0.09205     2.34722  0.0
     54     44     45     46   5     0.52300    -0.09205     2.34722  0.0
     55     44     45     46   5     0.00000     0.00000     3.10034  0.0
     33     44     54     63   5     0.00000     0.00000     1.25520  0.0
     33     44     54     64   5     0.00000     0.00000     1.25520  0.0
     33     44     54     65   5     4.74884    -0.63178     1.67360  0.0
     45     44     54     63   5     0.00000     0.00000     1.95811  0.0
     45     44     54     64   5     0.00000     0.00000     1.95811  0.0
     45     44     54     65   5     5.25092    -2.58990     2.28446  0.0
     55     44     54     63   5     0.00000     0.00000     1.25520  0.0
     55     44     54     64   5     0.00000     0.00000     1.25520  0.0
     55     44     54     65   5     0.00000     0.00000     1.25520  0.0
     44     45     46     47   5    -4.46433    -6.55633     2.82420  0.0
     44     45     46     56   5     0.00000     0.00000     3.10034  0.0
     44     45     46     57   5     0.00000     0.00000     3.10034  0.0
     45     46     47     48   5    -2.14221    -3.35138     2.90370  0.0
     56     46     47     48   5     0.00000     0.00000     0.67362  0.0
     57     46     47     48   5     0.00000     0.00000     0.67362  0.0
     46     47     48     49   5     0.00000    16.38454     0.00000  0.0
     46     47     48     53   5     0.00000    16.38454     0.00000  0.0
     47     48     49     50   5     0.00000    30.33400     0.00000  0.0
     47     48     49     58   5     0.00000    30.33400     0.00000  0.0
     53     48     49     50   5     0.00000    30.33400     0.00000  0.0
     53     48     49     58   5     0.00000    30.33400     0.00000  0.0
     47     48     53     52   5     0.00000    30.33400     0.00000  0.0
     47     48     53     62   5     0.00000    30.33400     0.00000  0.0
     49     48     53     52   5     0.00000    30.33400     0.00000  0.0
     49     48     53     62   5     0.00000    30.33400     0.00000  0.0
     48     49     50     51   5     0.00000    30.33400     0.00000  0.0
     48     49     50     59   5     0.00000    30.33400     0.00000  0.0
     58     49     50     51   5     0.00000    30.33400     0.00000  0.0
     58     49     50     59   5     0.00000    30.33400     0.00000  0.0
     49     50     51     52   5     0.00000    30.33400     0.00000  0.0
     49     50     51     60   5     0.00000    30.33400     0.00000  0.0
     59     50     51     52   5     0.00000    30.33400     0.00000  0.0
     59     50     51     60   5     0.00000    30.33400     0.00000  0.0
     50     51     52     53   5     0.00000    30.33400     0.00000  0.0
     50     51     52     61   5     0.00000    30.33400     0.00000  0.0
     60     51     52     53   5     0.00000    30.33400     0.00000  0.0
     60     51     52     61   5     0.00000    30.33400     0.00000  0.0
     51     52     53     48   5     0.00000    30.33400     0.00000  0.0
     51     52     53     62   5     0.00000    30.33400     0.00000  0.0
     61     52     53     48   5     0.00000    30.33400     0.00000  0.0
     61     52     53     62   5     0.00000    30.33400     0.00000  0.0
     44     54     65     66   5     5.25092    -2.58990     2.28446  0.0
     44     54     65     75   5     4.74884    -0.63178     1.67360  0.0
     44     54     65     76   5     0.00000     0.00000     1.25520  0.0
     63     54     65     66   5     0.00000     0.00000     1.95811  0.0
     63     54     65     75   5     0.00000     0.00000     1.25520  0.0
     63     54     65     76   5     0.00000     0.00000     1.25520  0.0
     64     54     65     66   5     0.00000     0.00000     1.95811  0.0
     64     54     65     75   5     0.00000     0.00000     1.25520  0.0
     64     54     65     76   5     0.00000     0.00000     1.25520  0.0
     54     65     66     67   5     0.52300    -0.09205     2.34722  0.0
     75     65     66     67   5     0.52300    -0.09205     2.34722  0.0
     76     65     66     67   5     0.00000     0.00000     3.10034  0.0
     54     65     75     84   5     0.00000     0.00000     1.25520  0.0
     54     65     75     85   5     0.00000     0.00000     1.25520  0.0
     54     65     75     86   5     4.74884    -0.63178     1.67360  0.0
     66     65     75     84   5     0.00000     0.00000     1.95811  0.0
     66     65     75     85   5     0.00000     0.00000     1.95811  0.0
     66     65     75     86   5     5.25092    -2.58990     2.28446  0.0
     76     65     75     84   5     0.00000     0.00000     1.25520  0.0
     76     65     75     85   5     0.00000     0.00000     1.25520  0.0
     76     65     75     86   5     0.00000     0.00000     1.25520  0.0
     65     66     67     68   5    -4.46433    -6.55633     2.82420  0.0
     65     66     67     77   5     0.00000     0.00000     3.10034  0.0
     65     66     67     78   5     0.00000     0.00000     3.10034  0.0
     66     67     68     69   5    -2.14221    -3.35138     2.90370  0.0
     77     67     68     69   5     0.00000     0.00000     0.67362  0.0
     78     67     68     69   5     0.00000     0.00000     0.67362  0.0
     67     68     69     70   5     0.00000    16.38454     0.00000  0.0
     67     68     69     74   5     0.00000    16.38454     0.00000  0.0
     68     69     70     71   5     0.00000    30.33400     0.00000  0.0
     68     69     70     79   5     0.00000    30.33400     0.00000  0.0
     74     69     70     71   5     0.00000    30.33400     0.00000  0.0
     74     69     70     79   5     0.00000    30.33400     0.00000  0.0
     68     69     74     73   5     0.00000    30.33400     0.00000  0.0
     68     69     74     83   5     0.00000    30.33400     0.00000  0.0
     70     69     74     73   5     0.00000    30.33400     0.00000  0.0
     70     69     74     83   5     0.00000    30.33400     0.00000  0.0
     69     70     71     72   5     0.00000    30.33400     0.00000  0.0
     69     70     71     80   5     0.00000    30.33400     0.00000  0.0
     79     70     71     72   5     0.00000    30.33400     0.00000  0.0
     79     70     71     80   5     0.00000    30.33400     0.00000  0.0
     70     71     72     73   5     0.00000    30.33400     0.00000  0.0
     70     71     72     81   5     0.00000    30.33400     0.00000  0.0
     80     71     72     73   5     0.00000    30.33400     0.00000  0.0
     80     71     72     81   5     0.00000    30.33400     0.00000  0.0
     71     72     73     74   5     0.00000    30.33400     0.00000  0.0
     71     72     73     82   5     0.00000    30.33400     0.00000  0.0
     81     72     73     74   5     0.00000    30.33400     0.00000  0.0
     81     72     73     82   5     0.00000    30.33400     0.00000  0.0
     72     73     74     69   5     0.00000    30.33400     0.00000  0.0
     72     73     74     83   5     0.00000    30.33400     0.00000  0.0
     82     73     74     69   5     0.00000    30.33400     0.00000  0.0
     82     73     74     83   5     0.00000    30.33400     0.00000  0.0
     65     75     86     87   5     5.25092    -2.58990     2.28446  0.0
     65     75     86     96   5     4.74884    -0.63178     1.67360  0.0
     65     75     86     97   5     0.00000     0.00000     1.25520  0.0
     84     75     86     87   5     0.00000     0.00000     1.95811  0.0
     84     75     86     96   5     0.00000     0.00000     1.25520  0.0
     84     75     86     97   5     0.00000     0.00000     1.25520  0.0
     85     75     86     87   5     0.00000     0.00000     1.95811  0.0
     85     75     86     96   5     0.00000     0.00000     1.25520  0.0
     85     75     86     97   5     0.00000     0.00000     1.25520  0.0
     75     86     87     88   5     0.52300    -0.09205     2.34722  0.0
     96     86     87     88   5     0.52300    -0.09205     2.34722  0.0
     97     86     87     88   5     0.00000     0.00000     3.10034  0.0
     75     86     96    105   5     0.00000     0.00000     1.25520  0.0
     75     86     96    106   5     0.00000     0.00000     1.25520  0.0
     75     86     96    107   5     4.74884    -0.63178     1.67360  0.0
     87     86     96    105   5     0.00000     0.00000     1.95811  0.0
     87     86     96    106   5     0.00000     0.00000     1.95811  0.0
     87     86     96    107   5     5.25092    -2.58990     2.28446  0.0
     97     86     96    105   5     0.00000     0.00000     1.25520  0.0
     97     86     96    106   5     0.00000     0.00000     1.25520  0.0
     97     86     96    107   5     0.00000     0.00000     1.25520  0.0
     86     87     88     89   5    -4.46433    -6.55633     2.82420  0.0
     86     87     88     98   5     0.00000     0.00000     3.10034  0.0
     86     87     88     99   5     0.00000     0.00000     3.10034  0.0
     87     88     89     90   5    -2.14221    -3.35138     2.90370  0.0
     98     88     89     90   5     0.00000     0.00000     0.67362  0.0
     99     88     89     90   5     0.00000     0.00000     0.67362  0.0
     88     89     90     91   5     0.00000    16.38454     0.00000  0.0
     88     89     90     95   5     0.00000    16.38454     0.00000  0.0
     89     90     91     92   5     0.00000    30.33400     0.00000  0.0
     89     90     91    100   5     0.00000    30.33400     0.00000  0.0
     95     90     91     92   5     0.00000    30.33400     0.00000  0.0
     95     90     91    100   5     0.00000    30.33400     0.00000  0.0
     89     90     95     94   5     0.00000    30.33400     0.00000  0.0
     89     90     95    104   5     0.00000    30.33400     0.00000  0.0
     91     90     95     94   5     0.00000    30.33400     0.00000  0.0
     91     90     95    104   5     0.00000    30.33400     0.00000  0.0
     90     91     92     93   5     0.00000    30.33400     0.00000  0.0
     90     91     92    101   5     0.00000    30.33400     0.00000  0.0
    100     91     92     93   5     0.00000    30.33400     0.00000  0.0
    100     91     92    101   5     0.00000    30.33400     0.00000  0.0
     91     92     93     94   5     0.00000    30.33400     0.00000  0.0
     91     92     93    102   5     0.00000    30.33400     0.00000  0.0
    101     92     93     94   5     0.00000    30.33400     0.00000  0.0
    101     92     93    102   5     0.00000    30.33400     0.00000  0.0
     92     93     94     95   5     0.00000    30.33400     0.00000  0.0
     92     93     94    103   5     0.00000    30.33400     0.00000  0.0
    102     93     94     95   5     0.00000    30.33400     0.00000  0.0
    102     93     94    103   5     0.00000    30.33400     0.00000  0.0
     93     94     95     90   5     0.00000    30.33400     0.00000  0.0
     93     94     95    104   5     0.00000    30.33400     0.00000  0.0
    103     94     95     90   5     0.00000    30.33400     0.00000  0.0
    103     94     95    104   5     0.00000    30.33400     0.00000  0.0
     86     96    107    108   5     5.25092    -2.58990     2.28446  0.0
     86     96    107    117   5     4.74884    -0.63178     1.67360  0.0
     86     96    107    118   5     0.00000     0.00000     1.25520  0.0
    105     96    107    108   5     0.00000     0.00000     1.95811  0.0
    105     96    107    117   5     0.00000     0.00000     1.25520  0.0
    105     96    107    118   5     0.00000     0.00000     1.25520  0.0
    106     96    107    108   5     0.00000     0.00000     1.95811  0.0
    106     96    107    117   5     0.00000     0.00000     1.25520  0.0
    106     96    107    118   5     0.00000     0.00000     1.25520  0.0
     96    107    108    109   5     0.52300    -0.09205     2.34722  0.0
    117    107    108    109   5     0.52300    -0.09205     2.34722  0.0
    118    107    108    109   5     0.00000     0.00000     3.10034  0.0
     96    107    117    126   5     0.00000     0.00000     1.25520  0.0
     96    107    117    127   5     0.00000     0.00000     1.25520  0.0
     96    107    117    128   5     4.74884    -0.63178     1.67360  0.0
    108    107    117    126   5     0.00000     0.00000     1.95811  0.0
    108    107    117    127   5     0.00000     0.00000     1.95811  0.0
    108    107    117    128   5     5.25092    -2.58990     2.28446  0.0
    118    107    117    126   5     0.00000     0.00000     1.25520  0.0
    118    107    117    127   5     0.00000     0.00000     1.25520  0.0
    118    107    117    128   5     0.00000     0.00000     1.25520  0.0
    107    108    109    110   5    -4.46433    -6.55633     2.82420  0.0
    107    108    109    119   5     0.00000     0.00000     3.10034  0.0
    107    108    109    120   5     0.00000     0.00000     3.10034  0.0
    108    109    110    111   5    -2.14221    -3.35138     2.90370  0.0
    119    109    110    111   5     0.00000     0.00000     0.67362  0.0
    120    109    110    111   5     0.00000     0.00000     0.67362  0.0
    109    110    111    112   5     0.00000    16.38454     0.00000  0.0
    109    110    111    116   5     0.00000    16.38454     0.00000  0.0
    110    111    112    113   5     0.00000    30.33400     0.00000  0.0
    110    111    112    121   5     0.00000    30.33400     0.00000  0.0
    116    111    112    113   5     0.00000    30.33400     0.00000  0.0
    116    111    112    121   5     0.00000    30.33400     0.00000  0.0
    110    111    116    115   5     0.00000    30.33400     0.00000  0.0
    110    111    116    125   5     0.00000    30.33400     0.00000  0.0
    112    111    116    115   5     0.00000    30.33400     0.00000  0.0
    112    111    116    125   5     0.00000    30.33400     0.00000  0.0
    111    112    113    114   5     0.00000    30.33400     0.00000  0.0
    111    112    113    122   5     0.00000    30.33400     0.00000  0.0
    121    112    113    114   5     0.00000    30.33400     0.00000  0.0
    121    112    113    122   5     0.00000    30.33400     0.00000  0.0
    112    113    114    115   5     0.00000    30.33400     0.00000  0.0
    112    113    114    123   5     0.00000    30.33400     0.00000  0.0
    122    113    114    115   5     0.00000    30.33400     0.00000  0.0
    122    113    114    123   5     0.00000    30.33400     0.00000  0.0
    113    114    115    116   5     0.00000    30.33400     0.00000  0.0
    113    114    115    124   5     0.00000    30.33400     0.00000  0.0
    123    114    115    116   5     0.00000    30.33400     0.00000  0.0
    123    114    115    124   5     0.00000    30.33400     0.00000  0.0
    114    115    116    111   5     0.00000    30.33400     0.00000  0.0
    114    115    116    125   5     0.00000    30.33400     0.00000  0.0
    124    115    116    111   5     0.00000    30.33400     0.00000  0.0
    124    115    116    125   5     0.00000    30.33400     0.00000  0.0
    107    117    128    129   5     5.25092    -2.58990     2.28446  0.0
    107    117    128    138   5     4.74884    -0.63178     1.67360  0.0
    107    117    128    139   5     0.00000     0.00000     1.25520  0.0
    126    117    128    129   5     0.00000     0.00000     1.95811  0.0
    126    117    128    138   5     0.00000     0.00000     1.25520  0.0
    126    117    128    139   5     0.00000     0.00000     1.25520  0.0
    127    117    128    129   5     0.00000     0.00000     1.95811  0.0
    127    117    128    138   5     0.00000     0.00000     1.25520  0.0
    127    117    128    139   5     0.00000     0.00000     1.25520  0.0
    117    128    129    130   5     0.52300    -0.09205     2.34722  0.0
    138    128    129    130   5     0.52300    -0.09205     2.34722  0.0
    139    128    129    130   5     0.00000     0.00000     3.10034  0.0
    117    128    138    147   5     0.00000     0.00000     1.25520  0.0
    117    128    138    148   5     0.00000     0.00000     1.25520  0.0
    117    128    138    149   5     4.74884    -0.63178     1.67360  0.0
    129    128    138    147   5     0.00000     0.00000     1.95811  0.0
    129    128    138    148   5     0.00000     0.00000     1.95811  0.0
    129    128    138    149   5     5.25092    -2.58990     2.28446  0.0
    139    128    138    147   5     0.00000     0.00000     1.25520  0.0
    139    128    138    148   5     0.00000     0.00000     1.25520  0.0
    139    128    138    149   5     0.00000     0.00000     1.25520  0.0
    128    129    130    131   5    -4.46433    -6.55633     2.82420  0.0
    128    129    130    140   5     0.00000     0.00000     3.10034  0.0
    128    129    130    141   5     0.00000     0.00000     3.10034  0.0
    129    130    131    132   5    -2.14221    -3.35138     2.90370  0.0
    140    130    131    132   5     0.00000     0.00000     0.67362  0.0
    141    130    131    132   5     0.00000     0.00000     0.67362  0.0
    130    131    132    133   5     0.00000    16.38454     0.00000  0.0
    130    131    132    137   5     0.00000    16.38454     0.00000  0.0
    131    132    133    134   5     0.00000    30.33400     0.00000  0.0
    131    132    133    142   5     0.00000    30.33400     0.00000  0.0
    137    132    133    134   5     0.00000    30.33400     0.00000  0.0
    137    132    133    142   5     0.00000    30.33400     0.00000  0.0
    131    132    137    136   5     0.00000    30.33400     0.00000  0.0
    131    132    137    146   5     0.00000    30.33400     0.00000  0.0
    133    132    137    136   5     0.00000    30.33400     0.00000  0.0
    133    132    137    146   5     0.00000    30.33400     0.00000  0.0
    132    133    134    135   5     0.00000    30.33400     0.00000  0.0
    132    133    134    143   5     0.00000    30.33400     0.00000  0.0
    142    133    134    135   5     0.00000    30.33400     0.00000  0.0
    142    133    134    143   5     0.00000    30.33400     0.00000  0.0
    133    134    135    136   5     0.00000    30.33400     0.00000  0.0
    133    134    135    144   5     0.00000    30.33400     0.00000  0.0
    143    134    135    136   5     0.00000    30.33400     0.00000  0.0
    143    134    135    144   5     0.00000    30.33400     0.00000  0.0
    134    135    136    137   5     0.00000    30.33400     0.00000  0.0
    134    135    136    145   5     0.00000    30.33400     0.00000  0.0
    144    135    136    137   5     0.00000    30.33400     0.00000  0.0
    144    135    136    145   5     0.00000    30.33400     0.00000  0.0
    135    136    137    132   5     0.00000    30.33400     0.00000  0.0
    135    136    137    146   5     0.00000    30.33400     0.00000  0.0
    145    136    137    132   5     0.00000    30.33400     0.00000  0.0
    145    136    137    146   5     0.00000    30.33400     0.00000  0.0
    128    138    149    150   5     5.25092    -2.58990     2.28446  0.0
    128    138    149    159   5     4.74884    -0.63178     1.67360  0.0
    128    138    149    160   5     0.00000     0.00000     1.25520  0.0
    147    138    149    150   5     0.00000     0.00000     1.95811  0.0
    147    138    149    159   5     0.00000     0.00000     1.25520  0.0
    147    138    149    160   5     0.00000     0.00000     1.25520  0.0
    148    138    149    150   5     0.00000     0.00000     1.95811  0.0
    148    138    149    159   5     0.00000     0.00000     1.25520  0.0
    148    138    149    160   5     0.00000     0.00000     1.25520  0.0
    138    149    150    151   5     0.52300    -0.09205     2.34722  0.0
    159    149    150    151   5     0.52300    -0.09205     2.34722  0.0
    160    149    150    151   5     0.00000     0.00000     3.10034  0.0
    138    149    159    168   5     0.00000     0.00000     1.25520  0.0
    138    149    159    169   5     0.00000     0.00000     1.25520  0.0
    138    149    159    170   5     4.74884    -0.63178     1.67360  0.0
    150    149    159    168   5     0.00000     0.00000     1.95811  0.0
    150    149    159    169   5     0.00000     0.00000     1.95811  0.0
    150    149    159    170   5     5.25092    -2.58990     2.28446  0.0
    160    149    159    168   5     0.00000     0.00000     1.25520  0.0
    160    149    159    169   5     0.00000     0.00000     1.25520  0.0
    160    149    159    170   5     0.00000     0.00000     1.25520  0.0
    149    150    151    152   5    -4.46433    -6.55633     2.82420  0.0
    149    150    151    161   5     0.00000     0.00000     3.10034  0.0
    149    150    151    162   5     0.00000     0.00000     3.10034  0.0
    150    151    152    153   5    -2.14221    -3.35138     2.90370  0.0
    161    151    152    153   5     0.00000     0.00000     0.67362  0.0
    162    151    152    153   5     0.00000     0.00000     0.67362  0.0
    151    152    153    154   5     0.00000    16.38454     0.00000  0.0
    151    152    153    158   5     0.00000    16.38454     0.00000  0.0
    152    153    154    155   5     0.00000    30.33400     0.00000  0.0
    152    153    154    163   5     0.00000    30.33400     0.00000  0.0
    158    153    154    155   5     0.00000    30.33400     0.00000  0.0
    158    153    154    163   5     0.00000    30.33400     0.00000  0.0
    152    153    158    157   5     0.00000    30.33400     0.00000  0.0
    152    153    158    167   5     0.00000    30.33400     0.00000  0.0
    154    153    158    157   5     0.00000    30.33400     0.00000  0.0
    154    153    158    167   5     0.00000    30.33400     0.00000  0.0
    153    154    155    156   5     0.00000    30.33400     0.00000  0.0
    153    154    155    164   5     0.00000    30.33400     0.00000  0.0
    163    154    155    156   5     0.00000    30.33400     0.00000  0.0
    163    154    155    164   5     0.00000    30.33400     0.00000  0.0
    154    155    156    157   5     0.00000    30.33400     0.00000  0.0
    154    155    156    165   5     0.00000    30.33400     0.00000  0.0
    164    155    156    157   5     0.00000    30.33400     0.00000  0.0
    164    155    156    165   5     0.00000    30.33400     0.00000  0.0
    155    156    157    158   5     0.00000    30.33400     0.00000  0.0
    155    156    157    166   5     0.00000    30.33400     0.00000  0.0
    165    156    157    158   5     0.00000    30.33400     0.00000  0.0
    165    156    157    166   5     0.00000    30.33400     0.00000  0.0
    156    157    158    153   5     0.00000    30.33400     0.00000  0.0
    156    157    158    167   5     0.00000    30.33400     0.00000  0.0
    166    157    158    153   5     0.00000    30.33400     0.00000  0.0
    166    157    158    167   5     0.00000    30.33400     0.00000  0.0
    149    159    170    171   5     5.25092    -2.58990     2.28446  0.0
    149    159    170    180   5     4.74884    -0.63178     1.67360  0.0
    149    159    170    181   5     0.00000     0.00000     1.25520  0.0
    168    159    170    171   5     0.00000     0.00000     1.95811  0.0
    168    159    170    180   5     0.00000     0.00000     1.25520  0.0
    168    159    170    181   5     0.00000     0.00000     1.25520  0.0
    169    159    170    171   5     0.00000     0.00000     1.95811  0.0
    169    159    170    180   5     0.00000     0.00000     1.25520  0.0
    169    159    170    181   5     0.00000     0.00000     1.25520  0.0
    159    170    171    172   5     0.52300    -0.09205     2.34722  0.0
    180    170    171    172   5     0.52300    -0.09205     2.34722  0.0
    181    170    171    172   5     0.00000     0.00000     3.10034  0.0
    159    170    180    189   5     0.00000     0.00000     1.25520  0.0
    159    170    180    190   5     0.00000     0.00000     1.25520  0.0
    159    170    180    191   5     4.74884    -0.63178     1.67360  0.0
    171    170    180    189   5     0.00000     0.00000     1.95811  0.0
    171    170    180    190   5     0.00000     0.00000     1.95811  0.0
    171    170    180    191   5     5.25092    -2.58990     2.28446  0.0
    181    170    180    189   5     0.00000     0.00000     1.25520  0.0
    181    170    180    190   5     0.00000     0.00000     1.25520  0.0
    181    170    180    191   5     0.00000     0.00000     1.25520  0.0
    170    171    172    173   5    -4.46433    -6.55633     2.82420  0.0
    170    171    172    182   5     0.00000     0.00000     3.10034  0.0
    170    171    172    183   5     0.00000     0.00000     3.10034  0.0
    171    172    173    174   5    -2.14221    -3.35138     2.90370  0.0
    182    172    173    174   5     0.00000     0.00000     0.67362  0.0
    183    172    173    174   5     0.00000     0.00000     0.67362  0.0
    172    173    174    175   5     0.00000    16.38454     0.00000  0.0
    172    173    174    179   5     0.00000    16.38454     0.00000  0.0
    173    174    175    176   5     0.00000    30.33400     0.00000  0.0
    173    174    175    184   5     0.00000    30.33400     0.00000  0.0
    179    174    175    176   5     0.00000    30.33400     0.00000  0.0
    179    174    175    184   5     0.00000    30.33400     0.00000  0.0
    173    174    179    178   5     0.00000    30.33400     0.00000  0.0
    173    174    179    188   5     0.00000    30.33400     0.00000  0.0
    175    174    179    178   5     0.00000    30.33400     0.00000  0.0
    175    174    179    188   5     0.00000    30.33400     0.00000  0.0
    174    175    176    177   5     0.00000    30.33400     0.00000  0.0
    174    175    176    185   5     0.00000    30.33400     0.00000  0.0
    184    175    176    177   5     0.00000    30.33400     0.00000  0.0
    184    175    176    185   5     0.00000    30.33400     0.00000  0.0
    175    176    177    178   5     0.00000    30.33400     0.00000  0.0
    175    176    177    186   5     0.00000    30.33400     0.00000  0.0
    185    176    177    178   5     0.00000    30.33400     0.00000  0.0
    185    176    177    186   5     0.00000    30.33400     0.00000  0.0
    176    177    178    179   5     0.00000    30.33400     0.00000  0.0
    176    177    178    187   5     0.00000    30.33400     0.00000  0.0
    186    177    178    179   5     0.00000    30.33400     0.00000  0.0
    186    177    178    187   5     0.00000    30.33400     0.00000  0.0
    177    178    179    174   5     0.00000    30.33400     0.00000  0.0
    177    178    179    188   5     0.00000    30.33400     0.00000  0.0
    187    178    179    174   5     0.00000    30.33400     0.00000  0.0
    187    178    179    188   5     0.00000    30.33400     0.00000  0.0
    170    180    191    192   5     5.25092    -2.58990     2.28446  0.0
    170    180    191    201   5     4.74884    -0.63178     1.67360  0.0
    170    180    191    202   5     0.00000     0.00000     1.25520  0.0
    189    180    191    192   5     0.00000     0.00000     1.95811  0.0
    189    180    191    201   5     0.00000     0.00000     1.25520  0.0
    189    180    191    202   5     0.00000     0.00000     1.25520  0.0
    190    180    191    192   5     0.00000     0.00000     1.95811  0.0
    190    180    191    201   5     0.00000     0.00000     1.25520  0.0
    190    180    191    202   5     0.00000     0.00000     1.25520  0.0
    180    191    192    193   5     0.52300    -0.09205     2.34722  0.0
    201    191    192    193   5     0.52300    -0.09205     2.34722  0.0
    202    191    192    193   5     0.00000     0.00000     3.10034  0.0
    180    191    201    210   5     0.00000     0.00000     1.25520  0.0
    180    191    201    211   5     0.00000     0.00000     1.25520  0.0
    180    191    201    212   5     4.74884    -0.63178     1.67360  0.0
    192    191    201    210   5     0.00000     0.00000     1.95811  0.0
    192    191    201    211   5     0.00000     0.00000     1.95811  0.0
    192    191    201    212   5     5.25092    -2.58990     2.28446  0.0
    202    191    201    210   5     0.00000     0.00000     1.25520  0.0
    202    191    201    211   5     0.00000     0.00000     1.25520  0.0
    202    191    201    212   5     0.00000     0.00000     1.25520  0.0
    191    192    193    194   5    -4.46433    -6.55633     2.82420  0.0
    191    192    193    203   5     0.00000     0.00000     3.10034  0.0
    191    192    193    204   5     0.00000     0.00000     3.10034  0.0
    192    193    194    195   5    -2.14221    -3.35138     2.90370  0.0
    203    193    194    195   5     0.00000     0.00000     0.67362  0.0
    204    193    194    195   5     0.00000     0.00000     0.67362  0.0
    193    194    195    196   5     0.00000    16.38454     0.00000  0.0
    193    194    195    200   5     0.00000    16.38454     0.00000  0.0
    194    195    196    197   5     0.00000    30.33400     0.00000  0.0
    194    195    196    205   5     0.00000    30.33400     0.00000  0.0
    200    195    196    197   5     0.00000    30.33400     0.00000  0.0
    200    195    196    205   5     0.00000    30.33400     0.00000  0.0
    194    195    200    199   5     0.00000    30.33400     0.00000  0.0
    194    195    200    209   5     0.00000    30.33400     0.00000  0.0
    196    195    200    199   5     0.00000    30.33400     0.00000  0.0
    196    195    200    209   5     0.00000    30.33400     0.00000  0.0
    195    196    197    198   5     0.00000    30.33400     0.00000  0.0
    195    196    197    206   5     0.00000    30.33400     0.00000  0.0
    205    196    197    198   5     0.00000    30.33400     0.00000  0.0
    205    196    197    206   5     0.00000    30.33400     0.00000  0.0
    196    197    198    199   5     0.00000    30.33400     0.00000  0.0
    196    197    198    207   5     0.00000    30.33400     0.00000  0.0
    206    197    198    199   5     0.00000    30.33400     0.00000  0.0
    206    197    198    207   5     0.00000    30.33400     0.00000  0.0
    197    198    199    200   5     0.00000    30.33400     0.00000  0.0
    197    198    199    208   5     0.00000    30.33400     0.00000  0.0
    207    198    199    200   5     0.00000    30.33400     0.00000  0.0
    207    198    199    208   5     0.00000    30.33400     0.00000  0.0
    198    199    200    195   5     0.00000    30.33400     0.00000  0.0
    198    199    200    209   5     0.00000    30.33400     0.00000  0.0
    208    199    200    195   5     0.00000    30.33400     0.00000  0.0
    208    199    200    209   5     0.00000    30.33400     0.00000  0.0
    191    201    212    213   5     5.25092    -2.58990     2.28446  0.0
    191    201    212    222   5     4.74884    -0.63178     1.67360  0.0
    191    201    212    223   5     0.00000     0.00000     1.25520  0.0
    210    201    212    213   5     0.00000     0.00000     1.95811  0.0
    210    201    212    222   5     0.00000     0.00000     1.25520  0.0
    210    201    212    223   5     0.00000     0.00000     1.25520  0.0
    211    201    212    213   5     0.00000     0.00000     1.95811  0.0
    211    201    212    222   5     0.00000     0.00000     1.25520  0.0
    211    201    212    223   5     0.00000     0.00000     1.25520  0.0
    201    212    213    214   5     0.52300    -0.09205     2.34722  0.0
    222    212    213    214   5     0.52300    -0.09205     2.34722  0.0
    223    212    213    214   5     0.00000     0.00000     3.10034  0.0
    201    212    222    231   5     0.00000     0.00000     1.25520  0.0
    201    212    222    232   5     0.00000     0.00000     1.25520  0.0
    201    212    222    233   5     4.74884    -0.63178     1.67360  0.0
    213    212    222    231   5     0.00000     0.00000     1.95811  0.0
    213    212    222    232   5     0.00000     0.00000     1.95811  0.0
    213    212    222    233   5     5.25092    -2.58990     2.28446  0.0
    223    212    222    231   5     0.00000     0.00000     1.25520  0.0
    223    212    222    232   5     0.00000     0.00000     1.25520  0.0
    223    212    222    233   5     0.00000     0.00000     1.25520  0.0
    212    213    214    215   5    -4.46433    -6.55633     2.82420  0.0
    212    213    214    224   5     0.00000     0.00000     3.10034  0.0
    212    213    214    225   5     0.00000     0.00000     3.10034  0.0
    213    214    215    216   5    -2.14221    -3.35138     2.90370  0.0
    224    214    215    216   5     0.00000     0.00000     0.67362  0.0
    225    214    215    216   5     0.00000     0.00000     0.67362  0.0
    214    215    216    217   5     0.00000    16.38454     0.00000  0.0
    214    215    216    221   5     0.00000    16.38454     0.00000  0.0
    215    216    217    218   5     0.00000    30.33400     0.00000  0.0
    215    216    217    226   5     0.00000    30.33400     0.00000  0.0
    221    216    217    218   5     0.00000    30.33400     0.00000  0.0
    221    216    217    226   5     0.00000    30.33400     0.00000  0.0
    215    216    221    220   5     0.00000    30.33400     0.00000  0.0
    215    216    221    230   5     0.00000    30.33400     0.00000  0.0
    217    216    221    220   5     0.00000    30.33400     0.00000  0.0
    217    216    221    230   5     0.00000    30.33400     0.00000  0.0
    216    217    218    219   5     0.00000    30.33400     0.00000  0.0
    216    217    218    227   5     0.00000    30.33400     0.00000  0.0
    226    217    218    219   5     0.00000    30.33400     0.00000  0.0
    226    217    218    227   5     0.00000    30.33400     0.00000  0.0
    217    218    219    220   5     0.00000    30.33400     0.00000  0.0
    217    218    219    228   5     0.00000    30.33400     0.00000  0.0
    227    218    219    220   5     0.00000    30.33400     0.00000  0.0
    227    218    219    228   5     0.00000    30.33400     0.00000  0.0
    218    219    220    221   5     0.00000    30.33400     0.00000  0.0
    218    219    220    229   5     0.00000    30.33400     0.00000  0.0
    228    219    220    221   5     0.00000    30.33400     0.00000  0.0
    228    219    220    229   5     0.00000    30.33400     0.00000  0.0
    219    220    221    216   5     0.00000    30.33400     0.00000  0.0
    219    220    221    230   5     0.00000    30.33400     0.00000  0.0
    229    220    221    216   5     0.00000    30.33400     0.00000  0.0
    229    220    221    230   5     0.00000    30.33400     0.00000  0.0
    212    222    233    234   5     5.25092    -2.58990     2.28446  0.0
    212    222    233    243   5     4.74884    -0.63178     1.67360  0.0
    212    222    233    244   5     0.00000     0.00000     1.25520  0.0
    231    222    233    234   5     0.00000     0.00000     1.95811  0.0
    231    222    233    243   5     0.00000     0.00000     1.25520  0.0
    231    222    233    244   5     0.00000     0.00000     1.25520  0.0
    232    222    233    234   5     0.00000     0.00000     1.95811  0.0
    232    222    233    243   5     0.00000     0.00000     1.25520  0.0
    232    222    233    244   5     0.00000     0.00000     1.25520  0.0
    222    233    234    235   5     0.52300    -0.09205     2.34722  0.0
    243    233    234    235   5     0.52300    -0.09205     2.34722  0.0
    244    233    234    235   5     0.00000     0.00000     3.10034  0.0
    222    233    243    252   5     0.00000     0.00000     1.25520  0.0
    222    233    243    253   5     0.00000     0.00000     1.25520  0.0
    222    233    243    254   5     4.74884    -0.63178     1.67360  0.0
    234    233    243    252   5     0.00000     0.00000     1.95811  0.0
    234    233    243    253   5     0.00000     0.00000     1.95811  0.0
    234    233    243    254   5     5.25092    -2.58990     2.28446  0.0
    244    233    243    252   5     0.00000     0.00000     1.25520  0.0
    244    233    243    253   5     0.00000     0.00000     1.25520  0.0
    244    233    243    254   5     0.00000     0.00000     1.25520  0.0
    233    234    235    236   5    -4.46433    -6.55633     2.82420  0.0
    233    234    235    245   5     0.00000     0.00000     3.10034  0.0
    233    234    235    246   5     0.00000     0.00000     3.10034  0.0
    234    235    236    237   5    -2.14221    -3.35138     2.90370  0.0
    245    235    236    237   5     0.00000     0.00000     0.67362  0.0
    246    235    236    237   5     0.00000     0.00000     0.67362  0.0
    235    236    237    238   5     0.00000    16.38454     0.00000  0.0
    235    236    237    242   5     0.00000    16.38454     0.00000  0.0
    236    237    238    239   5     0.00000    30.33400     0.00000  0.0
    236    237    238    247   5     0.00000    30.33400     0.00000  0.0
    242    237    238    239   5     0.00000    30.33400     0.00000  0.0
    242    237    238    247   5     0.00000    30.33400     0.00000  0.0
    236    237    242    241   5     0.00000    30.33400     0.00000  0.0
    236    237    242    251   5     0.00000    30.33400     0.00000  0.0
    238    237    242    241   5     0.00000    30.33400     0.00000  0.0
    238    237    242    251   5     0.00000    30.33400     0.00000  0.0
    237    238    239    240   5     0.00000    30.33400     0.00000  0.0
    237    238    239    248   5     0.00000    30.33400     0.00000  0.0
    247    238    239    240   5     0.00000    30.33400     0.00000  0.0
    247    238    239    248   5     0.00000    30.33400     0.00000  0.0
    238    239    240    241   5     0.00000    30.33400     0.00000  0.0
    238    239    240    249   5     0.00000    30.33400     0.00000  0.0
    248    239    240    241   5     0.00000    30.33400     0.00000  0.0
    248    239    240    249   5     0.00000    30.33400     0.00000  0.0
    239    240    241    242   5     0.00000    30.33400     0.00000  0.0
    239    240    241    250   5     0.00000    30.33400     0.00000  0.0
    249    240    241    242   5     0.00000    30.33400     0.00000  0.0
    249    240    241    250   5     0.00000    30.33400     0.00000  0.0
    240    241    242    237   5     0.00000    30.33400     0.00000  0.0
    240    241    242    251   5     0.00000    30.33400     0.00000  0.0
    250    241    242    237   5     0.00000    30.33400     0.00000  0.0
    250    241    242    251   5     0.00000    30.33400     0.00000  0.0
    233    243    254    255   5     5.25092    -2.58990     2.28446  0.0
    233    243    254    264   5     4.74884    -0.63178     1.67360  0.0
    233    243    254    265   5     0.00000     0.00000     1.25520  0.0
    252    243    254    255   5     0.00000     0.00000     1.95811  0.0
    252    243    254    264   5     0.00000     0.00000     1.25520  0.0
    252    243    254    265   5     0.00000     0.00000     1.25520  0.0
    253    243    254    255   5     0.00000     0.00000     1.95811  0.0
    253    243    254    264   5     0.00000     0.00000     1.25520  0.0
    253    243    254    265   5     0.00000     0.00000     1.25520  0.0
    243    254    255    256   5     0.52300    -0.09205     2.34722  0.0
    264    254    255    256   5     0.52300    -0.09205     2.34722  0.0
    265    254    255    256   5     0.00000     0.00000     3.10034  0.0
    243    254    264    273   5     0.00000     0.00000     1.25520  0.0
    243    254    264    274   5     0.00000     0.00000     1.25520  0.0
    243    254    264    275   5     4.74884    -0.63178     1.67360  0.0
    255    254    264    273   5     0.00000     0.00000     1.95811  0.0
    255    254    264    274   5     0.00000     0.00000     1.95811  0.0
    255    254    264    275   5     5.25092    -2.58990     2.28446  0.0
    265    254    264    273   5     0.00000     0.00000     1.25520  0.0
    265    254    264    274   5     0.00000     0.00000     1.25520  0.0
    265    254    264    275   5     0.00000     0.00000     1.25520  0.0
    254    255    256    257   5    -4.46433    -6.55633     2.82420  0.0
    254    255    256    266   5     0.00000     0.00000     3.10034  0.0
    254    255    256    267   5     0.00000     0.00000     3.10034  0.0
    255    256    257    258   5    -2.14221    -3.35138     2.90370  0.0
    266    256    257    258   5     0.00000     0.00000     0.67362  0.0
    267    256    257    258   5     0.00000     0.00000     0.67362  0.0
    256    257    258    259   5     0.00000    16.38454     0.00000  0.0
    256    257    258    263   5     0.00000    16.38454     0.00000  0.0
    257    258    259    260   5     0.00000    30.33400     0.00000  0.0
    257    258    259    268   5     0.00000    30.33400     0.00000  0.0
    263    258    259    260   5     0.00000    30.33400     0.00000  0.0
    263    258    259    268   5     0.00000    30.33400     0.00000  0.0
    257    258    263    262   5     0.00000    30.33400     0.00000  0.0
    257    258    263    272   5     0.00000    30.33400     0.00000  0.0
    259    258    263    262   5     0.00000    30.33400     0.00000  0.0
    259    258    263    272   5     0.00000    30.33400     0.00000  0.0
    258    259    260    261   5     0.00000    30.33400     0.00000  0.0
    258    259    260    269   5     0.00000    30.33400     0.00000  0.0
    268    259    260    261   5     0.00000    30.33400     0.00000  0.0
    268    259    260    269   5     0.00000    30.33400     0.00000  0.0
    259    260    261    262   5     0.00000    30.33400     0.00000  0.0
    259    260    261    270   5     0.00000    30.33400     0.00000  0.0
    269    260    261    262   5     0.00000    30.33400     0.00000  0.0
    269    260    261    270   5     0.00000    30.33400     0.00000  0.0
    260    261    262    263   5     0.00000    30.33400     0.00000  0.0
    260    261    262    271   5     0.00000    30.33400     0.00000  0.0
    270    261    262    263   5     0.00000    30.33400     0.00000  0.0
    270    261    262    271   5     0.00000    30.33400     0.00000  0.0
    261    262    263    258   5     0.00000    30.33400     0.00000  0.0
    261    262    263    272   5     0.00000    30.33400     0.00000  0.0
    271    262    263    258   5     0.00000    30.33400     0.00000  0.0
    271    262    263    272   5     0.00000    30.33400     0.00000  0.0
    254    264    275    276   5     5.25092    -2.58990     2.28446  0.0
    254    264    275    285   5     4.74884    -0.63178     1.67360  0.0
    254    264    275    286   5     0.00000     0.00000     1.25520  0.0
    273    264    275    276   5     0.00000     0.00000     1.95811  0.0
    273    264    275    285   5     0.00000     0.00000     1.25520  0.0
    273    264    275    286   5     0.00000     0.00000     1.25520  0.0
    274    264    275    276   5     0.00000     0.00000     1.95811  0.0
    274    264    275    285   5     0.00000     0.00000     1.25520  0.0
    274    264    275    286   5     0.00000     0.00000     1.25520  0.0
    264    275    276    277   5     0.52300    -0.09205     2.34722  0.0
    285    275    276    277   5     0.52300    -0.09205     2.34722  0.0
    286    275    276    277   5     0.00000     0.00000     3.10034  0.0
    264    275    285    294   5     0.00000     0.00000     1.25520  0.0
    264    275    285    295   5     0.00000     0.00000     1.25520  0.0
    264    275    285    296   5     4.74884    -0.63178     1.67360  0.0
    276    275    285    294   5     0.00000     0.00000     1.95811  0.0
    276    275    285    295   5     0.00000     0.00000     1.95811  0.0
    276    275    285    296   5     5.25092    -2.58990     2.28446  0.0
    286    275    285    294   5     0.00000     0.00000     1.25520  0.0
    286    275    285    295   5     0.00000     0.00000     1.25520  0.0
    286    275    285    296   5     0.00000     0.00000     1.25520  0.0
    275    276    277    278   5    -4.46433    -6.55633     2.82420  0.0
    275    276    277    287   5     0.00000     0.00000     3.10034  0.0
    275    276    277    288   5     0.00000     0.00000     3.10034  0.0
    276    277    278    279   5    -2.14221    -3.35138     2.90370  0.0
    287    277    278    279   5     0.00000     0.00000     0.67362  0.0
    288    277    278    279   5     0.00000     0.00000     0.67362  0.0
    277    278    279    280   5     0.00000    16.38454     0.00000  0.0
    277    278    279    284   5     0.00000    16.38454     0.00000  0.0
    278    279    280    281   5     0.00000    30.33400     0.00000  0.0
    278    279    280    289   5     0.00000    30.33400     0.00000  0.0
    284    279    280    281   5     0.00000    30.33400     0.00000  0.0
    284    279    280    289   5     0.00000    30.33400     0.00000  0.0
    278    279    284    283   5     0.00000    30.33400     0.00000  0.0
    278    279    284    293   5     0.00000    30.33400     0.00000  0.0
    280    279    284    283   5     0.00000    30.33400     0.00000  0.0
    280    279    284    293   5     0.00000    30.33400     0.00000  0.0
    279    280    281    282   5     0.00000    30.33400     0.00000  0.0
    279    280    281    290   5     0.00000    30.33400     0.00000  0.0
    289    280    281    282   5     0.00000    30.33400     0.00000  0.0
    289    280    281    290   5     0.00000    30.33400     0.00000  0.0
    280    281    282    283   5     0.00000    30.33400     0.00000  0.0
    280    281    282    291   5     0.00000    30.33400     0.00000  0.0
    290    281    282    283   5     0.00000    30.33400     0.00000  0.0
    290    281    282    291   5     0.00000    30.33400     0.00000  0.0
    281    282    283    284   5     0.00000    30.33400     0.00000  0.0
    281    282    283    292   5     0.00000    30.33400     0.00000  0.0
    291    282    283    284   5     0.00000    30.33400     0.00000  0.0
    291    282    283    292   5     0.00000    30.33400     0.00000  0.0
    282    283    284    279   5     0.00000    30.33400     0.00000  0.0
    282    283    284    293   5     0.00000    30.33400     0.00000  0.0
    292    283    284    279   5     0.00000    30.33400     0.00000  0.0
    292    283    284    293   5     0.00000    30.33400     0.00000  0.0
    275    285    296    297   5     5.25092    -2.58990     2.28446  0.0
    275    285    296    306   5     4.74884    -0.63178     1.67360  0.0
    275    285    296    307   5     0.00000     0.00000     1.25520  0.0
    294    285    296    297   5     0.00000     0.00000     1.95811  0.0
    294    285    296    306   5     0.00000     0.00000     1.25520  0.0
    294    285    296    307   5     0.00000     0.00000     1.25520  0.0
    295    285    296    297   5     0.00000     0.00000     1.95811  0.0
    295    285    296    306   5     0.00000     0.00000     1.25520  0.0
    295    285    296    307   5     0.00000     0.00000     1.25520  0.0
    285    296    297    298   5     0.52300    -0.09205     2.34722  0.0
    306    296    297    298   5     0.52300    -0.09205     2.34722  0.0
    307    296    297    298   5     0.00000     0.00000     3.10034  0.0
    285    296    306    315   5     0.00000     0.00000     1.25520  0.0
    285    296    306    316   5     0.00000     0.00000     1.25520  0.0
    285    296    306    317   5     4.74884    -0.63178     1.67360  0.0
    297    296    306    315   5     0.00000     0.00000     1.95811  0.0
    297    296    306    316   5     0.00000     0.00000     1.95811  0.0
    297    296    306    317   5     5.25092    -2.58990     2.28446  0.0
    307    296    306    315   5     0.00000     0.00000     1.25520  0.0
    307    296    306    316   5     0.00000     0.00000     1.25520  0.0
    307    296    306    317   5     0.00000     0.00000     1.25520  0.0
    296    297    298    299   5    -4.46433    -6.55633     2.82420  0.0
    296    297    298    308   5     0.00000     0.00000     3.10034  0.0
    296    297    298    309   5     0.00000     0.00000     3.10034  0.0
    297    298    299    300   5    -2.14221    -3.35138     2.90370  0.0
    308    298    299    300   5     0.00000     0.00000     0.67362  0.0
    309    298    299    300   5     0.00000     0.00000     0.67362  0.0
    298    299    300    301   5     0.00000    16.38454     0.00000  0.0
    298    299    300    305   5     0.00000    16.38454     0.00000  0.0
    299    300    301    302   5     0.00000    30.33400     0.00000  0.0
    299    300    301    310   5     0.00000    30.33400     0.00000  0.0
    305    300    301    302   5     0.00000    30.33400     0.00000  0.0
    305    300    301    310   5     0.00000    30.33400     0.00000  0.0
    299    300    305    304   5     0.00000    30.33400     0.00000  0.0
    299    300    305    314   5     0.00000    30.33400     0.00000  0.0
    301    300    305    304   5     0.00000    30.33400     0.00000  0.0
    301    300    305    314   5     0.00000    30.33400     0.00000  0.0
    300    301    302    303   5     0.00000    30.33400     0.00000  0.0
    300    301    302    311   5     0.00000    30.33400     0.00000  0.0
    310    301    302    303   5     0.00000    30.33400     0.00000  0.0
    310    301    302    311   5     0.00000    30.33400     0.00000  0.0
    301    302    303    304   5     0.00000    30.33400     0.00000  0.0
    301    302    303    312   5     0.00000    30.33400     0.00000  0.0
    311    302    303    304   5     0.00000    30.33400     0.00000  0.0
    311    302    303    312   5     0.00000    30.33400     0.00000  0.0
    302    303    304    305   5     0.00000    30.33400     0.00000  0.0
    302    303    304    313   5     0.00000    30.33400     0.00000  0.0
    312    303    304    305   5     0.00000    30.33400     0.00000  0.0
    312    303    304    313   5     0.00000    30.33400     0.00000  0.0
    303    304    305    300   5     0.00000    30.33400     0.00000  0.0
    303    304    305    314   5     0.00000    30.33400     0.00000  0.0
    313    304    305    300   5     0.00000    30.33400     0.00000  0.0
    313    304    305    314   5     0.00000    30.33400     0.00000  0.0
    296    306    317    318   5     5.25092    -2.58990     2.28446  0.0
    296    306    317    327   5     4.74884    -0.63178     1.67360  0.0
    296    306    317    328   5     0.00000     0.00000     1.25520  0.0
    315    306    317    318   5     0.00000     0.00000     1.95811  0.0
    315    306    317    327   5     0.00000     0.00000     1.25520  0.0
    315    306    317    328   5     0.00000     0.00000     1.25520  0.0
    316    306    317    318   5     0.00000     0.00000     1.95811  0.0
    316    306    317    327   5     0.00000     0.00000     1.25520  0.0
    316    306    317    328   5     0.00000     0.00000     1.25520  0.0
    306    317    318    319   5     0.52300    -0.09205     2.34722  0.0
    327    317    318    319   5     0.52300    -0.09205     2.34722  0.0
    328    317    318    319   5     0.00000     0.00000     3.10034  0.0
    306    317    327    336   5     0.00000     0.00000     1.25520  0.0
    306    317    327    337   5     0.00000     0.00000     1.25520  0.0
    306    317    327    338   5     4.74884    -0.63178     1.67360  0.0
    318    317    327    336   5     0.00000     0.00000     1.95811  0.0
    318    317    327    337   5     0.00000     0.00000     1.95811  0.0
    318    317    327    338   5     5.25092    -2.58990     2.28446  0.0
    328    317    327    336   5     0.00000     0.00000     1.25520  0.0
    328    317    327    337   5     0.00000     0.00000     1.25520  0.0
    328    317    327    338   5     0.00000     0.00000     1.25520  0.0
    317    318    319    320   5    -4.46433    -6.55633     2.82420  0.0
    317    318    319    329   5     0.00000     0.00000     3.10034  0.0
    317    318    319    330   5     0.00000     0.00000     3.10034  0.0
    318    319    320    321   5    -2.14221    -3.35138     2.90370  0.0
    329    319    320    321   5     0.00000     0.00000     0.67362  0.0
    330    319    320    321   5     0.00000     0.00000     0.67362  0.0
    319    320    321    322   5     0.00000    16.38454     0.00000  0.0
    319    320    321    326   5     0.00000    16.38454     0.00000  0.0
    320    321    322    323   5     0.00000    30.33400     0.00000  0.0
    320    321    322    331   5     0.00000    30.33400     0.00000  0.0
    326    321    322    323   5     0.00000    30.33400     0.00000  0.0
    326    321    322    331   5     0.00000    30.33400     0.00000  0.0
    320    321    326    325   5     0.00000    30.33400     0.00000  0.0
    320    321    326    335   5     0.00000    30.33400     0.00000  0.0
    322    321    326    325   5     0.00000    30.33400     0.00000  0.0
    322    321    326    335   5     0.00000    30.33400     0.00000  0.0
    321    322    323    324   5     0.00000    30.33400     0.00000  0.0
    321    322    323    332   5     0.00000    30.33400     0.00000  0.0
    331    322    323    324   5     0.00000    30.33400     0.00000  0.0
    331    322    323    332   5     0.00000    30.33400     0.00000  0.0
    322    323    324    325   5     0.00000    30.33400     0.00000  0.0
    322    323    324    333   5     0.00000    30.33400     0.00000  0.0
    332    323    324    325   5     0.00000    30.33400     0.00000  0.0
    332    323    324    333   5     0.00000    30.33400     0.00000  0.0
    323    324    325    326   5     0.00000    30.33400     0.00000  0.0
    323    324    325    334   5     0.00000    30.33400     0.00000  0.0
    333    324    325    326   5     0.00000    30.33400     0.00000  0.0
    333    324    325    334   5     0.00000    30.33400     0.00000  0.0
    324    325    326    321   5     0.00000    30.33400     0.00000  0.0
    324    325    326    335   5     0.00000    30.33400     0.00000  0.0
    334    325    326    321   5     0.00000    30.33400     0.00000  0.0
    334    325    326    335   5     0.00000    30.33400     0.00000  0.0
    317    327    338    339   5     5.25092    -2.58990     2.28446  0.0
    317    327    338    348   5     4.74884    -0.63178     1.67360  0.0
    317    327    338    349   5     0.00000     0.00000     1.25520  0.0
    336    327    338    339   5     0.00000     0.00000     1.95811  0.0
    336    327    338    348   5     0.00000     0.00000     1.25520  0.0
    336    327    338    349   5     0.00000     0.00000     1.25520  0.0
    337    327    338    339   5     0.00000     0.00000     1.95811  0.0
    337    327    338    348   5     0.00000     0.00000     1.25520  0.0
    337    327    338    349   5     0.00000     0.00000     1.25520  0.0
    327    338    339    340   5     0.52300    -0.09205     2.34722  0.0
    348    338    339    340   5     0.52300    -0.09205     2.34722  0.0
    349    338    339    340   5     0.00000     0.00000     3.10034  0.0
    327    338    348    357   5     0.00000     0.00000     1.25520  0.0
    327    338    348    358   5     0.00000     0.00000     1.25520  0.0
    327    338    348    359   5     4.74884    -0.63178     1.67360  0.0
    339    338    348    357   5     0.00000     0.00000     1.95811  0.0
    339    338    348    358   5     0.00000     0.00000     1.95811  0.0
    339    338    348    359   5     5.25092    -2.58990     2.28446  0.0
    349    338    348    357   5     0.00000     0.00000     1.25520  0.0
    349    338    348    358   5     0.00000     0.00000     1.25520  0.0
    349    338    348    359   5     0.00000     0.00000     1.25520  0.0
    338    339    340    341   5    -4.46433    -6.55633     2.82420  0.0
    338    339    340    350   5     0.00000     0.00000     3.10034  0.0
    338    339    340    351   5     0.00000     0.00000     3.10034  0.0
    339    340    341    342   5    -2.14221    -3.35138     2.90370  0.0
    350    340    341    342   5     0.00000     0.00000     0.67362  0.0
    351    340    341    342   5     0.00000     0.00000     0.67362  0.0
    340    341    342    343   5     0.00000    16.38454     0.00000  0.0
    340    341    342    347   5     0.00000    16.38454     0.00000  0.0
    341    342    343    344   5     0.00000    30.33400     0.00000  0.0
    341    342    343    352   5     0.00000    30.33400     0.00000  0.0
    347    342    343    344   5     0.00000    30.33400     0.00000  0.0
    347    342    343    352   5     0.00000    30.33400     0.00000  0.0
    341    342    347    346   5     0.00000    30.33400     0.00000  0.0
    341    342    347    356   5     0.00000    30.33400     0.00000  0.0
    343    342    347    346   5     0.00000    30.33400     0.00000  0.0
    343    342    347    356   5     0.00000    30.33400     0.00000  0.0
    342    343    344    345   5     0.00000    30.33400     0.00000  0.0
    342    343    344    353   5     0.00000    30.33400     0.00000  0.0
    352    343    344    345   5     0.00000    30.33400     0.00000  0.0
    352    343    344    353   5     0.00000    30.33400     0.00000  0.0
    343    344    345    346   5     0.00000    30.33400     0.00000  0.0
    343    344    345    354   5     0.00000    30.33400     0.00000  0.0
    353    344    345    346   5     0.00000    30.33400     0.00000  0.0
    353    344    345    354   5     0.00000    30.33400     0.00000  0.0
    344    345    346    347   5     0.00000    30.33400     0.00000  0.0
    344    345    346    355   5     0.00000    30.33400     0.00000  0.0
    354    345    346    347   5     0.00000    30.33400     0.00000  0.0
    354    345    346    355   5     0.00000    30.33400     0.00000  0.0
    345    346    347    342   5     0.00000    30.33400     0.00000  0.0
    345    346    347    356   5     0.00000    30.33400     0.00000  0.0
    355    346    347    342   5     0.00000    30.33400     0.00000  0.0
    355    346    347    356   5     0.00000    30.33400     0.00000  0.0
    338    348    359    360   5     5.25092    -2.58990     2.28446  0.0
    338    348    359    369   5     4.74884    -0.63178     1.67360  0.0
    338    348    359    370   5     0.00000     0.00000     1.25520  0.0
    357    348    359    360   5     0.00000     0.00000     1.95811  0.0
    357    348    359    369   5     0.00000     0.00000     1.25520  0.0
    357    348    359    370   5     0.00000     0.00000     1.25520  0.0
    358    348    359    360   5     0.00000     0.00000     1.95811  0.0
    358    348    359    369   5     0.00000     0.00000     1.25520  0.0
    358    348    359    370   5     0.00000     0.00000     1.25520  0.0
    348    359    360    361   5     0.52300    -0.09205     2.34722  0.0
    369    359    360    361   5     0.52300    -0.09205     2.34722  0.0
    370    359    360    361   5     0.00000     0.00000     3.10034  0.0
    348    359    369    378   5     0.00000     0.00000     1.25520  0.0
    348    359    369    379   5     0.00000     0.00000     1.25520  0.0
    348    359    369    380   5     4.74884    -0.63178     1.67360  0.0
    360    359    369    378   5     0.00000     0.00000     1.95811  0.0
    360    359    369    379   5     0.00000     0.00000     1.95811  0.0
    360    359    369    380   5     5.25092    -2.58990     2.28446  0.0
    370    359    369    378   5     0.00000     0.00000     1.25520  0.0
    370    359    369    379   5     0.00000     0.00000     1.25520  0.0
    370    359    369    380   5     0.00000     0.00000     1.25520  0.0
    359    360    361    362   5    -4.46433    -6.55633     2.82420  0.0
    359    360    361    371   5     0.00000     0.00000     3.10034  0.0
    359    360    361    372   5     0.00000     0.00000     3.10034  0.0
    360    361    362    363   5    -2.14221    -3.35138     2.90370  0.0
    371    361    362    363   5     0.00000     0.00000     0.67362  0.0
    372    361    362    363   5     0.00000     0.00000     0.67362  0.0
    361    362    363    364   5     0.00000    16.38454     0.00000  0.0
    361    362    363    368   5     0.00000    16.38454     0.00000  0.0
    362    363    364    365   5     0.00000    30.33400     0.00000  0.0
    362    363    364    373   5     0.00000    30.33400     0.00000  0.0
    368    363    364    365   5     0.00000    30.33400     0.00000  0.0
    368    363    364    373   5     0.00000    30.33400     0.00000  0.0
    362    363    368    367   5     0.00000    30.33400     0.00000  0.0
    362    363    368    377   5     0.00000    30.33400     0.00000  0.0
    364    363    368    367   5     0.00000    30.33400     0.00000  0.0
    364    363    368    377   5     0.00000    30.33400     0.00000  0.0
    363    364    365    366   5     0.00000    30.33400     0.00000  0.0
    363    364    365    374   5     0.00000    30.33400     0.00000  0.0
    373    364    365    366   5     0.00000    30.33400     0.00000  0.0
    373    364    365    374   5     0.00000    30.33400     0.00000  0.0
    364    365    366    367   5     0.00000    30.33400     0.00000  0.0
    364    365    366    375   5     0.00000    30.33400     0.00000  0.0
    374    365    366    367   5     0.00000    30.33400     0.00000  0.0
    374    365    366    375   5     0.00000    30.33400     0.00000  0.0
    365    366    367    368   5     0.00000    30.33400     0.00000  0.0
    365    366    367    376   5     0.00000    30.33400     0.00000  0.0
    375    366    367    368   5     0.00000    30.33400     0.00000  0.0
    375    366    367    376   5     0.00000    30.33400     0.00000  0.0
    366    367    368    363   5     0.00000    30.33400     0.00000  0.0
    366    367    368    377   5     0.00000    30.33400     0.00000  0.0
    376    367    368    363   5     0.00000    30.33400     0.00000  0.0
    376    367    368    377   5     0.00000    30.33400     0.00000  0.0
    359    369    380    381   5     5.25092    -2.58990     2.28446  0.0
    359    369    380    390   5     4.74884    -0.63178     1.67360  0.0
    359    369    380    391   5     0.00000     0.00000     1.25520  0.0
    378    369    380    381   5     0.00000     0.00000     1.95811  0.0
    378    369    380    390   5     0.00000     0.00000     1.25520  0.0
    378    369    380    391   5     0.00000     0.00000     1.25520  0.0
    379    369    380    381   5     0.00000     0.00000     1.95811  0.0
    379    369    380    390   5     0.00000     0.00000     1.25520  0.0
    379    369    380    391   5     0.00000     0.00000     1.25520  0.0
    369    380    381    382   5     0.52300    -0.09205     2.34722  0.0
    390    380    381    382   5     0.52300    -0.09205     2.34722  0.0
    391    380    381    382   5     0.00000     0.00000     3.10034  0.0
    369    380    390    399   5     0.00000     0.00000     1.25520  0.0
    369    380    390    400   5     0.00000     0.00000     1.25520  0.0
    369    380    390    401   5     4.74884    -0.63178     1.67360  0.0
    381    380    390    399   5     0.00000     0.00000     1.95811  0.0
    381    380    390    400   5     0.00000     0.00000     1.95811  0.0
    381    380    390    401   5     5.25092    -2.58990     2.28446  0.0
    391    380    390    399   5     0.00000     0.00000     1.25520  0.0
    391    380    390    400   5     0.00000     0.00000     1.25520  0.0
    391    380    390    401   5     0.00000     0.00000     1.25520  0.0
    380    381    382    383   5    -4.46433    -6.55633     2.82420  0.0
    380    381    382    392   5     0.00000     0.00000     3.10034  0.0
    380    381    382    393   5     0.00000     0.00000     3.10034  0.0
    381    382    383    384   5    -2.14221    -3.35138     2.90370  0.0
    392    382    383    384   5     0.00000     0.00000     0.67362  0.0
    393    382    383    384   5     0.00000     0.00000     0.67362  0.0
    382    383    384    385   5     0.00000    16.38454     0.00000  0.0
    382    383    384    389   5     0.00000    16.38454     0.00000  0.0
    383    384    385    386   5     0.00000    30.33400     0.00000  0.0
    383    384    385    394   5     0.00000    30.33400     0.00000  0.0
    389    384    385    386   5     0.00000    30.33400     0.00000  0.0
    389    384    385    394   5     0.00000    30.33400     0.00000  0.0
    383    384    389    388   5     0.00000    30.33400     0.00000  0.0
    383    384    389    398   5     0.00000    30.33400     0.00000  0.0
    385    384    389    388   5     0.00000    30.33400     0.00000  0.0
    385    384    389    398   5     0.00000    30.33400     0.00000  0.0
    384    385    386    387   5     0.00000    30.33400     0.00000  0.0
    384    385    386    395   5     0.00000    30.33400     0.00000  0.0
    394    385    386    387   5     0.00000    30.33400     0.00000  0.0
    394    385    386    395   5     0.00000    30.33400     0.00000  0.0
    385    386    387    388   5     0.00000    30.33400     0.00000  0.0
    385    386    387    396   5     0.00000    30.33400     0.00000  0.0
    395    386    387    388   5     0.00000    30.33400     0.00000  0.0
    395    386    387    396   5     0.00000    30.33400     0.00000  0.0
    386    387    388    389   5     0.00000    30.33400     0.00000  0.0
    386    387    388    397   5     0.00000    30.33400     0.00000  0.0
    396    387    388    389   5     0.00000    30.33400     0.00000  0.0
    396    387    388    397   5     0.00000    30.33400     0.00000  0.0
    387    388    389    384   5     0.00000    30.33400     0.00000  0.0
    387    388    389    398   5     0.00000    30.33400     0.00000  0.0
    397    388    389    384   5     0.00000    30.33400     0.00000  0.0
    397    388    389    398   5     0.00000    30.33400     0.00000  0.0
    380    390    401    402   5     5.25092    -2.58990     2.28446  0.0
    380    390    401    411   5     4.74884    -0.63178     1.67360  0.0
    380    390    401    412   5     0.00000     0.00000     1.25520  0.0
    399    390    401    402   5     0.00000     0.00000     1.95811  0.0
    399    390    401    411   5     0.00000     0.00000     1.25520  0.0
    399    390    401    412   5     0.00000     0.00000     1.25520  0.0
    400    390    401    402   5     0.00000     0.00000     1.95811  0.0
    400    390    401    411   5     0.00000     0.00000     1.25520  0.0
    400    390    401    412   5     0.00000     0.00000     1.25520  0.0
    390    401    402    403   5     0.52300    -0.09205     2.34722  0.0
    411    401    402    403   5     0.52300    -0.09205     2.34722  0.0
    412    401    402    403   5     0.00000     0.00000     3.10034  0.0
    390    401    411    420   5     0.00000     0.00000     1.25520  0.0
    390    401    411    421   5     0.00000     0.00000     1.25520  0.0
    390    401    411    422   5     0.00000     0.00000     1.25520  0.0
    402    401    411    420   5     0.00000     0.00000     1.95811  0.0
    402    401    411    421   5     0.00000     0.00000     1.95811  0.0
    402    401    411    422   5     0.00000     0.00000     1.95811  0.0
    412    401    411    420   5     0.00000     0.00000     1.25520  0.0
    412    401    411    421   5     0.00000     0.00000     1.25520  0.0
    412    401    411    422   5     0.00000     0.00000     1.25520  0.0
    401    402    403    404   5    -4.46433    -6.55633     2.82420  0.0
    401    402    403    413   5     0.00000     0.00000     3.10034  0.0
    401    402    403    414   5     0.00000     0.00000     3.10034  0.0
    402    403    404    405   5    -2.14221    -3.35138     2.90370  0.0
    413    403    404    405   5     0.00000     0.00000     0.67362  0.0
    414    403    404    405   5     0.00000     0.00000     0.67362  0.0
    403    404    405    406   5     0.00000    16.38454     0.00000  0.0
    403    404    405    410   5     0.00000    16.38454     0.00000  0.0
    404    405    406    407   5     0.00000    30.33400     0.00000  0.0
    404    405    406    415   5     0.00000    30.33400     0.00000  0.0
    410    405    406    407   5     0.00000    30.33400     0.00000  0.0
    410    405    406    415   5     0.00000    30.33400     0.00000  0.0
    404    405    410    409   5     0.00000    30.33400     0.00000  0.0
    404    405    410    419   5     0.00000    30.33400     0.00000  0.0
    406    405    410    409   5     0.00000    30.33400     0.00000  0.0
    406    405    410    419   5     0.00000    30.33400     0.00000  0.0
    405    406    407    408   5     0.00000    30.33400     0.00000  0.0
    405    406    407    416   5     0.00000    30.33400     0.00000  0.0
    415    406    407    408   5     0.00000    30.33400     0.00000  0.0
    415    406    407    416   5     0.00000    30.33400     0.00000  0.0
    406    407    408    409   5     0.00000    30.33400     0.00000  0.0
    406    407    408    417   5     0.00000    30.33400     0.00000  0.0
    416    407    408    409   5     0.00000    30.33400     0.00000  0.0
    416    407    408    417   5     0.00000    30.33400     0.00000  0.0
    407    408    409    410   5     0.00000    30.33400     0.00000  0.0
    407    408    409    418   5     0.00000    30.33400     0.00000  0.0
    417    408    409    410   5     0.00000    30.33400     0.00000  0.0
    417    408    409    418   5     0.00000    30.33400     0.00000  0.0
    408    409    410    405   5     0.00000    30.33400     0.00000  0.0
    408    409    410    419   5     0.00000    30.33400     0.00000  0.0
    418    409    410    405   5     0.00000    30.33400     0.00000  0.0
    418    409    410    419   5     0.00000    30.33400     0.00000  0.0

[ dihedrals ]
; Improper dihedrals
; h   i   j   k   funct
      4      6      5     10   5     0.00000    33.47200     0.00000  0.0
      5      7      6     15   5     0.00000     9.20480     0.00000  0.0
      6      8      7     16   5     0.00000     9.20480     0.00000  0.0
      7      9      8     17   5     0.00000     9.20480     0.00000  0.0
      8     10      9     18   5     0.00000     9.20480     0.00000  0.0
      5      9     10     19   5     0.00000     9.20480     0.00000  0.0
     26     28     27     32   5     0.00000    33.47200     0.00000  0.0
     27     29     28     37   5     0.00000     9.20480     0.00000  0.0
     28     30     29     38   5     0.00000     9.20480     0.00000  0.0
     29     31     30     39   5     0.00000     9.20480     0.00000  0.0
     30     32     31     40   5     0.00000     9.20480     0.00000  0.0
     27     31     32     41   5     0.00000     9.20480     0.00000  0.0
     47     49     48     53   5     0.00000    33.47200     0.00000  0.0
     48     50     49     58   5     0.00000     9.20480     0.00000  0.0
     49     51     50     59   5     0.00000     9.20480     0.00000  0.0
     50     52     51     60   5     0.00000     9.20480     0.00000  0.0
     51     53     52     61   5     0.00000     9.20480     0.00000  0.0
     48     52     53     62   5     0.00000     9.20480     0.00000  0.0
     68     70     69     74   5     0.00000    33.47200     0.00000  0.0
     69     71     70     79   5     0.00000     9.20480     0.00000  0.0
     70     72     71     80   5     0.00000     9.20480     0.00000  0.0
     71     73     72     81   5     0.00000     9.20480     0.00000  0.0
     72     74     73     82   5     0.00000     9.20480     0.00000  0.0
     69     73     74     83   5     0.00000     9.20480     0.00000  0.0
     89     91     90     95   5     0.00000    33.47200     0.00000  0.0
     90     92     91    100   5     0.00000     9.20480     0.00000  0.0
     91     93     92    101   5     0.00000     9.20480     0.00000  0.0
     92     94     93    102   5     0.00000     9.20480     0.00000  0.0
     93     95     94    103   5     0.00000     9.20480     0.00000  0.0
     90     94     95    104   5     0.00000     9.20480     0.00000  0.0
    110    112    111    116   5     0.00000    33.47200     0.00000  0.0
    111    113    112    121   5     0.00000     9.20480     0.00000  0.0
    112    114    113    122   5     0.00000     9.20480     0.00000  0.0
    113    115    114    123   5     0.00000     9.20480     0.00000  0.0
    114    116    115    124   5     0.00000     9.20480     0.00000  0.0
    111    115    116    125   5     0.00000     9.20480     0.00000  0.0
    131    133    132    137   5     0.00000    33.47200     0.00000  0.0
    132    134    133    142   5     0.00000     9.20480     0.00000  0.0
    133    135    134    143   5     0.00000     9.20480     0.00000  0.0
    134    136    135    144   5     0.00000     9.20480     0.00000  0.0
    135    137    136    145   5     0.00000     9.20480     0.00000  0.0
    132    136    137    146   5     0.00000     9.20480     0.00000  0.0
    152    154    153    158   5     0.00000    33.47200     0.00000  0.0
    153    155    154    163   5     0.00000     9.20480     0.00000  0.0
    154    156    155    164   5     0.00000     9.20480     0.00000  0.0
    155    157    156    165   5     0.00000     9.20480     0.00000  0.0
    156    158    157    166   5     0.00000     9.20480     0.00000  0.0
    153    157    158    167   5     0.00000     9.20480     0.00000  0.0
    173    175    174    179   5     0.00000    33.47200     0.00000  0.0
    174    176    175    184   5     0.00000     9.20480     0.00000  0.0
    175    177    176    185   5     0.00000     9.20480     0.00000  0.0
    176    178    177    186   5     0.00000     9.20480     0.00000  0.0
    177    179    178    187   5     0.00000     9.20480     0.00000  0.0
    174    178    179    188   5     0.00000     9.20480     0.00000  0.0
    194    196    195    200   5     0.00000    33.47200     0.00000  0.0
    195    197    196    205   5     0.00000     9.20480     0.00000  0.0
    196    198    197    206   5     0.00000     9.20480     0.00000  0.0
    197    199    198    207   5     0.00000     9.20480     0.00000  0.0
    198    200    199    208   5     0.00000     9.20480     0.00000  0.0
    195    199    200    209   5     0.00000     9.20480     0.00000  0.0
    215    217    216    221   5     0.00000    33.47200     0.00000  0.0
    216    218    217    226   5     0.00000     9.20480     0.00000  0.0
    217    219    218    227   5     0.00000     9.20480     0.00000  0.0
    218    220    219    228   5     0.00000     9.20480     0.00000  0.0
    219    221    220    229   5     0.00000     9.20480     0.00000  0.0
    216    220    221    230   5     0.00000     9.20480     0.00000  0.0
    236    238    237    242   5     0.00000    33.47200     0.00000  0.0
    237    239    238    247   5     0.00000     9.20480     0.00000  0.0
    238    240    239    248   5     0.00000     9.20480     0.00000  0.0
    239    241    240    249   5     0.00000     9.20480     0.00000  0.0
    240    242    241    250   5     0.00000     9.20480     0.00000  0.0
    237    241    242    251   5     0.00000     9.20480     0.00000  0.0
    257    259    258    263   5     0.00000    33.47200     0.00000  0.0
    258    260    259    268   5     0.00000     9.20480     0.00000  0.0
    259    261    260    269   5     0.00000     9.20480     0.00000  0.0
    260    262    261    270   5     0.00000     9.20480     0.00000  0.0
    261    263    262    271   5     0.00000     9.20480     0.00000  0.0
    258    262    263    272   5     0.00000     9.20480     0.00000  0.0
    278    280    279    284   5     0.00000    33.47200     0.00000  0.0
    279    281    280    289   5     0.00000     9.20480     0.00000  0.0
    280    282    281    290   5     0.00000     9.20480     0.00000  0.0
    281    283    282    291   5     0.00000     9.20480     0.00000  0.0
    282    284    283    292   5     0.00000     9.20480     0.00000  0.0
    279    283    284    293   5     0.00000     9.20480     0.00000  0.0
    299    301    300    305   5     0.00000    33.47200     0.00000  0.0
    300    302    301    310   5     0.00000     9.20480     0.00000  0.0
    301    303    302    311   5     0.00000     9.20480     0.00000  0.0
    302    304    303    312   5     0.00000     9.20480     0.00000  0.0
    303    305    304    313   5     0.00000     9.20480     0.00000  0.0
    300    304    305    314   5     0.00000     9.20480     0.00000  0.0
    320    322    321    326   5     0.00000    33.47200     0.00000  0.0
    321    323    322    331   5     0.00000     9.20480     0.00000  0.0
    322    324    323    332   5     0.00000     9.20480     0.00000  0.0
    323    325    324    333   5     0.00000     9.20480     0.00000  0.0
    324    326    325    334   5     0.00000     9.20480     0.00000  0.0
    321    325    326    335   5     0.00000     9.20480     0.00000  0.0
    341    343    342    347   5     0.00000    33.47200     0.00000  0.0
    342    344    343    352   5     0.00000     9.20480     0.00000  0.0
    343    345    344    353   5     0.00000     9.20480     0.00000  0.0
    344    346    345    354   5     0.00000     9.20480     0.00000  0.0
    345    347    346    355   5     0.00000     9.20480     0.00000  0.0
    342    346    347    356   5     0.00000     9.20480     0.00000  0.0
    362    364    363    368   5     0.00000    33.47200     0.00000  0.0
    363    365    364    373   5     0.00000     9.20480     0.00000  0.0
    364    366    365    374   5     0.00000     9.20480     0.00000  0.0
    365    367    366    375   5     0.00000     9.20480     0.00000  0.0
    366    368    367    376   5     0.00000     9.20480     0.00000  0.0
    363    367    368    377   5     0.00000     9.20480     0.00000  0.0
    383    385    384    389   5     0.00000    33.47200     0.00000  0.0
    384    386    385    394   5     0.00000     9.20480     0.00000  0.0
    385    387    386    395   5     0.00000     9.20480     0.00000  0.0
    386    388    387    396   5     0.00000     9.20480     0.00000  0.0
    387    389    388    397   5     0.00000     9.20480     0.00000  0.0
    384    388    389    398   5     0.00000     9.20480     0.00000  0.0
    404    406    405    410   5     0.00000    33.47200     0.00000  0.0
    405    407    406    415   5     0.00000     9.20480     0.00000  0.0
    406    408    407    416   5     0.00000     9.20480     0.00000  0.0
    407    409    408    417   5     0.00000     9.20480     0.00000  0.0
    408    410    409    418   5     0.00000     9.20480     0.00000  0.0
    405    409    410    419   5     0.00000     9.20480     0.00000  0.0
