Control file title. For DL_FIELD 4.10
49796
    1MOL     C1    1   5.700   3.392   4.746 -0.2272 -0.0086  0.6504
    1MOL     O2    2   5.644   3.268   4.680 -0.4622 -0.4309  0.1865
    1MOL     C3    3   5.513   3.285   4.632 -0.5364  0.3826 -0.0381
    1MOL     O4    4   5.507   3.376   4.528  0.1158  0.0073  0.7475
    1MOL     C5    5   5.385   3.420   4.502  0.4832 -0.0687  0.6215
    1MOL     C6    6   5.265   3.352   4.521  0.4510  0.2172 -0.2428
    1MOL     C7    7   5.144   3.408   4.502  0.9006 -0.0739  0.8102
    1MOL     C8    8   5.131   3.547   4.470  0.4411 -0.6049  0.1974
    1MOL     C9    9   5.246   3.622   4.448  0.2556  0.2071  0.2857
    1MOL    C10   10   5.374   3.562   4.473  0.1141  0.3378  0.3432
    1MOL    C11   11   5.852   3.349   4.762  0.3716  0.2959 -0.2485
    1MOL    H12   12   5.678   3.481   4.688 -1.7957 -0.5350  0.4009
    1MOL    H13   13   5.498   3.182   4.600 -0.9688  0.6063 -0.5533
    1MOL    H14   14   5.454   3.319   4.717  1.1047  1.2363  0.7857
    1MOL    H15   15   5.257   3.246   4.544  0.4851  0.7484  2.3606
    1MOL    H16   16   5.060   3.346   4.529  1.1103 -1.3162 -1.2863
    1MOL    H17   17   5.030   3.585   4.464  0.8959  0.4845 -0.7976
    1MOL    H18   18   5.242   3.730   4.439  1.5107  0.3587  1.4139
    1MOL    H19   19   5.460   3.626   4.463 -1.3339  2.1507 -0.7603
    1MOL    H20   20   5.902   3.443   4.786  0.4473  0.0919  0.3953
    1MOL    H21   21   5.901   3.301   4.677 -0.2584  1.0423 -1.0414
    1MOL    H22   22   5.651   3.406   4.843  0.2510 -0.2343  0.9292
    1MOL    C23   23   5.884   3.257   4.887  0.1514 -0.3269 -0.0777
    1MOL    O24   24   6.020   3.284   4.933 -0.2553 -0.0299 -0.2699
    1MOL    C25   25   6.048   3.394   5.011 -0.0878 -0.2190 -0.1115
    1MOL    O26   26   6.023   3.364   5.149 -0.4616  0.4795  0.1266
    1MOL    C27   27   6.109   3.284   5.218  0.3288 -0.4868  0.9318
    1MOL    C28   28   6.202   3.194   5.159  0.5660 -0.0257  0.0632
    1MOL    C29   29   6.292   3.117   5.234  0.2549 -0.9421  0.5194
    1MOL    C30   30   6.296   3.137   5.377 -0.6925  0.0175  0.4199
    1MOL    C31   31   6.205   3.223   5.440  0.2002 -0.1488 -0.5314
    1MOL    C32   32   6.118   3.299   5.359 -0.6769  0.3789  0.6323
    1MOL    C33   33   5.859   3.109   4.863  0.6294 -0.1550  0.9789
    1MOL    H34   34   5.804   3.283   4.956 -0.9506 -2.6006 -0.4433
    1MOL    H35   35   5.982   3.475   4.983 -0.5250 -1.4162 -2.6867
    1MOL    H36   36   6.153   3.423   5.007 -0.5020  1.2958 -0.0318
    1MOL    H37   37   6.198   3.190   5.051  1.3835 -0.0851  0.0355
    1MOL    H38   38   6.361   3.053   5.181  0.3877  0.6067 -1.2382
    1MOL    H39   39   6.366   3.071   5.426 -0.0053  0.3937 -0.0485
    1MOL    H40   40   6.198   3.225   5.547  1.2482 -0.1729 -0.4582
    1MOL    H41   41   6.050   3.374   5.397  0.5190  0.9524  1.6817
    1MOL    H42   42   5.949   3.066   4.819 -2.8482 -2.8213 -4.0064
    1MOL    H43   43   5.789   3.122   4.781  3.4058 -0.0778 -1.4990
    1MOL    C44   44   5.802   3.026   4.983  0.0960 -0.2046  0.1879
    1MOL    O45   45   5.691   3.086   5.035  0.6834 -0.1518  0.4297
    1MOL    C46   46   5.572   3.053   4.962  0.3355 -0.5498  0.1273
    1MOL    O47   47   5.537   2.922   4.966 -0.8754  0.1824 -0.4435
    1MOL    C48   48   5.463   2.880   5.077 -0.5514 -0.3845  0.1558
    1MOL    C49   49   5.383   2.768   5.058  0.4110 -0.0817  0.0360
    1MOL    C50   50   5.288   2.732   5.155  0.4874 -0.5512  0.0512
    1MOL    C51   51   5.288   2.799   5.275  0.5496 -0.0166 -0.0776
    1MOL    C52   52   5.378   2.902   5.297 -0.4136 -0.3388  0.1002
    1MOL    C53   53   5.467   2.945   5.196 -0.5944  0.0783 -0.7160
    1MOL    C54   54   5.898   3.028   5.110 -0.6126 -0.3867  0.1234
    1MOL    H55   55   5.781   2.925   4.947 -0.9906 -1.0902  3.1014
    1MOL    H56   56   5.586   3.079   4.857  0.1291 -1.2413 -0.0733
    1MOL    H57   57   5.493   3.121   4.993  0.1900 -1.2758  1.3624
    1MOL    H58   58   5.379   2.714   4.965  0.9672 -2.1483  1.1727
    1MOL    H59   59   5.203   2.667   5.140  0.3571 -0.5685  0.8440
    1MOL    H60   60   5.218   2.765   5.351  0.4640  2.3856  0.9639
    1MOL    H61   61   5.386   2.946   5.395  0.6030  1.0816 -0.5928
    1MOL    H62   62   5.536   3.025   5.221 -0.8902  0.5081 -1.2582
    1MOL    H63   63   5.997   3.001   5.075  0.1946 -0.3120  2.2611
    1MOL    H64   64   5.900   3.132   5.143 -0.6203 -0.2957 -0.1640
    1MOL    C65   65   5.870   2.931   5.224  0.7914  0.7536  0.8106
    1MOL    O66   66   5.893   2.797   5.172  0.5596  0.2648  0.5265
    1MOL    C67   67   5.820   2.700   5.233  0.2421 -0.2824 -0.7055
    1MOL    O68   68   5.837   2.568   5.176 -0.1312 -0.0770  0.0621
    1MOL    C69   69   5.793   2.547   5.044  1.5691 -0.1227  0.1873
    1MOL    C70   70   5.850   2.438   4.974 -0.5849  0.3173  0.5877
    1MOL    C71   71   5.813   2.416   4.835 -0.2459 -0.4329 -0.1902
    1MOL    C72   72   5.729   2.511   4.772 -0.2066  0.1579 -0.5769
    1MOL    C73   73   5.674   2.617   4.842  0.0071 -0.0796 -0.6447
    1MOL    C74   74   5.699   2.633   4.977 -0.4864 -0.2504  0.5008
    1MOL    C75   75   5.948   2.946   5.356 -0.1667 -0.2997 -0.8638
    1MOL    H76   76   5.763   2.941   5.242  0.3795 -0.6582 -0.7396
    1MOL    H77   77   5.717   2.723   5.259  1.5731  2.1308  2.8926
    1MOL    H78   78   5.868   2.687   5.330  1.7939  1.4175 -1.2107
    1MOL    H79   79   5.918   2.366   5.017 -0.1108  0.9007  0.8234
    1MOL    H80   80   5.852   2.328   4.785  3.2998  1.6116 -1.2354
    1MOL    H81   81   5.704   2.501   4.667 -1.7075 -1.4376 -0.0919
    1MOL    H82   82   5.603   2.687   4.800 -2.3991 -2.5024 -0.7376
    1MOL    H83   83   5.647   2.717   5.021 -1.6350 -1.1873  0.9431
    1MOL    H84   84   5.998   2.852   5.380  0.6073  0.1011 -0.9041
    1MOL    H85   85   6.036   3.005   5.331 -0.7275  0.4939 -1.0079
    1MOL    C86   86   5.867   2.996   5.476 -0.3640 -0.1174 -0.1556
    1MOL    O87   87   5.962   2.990   5.581  0.4934 -0.2847  0.2165
    1MOL    C88   88   5.958   2.888   5.673 -0.3130  0.4306  0.0767
    1MOL    O89   89   5.847   2.900   5.754  0.3585  0.1930  0.2218
    1MOL    C90   90   5.868   2.968   5.870 -0.3928 -0.4021  0.2301
    1MOL    C91   91   5.813   2.918   5.988  0.5470 -0.0532  0.4374
    1MOL    C92   92   5.825   2.985   6.107  0.0467  0.4396  0.3296
    1MOL    C93   93   5.891   3.111   6.108 -0.1695 -0.6714  0.0411
    1MOL    C94   94   5.949   3.163   5.993  0.1256  0.4410  0.7859
    1MOL    C95   95   5.938   3.094   5.871  0.1932  0.4850  0.1863
    1MOL    C96   96   5.824   3.142   5.466 -0.3302  0.4294 -0.3505
    1MOL    H97   97   5.782   2.930   5.495 -1.0891  0.2539 -1.9353
    1MOL    H98   98   6.049   2.892   5.732 -1.9348 -1.7403  2.8826
    1MOL    H99   99   5.961   2.798   5.611 -0.1824  0.3286  0.2319
    1MOL   H100  100   5.751   2.829   5.980  0.4494 -0.1429  2.0529
    1MOL   H101  101   5.781   2.937   6.193  3.0208 -2.7399  0.1699
    1MOL   H102  102   5.884   3.170   6.199 -0.1273  2.0725 -1.6829
    1MOL   H103  103   5.986   3.265   5.993 -0.0967  0.5531 -1.0947
    1MOL   H104  104   5.977   3.138   5.780 -0.7580 -2.2470 -1.5891
    1MOL   H105  105   5.914   3.203   5.461  1.0394 -1.3870  1.1896
    1MOL   H106  106   5.770   3.161   5.374 -0.8744 -3.1879 -0.8715
    1MOL   C107  107   5.734   3.188   5.580  0.1870  0.4217 -0.0881
    1MOL   O108  108   5.775   3.321   5.583 -0.0066 -0.1874 -0.1028
    1MOL   C109  109   5.774   3.388   5.705  0.6154  0.0637 -0.3826
    1MOL   O110  110   5.650   3.424   5.756 -0.1488  0.7734  0.5266
    1MOL   C111  111   5.576   3.517   5.684 -0.6906 -0.5495  0.1231
    1MOL   C112  112   5.495   3.606   5.766  0.0683  0.6062  0.7263
    1MOL   C113  113   5.422   3.708   5.694  0.0248 -0.2853  0.2843
    1MOL   C114  114   5.399   3.705   5.556 -0.3881  0.1259 -0.2557
    1MOL   C115  115   5.483   3.625   5.482 -0.6739  0.1733  0.2436
    1MOL   C116  116   5.578   3.538   5.542 -0.4494  0.0803  0.0673
    1MOL   C117  117   5.593   3.163   5.540 -0.2959 -0.2172  0.2563
    1MOL   H118  118   5.763   3.132   5.669  0.2503  2.2300  1.0585
    1MOL   H119  119   5.823   3.483   5.685  0.0459  0.3022 -0.6387
    1MOL   H120  120   5.832   3.333   5.779 -0.6648  1.4250  1.6852
    1MOL   H121  121   5.494   3.600   5.873 -0.6418  1.0794  0.7505
    1MOL   H122  122   5.364   3.780   5.750 -0.9978  0.8889 -2.1913
    1MOL   H123  123   5.331   3.774   5.509 -1.5475 -1.2193 -0.6021
    1MOL   H124  124   5.480   3.628   5.374  0.9890 -0.8261  0.1423
    1MOL   H125  125   5.638   3.484   5.470 -1.7638  0.6342 -1.4742
    1MOL   H126  126   5.565   3.072   5.489 -0.4093  0.4263 -0.8451
    1MOL   H127  127   5.573   3.246   5.472 -0.0660  0.1571  0.6366
    1MOL   C128  128   5.491   3.172   5.659  0.4194 -0.1364 -0.3843
    1MOL   O129  129   5.453   3.038   5.699  0.0425  0.5132  0.5838
    1MOL   C130  130   5.526   2.993   5.806 -0.2647 -0.5529 -0.4046
    1MOL   O131  131   5.497   2.869   5.849 -0.0813 -0.2678  1.1434
    1MOL   C132  132   5.540   2.757   5.768 -0.4564 -0.4884  0.1403
    1MOL   C133  133   5.565   2.769   5.629 -0.1867  0.0238  0.2115
    1MOL   C134  134   5.615   2.654   5.561  0.2173 -0.3105 -0.0125
    1MOL   C135  135   5.630   2.525   5.623  0.6809  0.2181 -0.4675
    1MOL   C136  136   5.598   2.517   5.761  0.0971  0.2595 -0.0286
    1MOL   C137  137   5.557   2.634   5.828 -0.6126  0.7438  0.3097
    1MOL   C138  138   5.360   3.244   5.626 -0.2809 -0.5112 -0.5867
    1MOL   H139  139   5.529   3.219   5.749 -0.2854  0.4148 -0.3656
    1MOL   H140  140   5.495   3.048   5.894 -1.5326 -0.9512 -0.5885
    1MOL   H141  141   5.633   2.998   5.789 -0.5395 -0.3635 -2.1808
    1MOL   H142  142   5.560   2.860   5.571  3.5278 -0.3931 -0.9515
    1MOL   H143  143   5.646   2.675   5.460 -0.6897  2.1180  0.1755
    1MOL   H144  144   5.654   2.437   5.566 -0.3842 -0.0656 -0.5014
    1MOL   H145  145   5.608   2.423   5.812 -1.4078 -0.7499 -1.5399
    1MOL   H146  146   5.535   2.629   5.934 -0.1443  0.9521  0.4189
    1MOL   H147  147   5.395   3.322   5.558  0.6164  0.8407  1.3538
    1MOL   H148  148   5.306   3.171   5.567 -0.1462 -0.8979 -0.2378
    1MOL   C149  149   5.280   3.307   5.741 -0.2442  0.3327 -0.0033
    1MOL   O150  150   5.153   3.348   5.689 -0.3293 -0.4387 -0.3498
    1MOL   C151  151   5.156   3.475   5.625 -0.2880 -0.3437  0.9996
    1MOL   O152  152   5.105   3.575   5.703 -0.1746  0.8143 -0.1210
    1MOL   C153  153   4.968   3.578   5.733 -0.4556 -0.0529 -0.2990
    1MOL   C154  154   4.922   3.672   5.838  0.1484 -0.0107 -0.4216
    1MOL   C155  155   4.781   3.687   5.862 -0.2665  0.3652  0.3580
    1MOL   C156  156   4.692   3.592   5.808 -0.4449  0.0988  0.2049
    1MOL   C157  157   4.731   3.496   5.712  0.3406  0.4898 -0.5207
    1MOL   C158  158   4.871   3.489   5.675 -0.8634 -0.5270  0.8863
    1MOL   C159  159   5.238   3.221   5.860  0.0932 -0.4852 -0.5524
    1MOL   H160  160   5.324   3.396   5.786  0.3927 -1.1381  2.3684
    1MOL   H161  161   5.256   3.509   5.598  0.4786 -2.0846  1.5993
    1MOL   H162  162   5.099   3.474   5.532  0.8606 -0.7218  0.2932
    1MOL   H163  163   5.001   3.729   5.885 -0.5402  0.9761 -0.4373
    1MOL   H164  164   4.752   3.773   5.919 -0.7476  0.2176  0.3369
    1MOL   H165  165   4.591   3.609   5.842 -1.0313 -0.3349 -1.2975
    1MOL   H166  166   4.654   3.436   5.666 -1.9014  0.2558  3.2685
    1MOL   H167  167   4.888   3.411   5.602  0.0561 -1.5961  2.2181
    1MOL   H168  168   5.325   3.177   5.909  1.7414  1.9408 -1.1865
    1MOL   H169  169   5.174   3.135   5.842  1.5401 -2.4627  3.2654
    1MOL   C170  170   5.174   3.303   5.971 -0.1562  0.2066 -0.4645
    1MOL   O171  171   5.093   3.205   6.045 -0.2764 -0.2403 -0.1009
    1MOL   C172  172   4.961   3.204   6.002  0.5037 -0.5631  0.7737
    1MOL   O173  173   4.875   3.113   6.060  0.1997  0.3643 -0.5337
    1MOL   C174  174   4.746   3.113   6.014 -0.4282  0.4041  0.0141
    1MOL   C175  175   4.666   3.018   6.081  0.7154 -0.6748 -0.1501
    1MOL   C176  176   4.537   2.990   6.040 -0.0500  0.5036  0.7267
    1MOL   C177  177   4.481   3.058   5.935 -0.0222  0.0849 -0.6649
    1MOL   C178  178   4.557   3.151   5.866 -0.1428  0.7478 -0.5081
    1MOL   C179  179   4.686   3.190   5.907  0.4731  0.4237 -0.4117
    1MOL   C180  180   5.276   3.361   6.076 -0.1071  0.7675  0.4992
    1MOL   H181  181   5.113   3.383   5.931  1.7893  0.9177 -2.1054
    1MOL   H182  182   4.960   3.191   5.893  1.9861  0.5561  0.6110
    1MOL   H183  183   4.925   3.300   6.037 -3.0813 -0.8874 -1.6956
    1MOL   H184  184   4.711   2.952   6.154  3.3207  0.6835 -0.4876
    1MOL   H185  185   4.487   2.902   6.078 -2.0632  2.2192  2.2324
    1MOL   H186  186   4.387   3.037   5.887  0.4114 -0.0972 -1.4620
    1MOL   H187  187   4.512   3.200   5.781 -0.8070 -0.8316 -1.0887
    1MOL   H188  188   4.743   3.266   5.857  2.7813 -1.0516 -0.0734
    1MOL   H189  189   5.332   3.276   6.115  0.4202  1.6494  1.6713
    1MOL   H190  190   5.357   3.413   6.026  1.8681 -1.4450  1.3025
    1MOL   C191  191   5.219   3.441   6.185  0.0051  0.1424 -0.1438
    1MOL   O192  192   5.150   3.558   6.134 -0.0596  0.1858 -0.3924
    1MOL   C193  193   5.042   3.602   6.211 -0.1469 -0.1177  0.6979
    1MOL   O194  194   4.929   3.518   6.194  0.7355  0.2257  0.0687
    1MOL   C195  195   4.805   3.572   6.218 -0.4320 -0.3443 -0.1347
    1MOL   C196  196   4.779   3.693   6.287 -0.2520 -0.4300 -0.4854
    1MOL   C197  197   4.643   3.716   6.314  0.0095  0.1698 -0.9906
    1MOL   C198  198   4.535   3.637   6.274 -0.1013  0.8979 -0.0448
    1MOL   C199  199   4.564   3.523   6.203  0.9652  0.5713  0.4327
    1MOL   C200  200   4.698   3.492   6.175 -0.5453 -0.3175 -0.0274
    1MOL   C201  201   5.322   3.479   6.293 -0.1631 -0.3809 -0.0860
    1MOL   H202  202   5.138   3.385   6.232  1.6429 -2.1321  0.0306
    1MOL   H203  203   5.023   3.704   6.178  1.0883 -0.1167 -0.0457
    1MOL   H204  204   5.066   3.607   6.317 -0.8985  1.0207  0.8326
    1MOL   H205  205   4.857   3.759   6.323 -1.0931  0.8268 -0.9323
    1MOL   H206  206   4.618   3.796   6.382  0.9946 -1.0982  0.8916
    1MOL   H207  207   4.431   3.657   6.295 -0.0316  2.5164 -1.2076
    1MOL   H208  208   4.477   3.464   6.179  1.5542  0.6983 -2.1425
    1MOL   H209  209   4.706   3.393   6.133  0.0737 -0.2360 -0.1044
    1MOL   H210  210   5.268   3.507   6.384  0.4386 -0.1180  0.1913
    1MOL   H211  211   5.374   3.386   6.315 -2.7821 -2.9706 -4.2300
    1MOL   C212  212   5.415   3.599   6.272 -0.6300 -0.5579 -0.0563
    1MOL   O213  213   5.333   3.718   6.296  0.0070  0.8950  0.2857
    1MOL   C214  214   5.328   3.796   6.175 -0.9708 -0.1694  0.2546
    1MOL   O215  215   5.460   3.846   6.138 -0.2791  0.7375  0.1129
    1MOL   C216  216   5.472   3.925   6.027 -0.1798  0.3336  0.3309
    1MOL   C217  217   5.376   4.010   5.972 -1.2029 -0.0877 -0.4752
    1MOL   C218  218   5.405   4.084   5.858  0.4171  0.8114 -0.8338
    1MOL   C219  219   5.529   4.060   5.790  0.2642 -0.0231 -0.2143
    1MOL   C220  220   5.625   3.971   5.845  0.8290 -0.3749 -0.2503
    1MOL   C221  221   5.594   3.906   5.961  0.2711  0.1554 -0.3192
    1MOL   C222  222   5.534   3.594   6.375  0.4188  0.3488  0.3086
    1MOL   H223  223   5.441   3.599   6.166  0.5826  0.0748  0.2183
    1MOL   H224  224   5.249   3.870   6.186 -0.9221 -0.2793  1.3632
    1MOL   H225  225   5.310   3.734   6.087 -0.1942  1.2266 -0.9105
    1MOL   H226  226   5.279   4.022   6.018 -0.9226  1.6084 -0.2770
    1MOL   H227  227   5.336   4.146   5.803 -0.2193 -0.6689 -1.7523
    1MOL   H228  228   5.554   4.116   5.701  0.2683 -1.8971 -1.4340
    1MOL   H229  229   5.715   3.949   5.788  0.5613 -0.5908 -0.5924
    1MOL   H230  230   5.665   3.832   5.997  1.8627  1.1389 -1.3965
    1MOL   H231  231   5.586   3.689   6.367  0.7624  0.0535 -1.2767
    1MOL   H232  232   5.516   3.573   6.480  0.5683 -3.1180 -0.2894
    1MOL   C233  233   5.641   3.497   6.323 -0.0782  0.3191  0.3644
    1MOL   O234  234   5.691   3.551   6.204 -0.4209  0.2401 -0.5613
    1MOL   C235  235   5.778   3.466   6.124  0.2950 -0.0407 -0.0450
    1MOL   O236  236   5.914   3.474   6.162  0.1577  0.1173 -0.0902
    1MOL   C237  237   5.985   3.583   6.121 -0.1240  0.0177 -0.1759
    1MOL   C238  238   5.935   3.694   6.051  0.1455  0.4198 -0.3038
    1MOL   C239  239   6.020   3.798   6.014 -0.5410 -0.5546  0.8244
    1MOL   C240  240   6.148   3.797   6.058 -0.4362  0.3046  0.2252
    1MOL   C241  241   6.211   3.689   6.129 -0.0327 -0.6148  1.4663
    1MOL   C242  242   6.124   3.584   6.154  0.1829 -0.1746  0.0667
    1MOL   C243  243   5.748   3.466   6.429 -0.2251 -0.1432  0.4220
    1MOL   H244  244   5.597   3.402   6.290 -1.7554  0.9235  0.8006
    1MOL   H245  245   5.774   3.507   6.022  0.6967  1.9427  0.7018
    1MOL   H246  246   5.736   3.366   6.123 -0.1642  0.1529 -0.4137
    1MOL   H247  247   5.830   3.706   6.027  0.0897 -0.9898 -0.7955
    1MOL   H248  248   5.978   3.879   5.957 -0.1556 -0.2566  0.9607
    1MOL   H249  249   6.225   3.867   6.029  0.2720 -0.5939 -0.0818
    1MOL   H250  250   6.318   3.688   6.143 -0.1660 -1.8328  2.5222
    1MOL   H251  251   6.174   3.495   6.189  0.0493 -0.1940  0.2089
    1MOL   H252  252   5.839   3.421   6.390 -0.0883  0.6111 -0.1307
    1MOL   H253  253   5.775   3.562   6.472  1.4291 -0.3529 -0.0875
    1MOL   C254  254   5.708   3.363   6.545  0.3630 -0.6220  0.1965
    1MOL   O255  255   5.690   3.234   6.484  0.5663  0.5928 -0.0458
    1MOL   C256  256   5.590   3.163   6.545  0.2786 -1.1106 -0.3134
    1MOL   O257  257   5.468   3.195   6.499  0.1826 -0.1786  0.6100
    1MOL   C258  258   5.423   3.125   6.386 -0.7651  0.1053 -0.2959
    1MOL   C259  259   5.517   3.077   6.284  0.2385  0.0572 -0.9729
    1MOL   C260  260   5.476   3.005   6.170 -0.1649  0.6069 -0.7221
    1MOL   C261  261   5.334   2.994   6.157 -0.4949  0.0408 -0.6092
    1MOL   C262  262   5.241   3.041   6.250 -0.2278  0.1291 -0.0709
    1MOL   C263  263   5.288   3.106   6.367 -0.3992  0.3778 -0.1042
    1MOL   C264  264   5.811   3.364   6.656 -0.0840  0.1475  0.4495
    1MOL   H265  265   5.615   3.405   6.582  1.1012  2.5796 -1.4058
    1MOL   H266  266   5.586   3.179   6.653 -2.0458  0.3520 -0.5852
    1MOL   H267  267   5.586   3.055   6.532 -1.5270 -0.7080 -3.4556
    1MOL   H268  268   5.623   3.090   6.303  0.0985  0.8898 -0.7229
    1MOL   H269  269   5.544   2.969   6.094  0.1847  0.2468 -0.2435
    1MOL   H270  270   5.300   2.949   6.065 -1.0301 -0.1706 -0.3060
    1MOL   H271  271   5.135   3.024   6.234 -0.0729  0.3637 -1.4576
    1MOL   H272  272   5.221   3.155   6.436  0.7533 -0.1253  1.4012
    1MOL   H273  273   5.826   3.270   6.710  0.8978 -0.6194 -1.1126
    1MOL   H274  274   5.905   3.377   6.602 -0.2552  0.3164  0.1928
    1MOL   C275  275   5.796   3.479   6.759 -0.6616  0.0599  0.2540
    1MOL   O276  276   5.686   3.446   6.846  0.0042  0.0378 -0.4401
    1MOL   C277  277   5.581   3.540   6.868  0.5328 -0.1015 -0.0704
    1MOL   O278  278   5.477   3.521   6.778  0.2355 -0.3556 -0.0576
    1MOL   C279  279   5.412   3.396   6.788  0.4958  0.0517 -0.3643
    1MOL   C280  280   5.447   3.295   6.883  0.0808 -0.2366 -0.9420
    1MOL   C281  281   5.379   3.170   6.891  0.1263 -0.2345  0.3552
    1MOL   C282  282   5.275   3.151   6.800 -0.8710 -0.2500 -0.2424
    1MOL   C283  283   5.240   3.245   6.705  0.6107  0.6431 -0.1951
    1MOL   C284  284   5.309   3.367   6.695  0.3643  0.1916 -0.0681
    1MOL   C285  285   5.926   3.516   6.839 -0.4223  0.8983 -0.4438
    1MOL   H286  286   5.770   3.567   6.700  1.6854  0.1615 -0.6837
    1MOL   H287  287   5.610   3.645   6.861  3.4071 -0.7579  1.4587
    1MOL   H288  288   5.555   3.539   6.974 -0.4754  0.7750 -0.2995
    1MOL   H289  289   5.524   3.305   6.959 -0.5485  2.2312 -0.5938
    1MOL   H290  290   5.402   3.095   6.965 -1.8446 -1.1621  0.0468
    1MOL   H291  291   5.227   3.055   6.792  0.5552 -0.9820 -0.0956
    1MOL   H292  292   5.157   3.225   6.639 -1.3585 -0.2069  2.4293
    1MOL   H293  293   5.289   3.437   6.616  0.2657  0.6109  0.3276
    1MOL   H294  294   5.993   3.575   6.778  0.1977 -0.7253 -1.3587
    1MOL   H295  295   5.978   3.422   6.860 -1.1916  0.5040 -0.2652
    1MOL   C296  296   5.901   3.570   6.978  0.1583 -0.1369  0.0141
    1MOL   O297  297   6.005   3.534   7.070  0.4862  0.3619  0.1095
    1MOL   C298  298   5.999   3.411   7.138 -0.9074 -0.4144 -0.2304
    1MOL   O299  299   6.059   3.314   7.056 -0.2262 -0.6728 -0.5169
    1MOL   C300  300   6.164   3.236   7.103  0.2820 -0.0262 -0.1168
    1MOL   C301  301   6.267   3.210   7.013 -0.0597  0.1295  0.2225
    1MOL   C302  302   6.374   3.132   7.055  0.2750  0.4085 -0.3041
    1MOL   C303  303   6.382   3.084   7.188  0.2911 -0.2965 -0.6700
    1MOL   C304  304   6.286   3.118   7.287 -0.4678 -0.1426  0.3648
    1MOL   C305  305   6.174   3.194   7.238 -0.3789 -0.1541  0.3417
    1MOL   C306  306   5.892   3.724   6.982 -0.2422  0.8664 -0.2009
    1MOL   H307  307   5.810   3.521   7.014 -0.1753 -0.8277 -1.6942
    1MOL   H308  308   5.899   3.387   7.174 -1.7652  1.1869 -1.5210
    1MOL   H309  309   6.067   3.431   7.221 -0.0398  0.6570 -1.1917
    1MOL   H310  310   6.276   3.254   6.915 -0.3630 -1.1982 -0.4165
    1MOL   H311  311   6.457   3.103   6.992  0.7850 -0.8964  0.9647
    1MOL   H312  312   6.470   3.024   7.206  0.2554 -0.0317  0.3614
    1MOL   H313  313   6.286   3.085   7.390 -0.6800 -0.1560  0.3612
    1MOL   H314  314   6.097   3.214   7.311 -3.1815  0.1782 -2.6076
    1MOL   H315  315   5.828   3.773   6.909 -0.3946  0.0716 -0.6077
    1MOL   H316  316   5.991   3.757   6.951 -0.2666  0.9834 -0.1562
    1MOL   C317  317   5.847   3.785   7.111  0.1782 -0.6902 -0.6008
    1MOL   O318  318   5.704   3.800   7.105 -0.3994  1.0580  0.6509
    1MOL   C319  319   5.628   3.764   7.217 -0.2831 -0.1294  0.4585
    1MOL   O320  320   5.618   3.630   7.239  0.6886 -0.0306 -0.6435
    1MOL   C321  321   5.508   3.583   7.298 -0.1756 -0.0139  0.9387
    1MOL   C322  322   5.470   3.457   7.244  0.5671 -0.8302  0.1411
    1MOL   C323  323   5.358   3.390   7.296  0.0925  0.7245 -0.6215
    1MOL   C324  324   5.281   3.446   7.401  0.1594  0.0620 -0.1069
    1MOL   C325  325   5.326   3.567   7.458  0.2824 -0.1160  0.3278
    1MOL   C326  326   5.436   3.639   7.406  0.1654  0.4071  0.1895
    1MOL   C327  327   5.911   3.923   7.143  0.1217 -0.1870  0.3113
    1MOL   H328  328   5.873   3.724   7.198  0.7373 -0.1714 -0.3975
    1MOL   H329  329   5.525   3.799   7.211 -0.9872 -1.7618  2.5404
    1MOL   H330  330   5.669   3.805   7.309 -3.0890 -0.1549  1.7566
    1MOL   H331  331   5.521   3.408   7.163 -0.8523 -0.2820 -1.1077
    1MOL   H332  332   5.323   3.304   7.240 -1.9389  1.3303 -0.3073
    1MOL   H333  333   5.196   3.400   7.450  0.9787 -0.2251  1.0608
    1MOL   H334  334   5.273   3.615   7.539 -0.9479 -1.2244  0.2035
    1MOL   H335  335   5.469   3.734   7.444  0.1330  0.9008 -0.9877
    1MOL   H336  336   5.930   3.974   7.048  0.1256  0.3415  0.5932
    1MOL   H337  337   5.831   3.982   7.189 -0.9178 -1.3044 -0.0182
    1MOL   C338  338   6.030   3.923   7.248 -0.1825 -0.4868  0.4806
    1MOL   O339  339   6.155   3.907   7.184  0.2256  0.0614  0.3134
    1MOL   C340  340   6.224   3.785   7.203 -0.9241  0.5643 -0.9261
    1MOL   O341  341   6.272   3.777   7.335 -0.3633  0.2705  0.1307
    1MOL   C342  342   6.353   3.675   7.373 -0.0687  0.0998 -0.0045
    1MOL   C343  343   6.353   3.552   7.308 -0.4400  0.1501 -0.2604
    1MOL   C344  344   6.447   3.448   7.341  1.1454  0.5174  0.1916
    1MOL   C345  345   6.539   3.475   7.449  0.0795  0.8358  0.1063
    1MOL   C346  346   6.531   3.597   7.515 -0.3881  0.3468  0.1031
    1MOL   C347  347   6.439   3.692   7.478  0.0171 -0.9430  0.6761
    1MOL   C348  348   6.045   4.063   7.326 -0.4300  0.2856  0.4838
    1MOL   H349  349   6.009   3.854   7.331 -2.8643  0.1773  0.4012
    1MOL   H350  350   6.309   3.770   7.136 -1.5334  1.3768 -1.8902
    1MOL   H351  351   6.154   3.708   7.170  0.2034 -0.6531 -0.5483
    1MOL   H352  352   6.282   3.527   7.230 -1.0585 -1.2443  0.7318
    1MOL   H353  353   6.448   3.354   7.288  2.6001 -0.0413  1.1843
    1MOL   H354  354   6.609   3.403   7.489  1.7808  2.6143  0.4260
    1MOL   H355  355   6.601   3.608   7.596 -0.2209  1.1882 -0.1520
    1MOL   H356  356   6.423   3.775   7.545 -0.4256  1.8597 -2.7868
    1MOL   H357  357   6.024   4.131   7.244  0.4308 -1.6371 -1.3732
    1MOL   H358  358   6.150   4.075   7.355  0.3229 -1.3769 -1.4026
    1MOL   C359  359   5.953   4.094   7.444  0.2438 -0.5307 -0.0862
    1MOL   O360  360   5.974   4.229   7.476 -0.1866  0.0404  0.0781
    1MOL   C361  361   5.854   4.290   7.518 -0.0472 -0.0240  0.1289
    1MOL   O362  362   5.868   4.426   7.539  0.3343 -0.2132 -0.5167
    1MOL   C363  363   5.909   4.478   7.660  0.2199 -0.4007  0.1456
    1MOL   C364  364   6.004   4.418   7.744  0.3607 -0.8619 -0.2386
    1MOL   C365  365   6.032   4.472   7.871 -0.1143  0.2977 -0.6524
    1MOL   C366  366   5.980   4.596   7.906  0.1870 -0.5275  0.3310
    1MOL   C367  367   5.886   4.655   7.822 -0.1880  0.4347 -0.5314
    1MOL   C368  368   5.840   4.594   7.701  0.2337  0.3890 -0.1838
    1MOL   C369  369   5.992   3.998   7.563  1.2190 -0.4227  0.1235
    1MOL   H370  370   5.857   4.063   7.404  1.2577 -0.4571 -2.7042
    1MOL   H371  371   5.824   4.254   7.616  0.2741  1.5697  0.8318
    1MOL   H372  372   5.776   4.270   7.445 -0.8521  0.4858  0.8309
    1MOL   H373  373   6.037   4.322   7.706  1.4815 -1.1872  1.5049
    1MOL   H374  374   6.098   4.410   7.929 -0.4651  0.8829  0.3809
    1MOL   H375  375   6.008   4.645   0.022  0.8837 -0.2194 -0.0446
    1MOL   H376  376   5.857   4.752   7.860  0.8902 -0.7049  3.3926
    1MOL   H377  377   5.773   4.648   7.635 -1.1033 -0.1125  0.7296
    1MOL   H378  378   6.005   4.062   7.651 -1.6871 -0.2738  0.4887
    1MOL   H379  379   6.088   3.947   7.556  1.2160 -0.4295  0.1332
    1MOL   C380  380   5.875   3.892   7.584 -0.4962  0.2370 -0.7943
    1MOL   O381  381   5.784   3.970   7.661  0.7410 -0.3189  0.2385
    1MOL   C382  382   5.654   3.944   7.623  0.0878  0.5125 -0.4256
    1MOL   O383  383   5.618   4.008   7.507  0.2464  0.0109 -0.3459
    1MOL   C384  384   5.482   3.999   7.482  0.0665 -0.5798  0.3061
    1MOL   C385  385   5.434   4.041   7.353  0.2042  0.2552  0.7896
    1MOL   C386  386   5.293   4.024   7.323 -0.5362 -0.5098 -0.3494
    1MOL   C387  387   5.203   3.962   7.414 -0.4878 -0.1693  0.3469
    1MOL   C388  388   5.250   3.919   7.537 -0.1593  0.5586  0.0684
    1MOL   C389  389   5.383   3.935   7.572 -0.4256 -0.0602 -0.1132
    1MOL   C390  390   5.920   3.783   7.679  0.2286 -0.3715  0.6194
    1MOL   H391  391   5.845   3.842   7.492  1.8342 -2.3793 -0.1737
    1MOL   H392  392   5.626   3.839   7.627  0.2185  0.5179  0.8918
    1MOL   H393  393   5.597   3.988   7.705  1.8504  1.0959  0.5234
    1MOL   H394  394   5.503   4.086   7.284 -2.2845  1.0508 -1.2398
    1MOL   H395  395   5.248   4.051   7.229 -1.0050  0.8299  0.2543
    1MOL   H396  396   5.102   3.939   7.384 -0.2542  0.1643 -0.7002
    1MOL   H397  397   5.182   3.865   7.601  0.5534  0.0437  0.4074
    1MOL   H398  398   5.417   3.896   7.667 -0.6196 -0.0293 -0.0305
    1MOL   H399  399   5.833   3.728   7.713 -0.1726 -1.1291 -1.5520
    1MOL   H400  400   5.969   3.829   7.764  0.7262 -0.0749  0.1811
    1MOL   C401  401   6.014   3.672   7.626 -0.1737  0.5992 -0.4938
    1MOL   O402  402   6.026   3.588   7.738 -0.2277  0.0255 -0.6393
    1MOL   C403  403   6.155   3.529   7.747  0.0601 -0.0477 -0.8282
    1MOL   O404  404   6.242   3.615   7.808  0.0793 -0.1098 -0.1827
    1MOL   C405  405   6.379   3.576   7.817  0.4377  0.3688 -0.3077
    1MOL   C406  406   6.425   3.445   7.793 -0.1478 -0.2787 -0.1761
    1MOL   C407  407   6.560   3.411   7.809  0.7513 -0.0533  0.3583
    1MOL   C408  408   6.643   3.499   7.874 -0.0941  0.4316  0.6613
    1MOL   C409  409   6.602   3.630   7.897  0.0705  0.2573 -0.0843
    1MOL   C410  410   6.469   3.667   7.874  0.7004 -0.4275 -0.1952
    1MOL   C411  411   5.945   3.573   7.530 -0.4216 -0.1104  0.3405
    1MOL   H412  412   6.109   3.711   7.590  1.5109 -1.1618  1.8677
    1MOL   H413  413   6.190   3.502   7.648 -0.7894 -0.9764 -0.8860
    1MOL   H414  414   6.147   3.434   7.800  0.5021 -0.1331 -0.9118
    1MOL   H415  415   6.363   3.365   7.755  0.4738 -1.0472  0.4109
    1MOL   H416  416   6.599   3.312   7.789 -0.0394 -0.4487  0.7402
    1MOL   H417  417   6.736   3.453   7.904  0.1073  0.3125 -0.1174
    1MOL   H418  418   6.674   3.704   7.931  3.0600 -2.1245 -0.9867
    1MOL   H419  419   6.445   3.768   7.902  0.1643 -0.7128  0.3844
    1MOL   H420  420   5.902   3.625   7.444  2.0845 -0.0329 -0.9063
    1MOL   H421  421   5.870   3.517   7.585 -0.3567 -1.4179 -0.8772
    1MOL   H422  422   6.009   3.492   7.495 -0.8382  0.1508 -1.0434
    2MOL     C1  423   5.768   7.263   6.257  0.4143  0.1710 -0.4154
    2MOL     O2  424   5.875   7.336   6.316  0.4510 -0.5722  0.2544
    2MOL     C3  425   5.996   7.299   6.262 -0.4194  0.9734 -0.1210
    2MOL     O4  426   6.032   7.173   6.302  0.6795  0.4897  0.1516
    2MOL     C5  427   6.078   7.150   6.430  0.0537 -0.3886  0.5603
    2MOL     C6  428   6.086   7.245   6.536 -0.1647 -0.3309  0.9725
    2MOL     C7  429   6.133   7.204   6.661  0.3156 -0.6890 -0.2896
    2MOL     C8  430   6.169   7.071   6.680 -0.7113 -0.2157 -0.9176
    2MOL     C9  431   6.161   6.980   6.583  0.3551 -0.0008  0.8967
    2MOL    C10  432   6.117   7.019   6.452 -1.0436  0.1430 -0.3094
    2MOL    C11  433   5.627   7.318   6.295 -0.9164 -0.1687  0.6083
    2MOL    H12  434   5.771   7.271   6.148  3.1819  0.7652 -0.3172
    2MOL    H13  435   5.980   7.293   6.154 -0.9312 -0.4246  0.0249
    2MOL    H14  436   6.082   7.362   6.287  0.5194 -1.0476  1.8410
    2MOL    H15  437   6.047   7.345   6.527 -4.1457 -1.9230 -0.5980
    2MOL    H16  438   6.145   7.277   6.740  0.5411  0.3199 -1.2420
    2MOL    H17  439   6.223   7.056   6.773  0.7586 -0.5305 -1.8087
    2MOL    H18  440   6.184   6.879   6.613 -0.4311 -0.7734 -1.0196
    2MOL    H19  441   6.123   6.943   6.375 -0.6132  0.6390 -0.7684
    2MOL    H20  442   5.635   7.426   6.298  0.8182 -0.2253 -1.3008
    2MOL    H21  443   5.612   7.286   6.398  1.5325 -0.4986  0.8932
    2MOL    H22  444   5.785   7.156   6.273  0.8337  0.5932  2.0714
    2MOL    C23  445   5.517   7.262   6.200 -0.2966 -0.4439 -1.2171
    2MOL    O24  446   5.532   7.338   6.082 -0.2308 -0.1503  0.6809
    2MOL    C25  447   5.514   7.280   5.956  0.2984 -0.6749  0.7207
    2MOL    O26  448   5.620   7.205   5.915  0.0545 -0.0243 -0.5085
    2MOL    C27  449   5.741   7.275   5.891  0.2335 -0.0214 -0.3231
    2MOL    C28  450   5.751   7.417   5.894  0.0989  0.3040  0.5307
    2MOL    C29  451   5.879   7.477   5.863  0.2354  0.0874 -0.6537
    2MOL    C30  452   5.990   7.396   5.830 -0.5430 -0.3717  0.9801
    2MOL    C31  453   5.979   7.253   5.826  0.0195  0.3042  0.1516
    2MOL    C32  454   5.851   7.192   5.853  0.6256  0.9956  0.4558
    2MOL    C33  455   5.379   7.284   6.256  0.9479 -1.1411 -0.5376
    2MOL    H34  456   5.524   7.155   6.177 -2.6889 -0.4679 -1.9511
    2MOL    H35  457   5.499   7.364   5.889  0.2974 -0.2253  1.2798
    2MOL    H36  458   5.424   7.218   5.960  2.9777 -4.8157  0.4026
    2MOL    H37  459   5.673   7.489   5.915  1.2845  1.0232  2.5155
    2MOL    H38  460   5.872   7.585   5.864  2.3791  0.2400  0.1766
    2MOL    H39  461   6.079   7.436   5.783 -2.3885 -0.5197 -2.8859
    2MOL    H40  462   6.053   7.179   5.799  0.3985  1.1809 -1.2513
    2MOL    H41  463   5.832   7.085   5.857 -0.5483  1.1495 -0.6953
    2MOL    H42  464   5.323   7.318   6.169  0.7821 -2.1058 -0.8129
    2MOL    H43  465   5.384   7.359   6.334 -0.5641 -1.3502 -0.2343
    2MOL    C44  466   5.306   7.160   6.310  1.3084 -0.6237  0.0495
    2MOL    O45  467   5.172   7.216   6.338 -0.3904  0.1810  0.1884
    2MOL    C46  468   5.073   7.146   6.286 -0.3531  0.2210  1.1650
    2MOL    O47  469   5.055   7.166   6.148 -0.2478  0.2205  0.4593
    2MOL    C48  470   4.984   7.276   6.101  0.0273  0.9557  0.1530
    2MOL    C49  471   4.945   7.392   6.177 -0.7651 -0.2932  0.1537
    2MOL    C50  472   4.860   7.487   6.117 -0.0046  0.6924  0.5097
    2MOL    C51  473   4.810   7.459   5.989  0.2043  0.2776  0.0561
    2MOL    C52  474   4.844   7.348   5.916  0.5346  0.1000  0.0825
    2MOL    C53  475   4.934   7.261   5.970  0.2580 -0.0459 -0.0143
    2MOL    C54  476   5.372   7.094   6.443 -0.0480 -0.1309 -0.0477
    2MOL    H55  477   5.289   7.086   6.231 -1.5885  0.6967 -0.6414
    2MOL    H56  478   4.989   7.178   6.348 -0.4416  1.8472  0.2406
    2MOL    H57  479   5.076   7.042   6.318 -2.5774  0.3139  1.7359
    2MOL    H58  480   4.984   7.407   6.276  0.0399 -2.3127  0.1699
    2MOL    H59  481   4.841   7.578   6.173 -3.1835  0.5609 -0.2775
    2MOL    H60  482   4.753   7.539   5.943  0.3063 -0.0971 -0.7234
    2MOL    H61  483   4.804   7.330   5.817  0.2784 -0.2312  0.2432
    2MOL    H62  484   4.971   7.176   5.915 -1.6667 -1.4045  0.7580
    2MOL    H63  485   5.480   7.084   6.431  0.2546  1.3968  1.2943
    2MOL    H64  486   5.349   7.160   6.526 -0.3190  0.2256 -0.4039
    2MOL    C65  487   5.324   6.951   6.476 -0.4614 -0.4053  0.2086
    2MOL    O66  488   5.385   6.874   6.366  0.1531 -0.7612 -0.4903
    2MOL    C67  489   5.304   6.770   6.318  0.5512 -0.9928  1.0354
    2MOL    O68  490   5.210   6.804   6.224 -0.5749  0.1905  0.3428
    2MOL    C69  491   5.253   6.839   6.097  0.1936 -0.1029 -0.0713
    2MOL    C70  492   5.158   6.831   5.996 -0.2847 -0.1435  0.6522
    2MOL    C71  493   5.178   6.884   5.869 -0.3804 -0.4641  0.2578
    2MOL    C72  494   5.304   6.946   5.836 -0.2433 -1.2636 -0.2231
    2MOL    C73  495   5.406   6.948   5.937  0.0898 -1.0303 -0.2797
    2MOL    C74  496   5.381   6.894   6.067 -0.7297 -0.5025  0.0560
    2MOL    C75  497   5.382   6.898   6.610 -0.2029 -0.5219 -0.4677
    2MOL    H76  498   5.216   6.938   6.483 -0.3995 -2.4530 -1.9764
    2MOL    H77  499   5.255   6.713   6.397 -0.2110 -2.1585 -0.2540
    2MOL    H78  500   5.372   6.698   6.273  0.3072 -0.7515  0.2579
    2MOL    H79  501   5.061   6.792   6.023  0.2281 -2.5539 -0.8529
    2MOL    H80  502   5.095   6.885   5.800  1.3834  0.2931 -1.9434
    2MOL    H81  503   5.328   6.988   5.740  1.6594 -0.1039  0.7197
    2MOL    H82  504   5.499   6.998   5.915  0.2362 -1.4663 -0.6410
    2MOL    H83  505   5.457   6.892   6.144 -1.0938  0.3940  0.4408
    2MOL    H84  506   5.345   6.795   6.619 -2.5263  0.1101 -2.3801
    2MOL    H85  507   5.490   6.902   6.597  0.0076 -1.5095  0.8697
    2MOL    C86  508   5.335   6.970   6.741 -0.8653 -0.7540  0.5600
    2MOL    O87  509   5.193   6.961   6.730 -0.6941  0.1136 -0.8026
    2MOL    C88  510   5.119   7.069   6.771 -0.7739 -0.3437 -0.1685
    2MOL    O89  511   5.105   7.174   6.676 -0.1414  0.3396  0.4812
    2MOL    C90  512   5.002   7.257   6.691 -0.5315 -0.0198  0.4457
    2MOL    C91  513   4.991   7.355   6.593 -0.0152 -0.2833  1.0888
    2MOL    C92  514   4.881   7.442   6.591  0.4053 -0.0951  0.1954
    2MOL    C93  515   4.786   7.438   6.695  0.1707  0.0703 -0.7922
    2MOL    C94  516   4.797   7.343   6.805 -0.2913 -0.2153  0.5543
    2MOL    C95  517   4.909   7.258   6.806  0.3966 -0.3004  0.2269
    2MOL    C96  518   5.380   6.893   6.864 -0.1931 -0.4258 -0.2771
    2MOL    H97  519   5.373   7.072   6.736  0.2320 -1.1620  0.4360
    2MOL    H98  520   5.144   7.110   6.869 -0.8407  0.5407 -0.5268
    2MOL    H99  521   5.023   7.017   6.778 -1.8714  1.7273  0.4790
    2MOL   H100  522   5.064   7.364   6.513 -1.6863  1.0968 -0.3352
    2MOL   H101  523   4.854   7.515   6.516 -0.4347  0.8404  1.3800
    2MOL   H102  524   4.708   7.512   6.698  1.0888  1.0029  0.5314
    2MOL   H103  525   4.727   7.354   6.886 -1.5102  1.8681 -0.7193
    2MOL   H104  526   4.924   7.199   6.894 -0.5988  0.2146  0.7486
    2MOL   H105  527   5.339   6.793   6.876  0.8918 -0.6821  1.4110
    2MOL   H106  528   5.486   6.873   6.856  0.3269  2.7258 -1.8962
    2MOL   C107  529   5.362   6.957   7.009  0.0076  0.4155 -0.4219
    2MOL   O108  530   5.399   6.851   7.095  0.3303  0.5555 -0.1388
    2MOL   C109  531   5.301   6.804   7.179 -0.1158 -0.2489 -0.1871
    2MOL   O110  532   5.321   6.665   7.201 -0.4538 -0.0776  0.5273
    2MOL   C111  533   5.425   6.635   7.290 -0.0284 -0.3596 -0.0390
    2MOL   C112  534   5.523   6.727   7.328  0.4907  0.1169  0.2142
    2MOL   C113  535   5.642   6.686   7.407  0.9650 -0.1739  1.1236
    2MOL   C114  536   5.635   6.552   7.468 -0.1551 -0.9182  0.2524
    2MOL   C115  537   5.533   6.466   7.438  0.1917 -0.0572  0.3360
    2MOL   C116  538   5.436   6.508   7.341  0.2529 -0.0344 -0.7269
    2MOL   C117  539   5.456   7.074   7.045  0.6017 -0.0190 -0.0014
    2MOL   H118  540   5.261   6.992   7.032  0.1625  0.3398  0.3879
    2MOL   H119  541   5.205   6.814   7.129  0.7984 -0.2617 -1.9855
    2MOL   H120  542   5.294   6.863   7.271  0.9299 -0.3283 -0.0511
    2MOL   H121  543   5.517   6.832   7.301 -1.3422  0.4173  1.7243
    2MOL   H122  544   5.711   6.764   7.436  0.9933 -0.0274  0.6648
    2MOL   H123  545   5.712   6.537   7.542  1.2131 -2.1152 -1.3727
    2MOL   H124  546   5.529   6.365   7.475 -0.8559 -0.2687 -0.3066
    2MOL   H125  547   5.364   6.437   7.305 -0.4936  1.1731 -1.6278
    2MOL   H126  548   5.469   7.128   6.951 -1.6669  2.4033  1.0179
    2MOL   H127  549   5.550   7.026   7.072 -0.4034  0.3053  4.4262
    2MOL   C128  550   5.397   7.175   7.145 -0.3147 -0.3400  0.2658
    2MOL   O129  551   5.289   7.244   7.069  0.1053 -0.1804 -0.0381
    2MOL   C130  552   5.185   7.278   7.149  0.5292 -0.4306  0.3635
    2MOL   O131  553   5.092   7.179   7.174  0.4682  0.0204 -0.2114
    2MOL   C132  554   4.985   7.210   7.255 -0.2612  0.4890 -0.5398
    2MOL   C133  555   4.881   7.110   7.258  0.5732  0.2423 -0.9307
    2MOL   C134  556   4.763   7.139   7.334  0.1221  0.2809  0.1939
    2MOL   C135  557   4.744   7.262   7.398  0.5570  0.3680  0.8187
    2MOL   C136  558   4.845   7.355   7.383  0.0699 -0.4824 -0.5533
    2MOL   C137  559   4.964   7.333   7.324 -0.4413 -0.0935  1.0838
    2MOL   C138  560   5.514   7.268   7.181 -0.7165 -0.5694  0.0043
    2MOL   H139  561   5.383   7.112   7.232  2.4929  0.4179  1.3120
    2MOL   H140  562   5.137   7.360   7.095  1.3062  0.1666  0.5678
    2MOL   H141  563   5.224   7.315   7.244  0.1417 -0.1978  0.4331
    2MOL   H142  564   4.898   7.018   7.204  1.0200  0.6325 -1.4678
    2MOL   H143  565   4.686   7.063   7.341  0.1071  0.3028  0.2790
    2MOL   H144  566   4.648   7.282   7.443  0.6363  0.0918  1.1129
    2MOL   H145  567   4.821   7.451   7.426 -0.7473 -0.5176 -0.9206
    2MOL   H146  568   5.041   7.407   7.308  0.2137 -1.5054 -2.8024
    2MOL   H147  569   5.603   7.210   7.201  0.8404  0.5950 -3.1930
    2MOL   H148  570   5.539   7.322   7.090 -2.2794 -1.6644 -1.1080
    2MOL   C149  571   5.495   7.375   7.289 -0.9794  0.3413 -0.1248
    2MOL   O150  572   5.487   7.305   7.413 -0.1241 -0.1509  0.4817
    2MOL   C151  573   5.399   7.357   7.509  0.0660  0.6129  0.4782
    2MOL   O152  574   5.275   7.297   7.511  0.3563  0.4365  0.1416
    2MOL   C153  575   5.263   7.161   7.531  0.3562  0.0162 -0.1911
    2MOL   C154  576   5.136   7.105   7.537 -0.0037  0.2537 -0.3186
    2MOL   C155  577   5.113   6.970   7.570  0.4668  0.2137  0.2919
    2MOL   C156  578   5.218   6.884   7.603 -0.3467 -0.3162  0.6021
    2MOL   C157  579   5.350   6.937   7.595 -0.4514 -0.7543  0.5394
    2MOL   C158  580   5.372   7.076   7.559  0.3139  0.0799  0.7973
    2MOL   C159  581   5.616   7.468   7.316  0.6944  0.8961 -0.6911
    2MOL   H160  582   5.405   7.432   7.267 -2.4034 -1.3893  1.1018
    2MOL   H161  583   5.446   7.337   7.605 -1.2716  2.0416  1.4483
    2MOL   H162  584   5.380   7.464   7.499 -1.7906  0.2308 -0.3151
    2MOL   H163  585   5.049   7.163   7.509 -0.7108 -0.6261  0.0158
    2MOL   H164  586   5.011   6.936   7.580  0.7502 -0.2890  1.5512
    2MOL   H165  587   5.201   6.780   7.624 -2.4103 -0.0672  0.3067
    2MOL   H166  588   5.437   6.875   7.612 -0.9897 -1.5812  0.2583
    2MOL   H167  589   5.469   7.121   7.553  0.8407 -1.1695 -0.4590
    2MOL   H168  590   5.709   7.415   7.336  0.1106  0.5965  1.2865
    2MOL   H169  591   5.596   7.522   7.408 -0.5572 -1.0993  0.2517
    2MOL   C170  592   5.639   7.573   7.212 -1.0654 -0.8257  0.3589
    2MOL   O171  593   5.556   7.684   7.230  0.6747  0.0700 -0.3073
    2MOL   C172  594   5.474   7.721   7.115 -0.7510 -0.2443 -0.4207
    2MOL   O173  595   5.400   7.618   7.060  0.0997 -0.7372 -0.3471
    2MOL   C174  596   5.314   7.647   6.955  0.2437  0.1980  0.2732
    2MOL   C175  597   5.292   7.548   6.857 -0.4377 -0.8021 -0.7635
    2MOL   C176  598   5.216   7.575   6.746  0.0686  0.2056  0.3551
    2MOL   C177  599   5.162   7.698   6.725 -0.1486 -0.4434 -0.9601
    2MOL   C178  600   5.183   7.801   6.818 -0.5385 -0.7058 -0.4032
    2MOL   C179  601   5.261   7.773   6.933  0.6676 -0.7987  0.1596
    2MOL   C180  602   5.794   7.612   7.204  0.6392 -0.5493 -0.1108
    2MOL   H181  603   5.618   7.536   7.111  3.2662 -0.8403 -0.6390
    2MOL   H182  604   5.537   7.768   7.039  0.4165 -1.7000 -0.3595
    2MOL   H183  605   5.410   7.798   7.159  0.1865  0.4839 -0.3138
    2MOL   H184  606   5.330   7.449   6.877 -0.2702 -0.7642 -0.8961
    2MOL   H185  607   5.194   7.504   6.668 -1.5542  0.3068  0.7098
    2MOL   H186  608   5.105   7.719   6.636 -0.4849  1.5317 -0.3186
    2MOL   H187  609   5.139   7.899   6.808 -2.5480 -1.0643  4.0159
    2MOL   H188  610   5.283   7.856   6.998 -0.1535 -0.2586 -0.2358
    2MOL   H189  611   5.829   7.636   7.305 -3.7223  2.9570  0.7296
    2MOL   H190  612   5.845   7.517   7.188  0.8495 -0.6500  1.1330
    2MOL   C191  613   5.836   7.707   7.090 -0.8184  0.2251  0.4765
    2MOL   O192  614   5.975   7.671   7.070  0.3852 -0.4346 -0.2046
    2MOL   C193  615   5.989   7.603   6.946  0.0085  0.2276 -0.3061
    2MOL   O194  616   5.967   7.466   6.963 -0.2595 -0.1191 -0.1173
    2MOL   C195  617   5.879   7.395   6.885  0.2333 -0.5422  0.1412
    2MOL   C196  618   5.870   7.433   6.750 -0.0216 -0.6936  0.0557
    2MOL   C197  619   5.789   7.357   6.662  0.0675  0.1999 -0.1771
    2MOL   C198  620   5.719   7.244   6.713 -0.3761  0.1957  0.4134
    2MOL   C199  621   5.739   7.207   6.849  0.7400  0.2516  0.0200
    2MOL   C200  622   5.817   7.283   6.944  0.5560 -0.2786 -0.1456
    2MOL   C201  623   5.834   7.857   7.139  0.0552 -0.4450 -0.4047
    2MOL   H202  624   5.764   7.685   7.012 -0.5048 -0.4010  0.3645
    2MOL   H203  625   6.094   7.628   6.929  0.2304  0.9716  1.9184
    2MOL   H204  626   5.930   7.653   6.869 -2.0570  0.4449  1.3833
    2MOL   H205  627   5.928   7.512   6.704  1.0423 -1.8056 -0.5506
    2MOL   H206  628   5.794   7.369   6.555  0.1894 -1.4117 -0.3578
    2MOL   H207  629   5.657   7.181   6.651 -0.8824 -0.4458  1.5537
    2MOL   H208  630   5.689   7.117   6.881 -0.0117  0.7217  0.1914
    2MOL   H209  631   5.817   7.247   7.046 -0.2632  0.1437  0.0044
    2MOL   H210  632   5.738   7.885   7.181  0.9030 -0.2483  1.4494
    2MOL   H211  633   5.912   7.854   7.215  0.6084  0.2510 -0.9308
    2MOL   C212  634   5.869   7.961   7.028 -0.0315 -0.2683 -0.8306
    2MOL   O213  635   5.745   0.016   6.957 -0.4326  0.4845 -0.0436
    2MOL   C214  636   5.744   7.973   6.821 -0.2444 -0.4785 -0.1338
    2MOL   O215  637   5.728   7.834   6.811 -0.4054  0.3631  0.3886
    2MOL   C216  638   5.700   7.789   6.681 -0.0024  0.7491 -0.8516
    2MOL   C217  639   5.640   7.659   6.671  0.7290 -0.7599 -0.3290
    2MOL   C218  640   5.621   7.614   6.539  0.8428 -0.0202  0.0832
    2MOL   C219  641   5.660   7.691   6.423 -0.0051  0.6015  0.1203
    2MOL   C220  642   5.729   7.805   6.439  0.2590  0.3612 -0.2088
    2MOL   C221  643   5.747   7.852   6.569  0.0773 -0.7718 -0.8720
    2MOL   C222  644   5.937   0.112   7.083  0.2089 -0.0951 -0.1274
    2MOL   H223  645   5.940   7.915   6.959 -0.3513 -0.3517 -1.1081
    2MOL   H224  646   5.839   0.037   6.785 -0.5443  1.6063  1.2465
    2MOL   H225  647   5.658   0.048   6.778 -0.8853 -0.7312  0.8390
    2MOL   H226  648   5.622   7.600   6.760 -0.6902  0.1644  0.0121
    2MOL   H227  649   5.591   7.514   6.512  2.0245 -0.4130  0.1698
    2MOL   H228  650   5.641   7.652   6.324  1.4807 -0.0136  0.0786
    2MOL   H229  651   5.764   7.855   6.349  0.3450  1.0851  0.2202
    2MOL   H230  652   5.794   7.949   6.574  0.4255 -0.8375 -2.5608
    2MOL   H231  653   5.882   0.156   7.167  2.0790 -0.3145  1.2291
    2MOL   H232  654   6.036   0.084   7.118  0.3522 -1.2035 -1.4069
    2MOL   C233  655   5.973   0.224   6.984 -0.0142  0.0798 -0.0959
    2MOL   O234  656   6.067   0.160   6.896 -0.3559 -0.0843 -0.3867
    2MOL   C235  657   6.113   0.235   6.791  0.9132  0.9103 -0.3217
    2MOL   O236  658   6.023   0.226   6.682  0.1117 -0.5051 -0.0960
    2MOL   C237  659   6.043   0.121   6.593 -0.3458  0.7827 -0.6151
    2MOL   C238  660   6.015   0.141   6.460 -0.1730 -0.1923 -0.1097
    2MOL   C239  661   6.024   0.031   6.365 -0.0651 -0.4482 -0.3090
    2MOL   C240  662   6.068   7.881   6.414  0.1172  0.0380 -0.1566
    2MOL   C241  663   6.109   7.869   6.547 -0.0349  0.6534 -0.7051
    2MOL   C242  664   6.091   7.970   6.636 -0.2238  0.2971  0.1998
    2MOL   C243  665   5.856   0.300   6.910  0.3126  0.1337  0.2274
    2MOL   H244  666   6.041   0.291   7.037 -0.7968 -0.0675  1.1170
    2MOL   H245  667   6.216   0.209   6.766  0.1179 -3.0456  0.1415
    2MOL   H246  668   6.113   0.340   6.819 -0.2151  0.6234  0.8113
    2MOL   H247  669   5.961   0.229   6.426 -2.5913 -1.0570  1.4221
    2MOL   H248  670   6.001   0.041   6.260  3.2635  2.4774 -0.8576
    2MOL   H249  671   6.081   7.794   6.351  1.0440 -1.2747  1.8098
    2MOL   H250  672   6.151   7.777   6.584 -0.3739  1.2083  1.0809
    2MOL   H251  673   6.105   7.952   6.742  0.9655  1.7632  0.3108
    2MOL   H252  674   5.899   0.368   6.837  1.1634 -0.3720  0.2583
    2MOL   H253  675   5.787   0.241   6.849  0.5159  0.5127 -0.3769
    2MOL   C254  676   5.761   0.375   7.003  0.1602 -0.0944 -0.2138
    2MOL   O255  677   5.826   0.489   7.054  0.3122 -0.2088  0.4592
    2MOL   C256  678   5.785   0.522   7.184  0.0482 -0.4694  0.5943
    2MOL   O257  679   5.842   0.444   7.280 -0.0471  0.6880 -0.3261
    2MOL   C258  680   5.976   0.426   7.285  0.5387  0.5098  0.3670
    2MOL   C259  681   6.066   0.520   7.242 -0.0687 -0.6400  0.5595
    2MOL   C260  682   6.204   0.504   7.262  0.5060 -0.2494 -0.0487
    2MOL   C261  683   6.249   0.381   7.315  0.0334 -0.1293  0.1330
    2MOL   C262  684   6.159   0.284   7.364  0.2788 -0.5965  0.0003
    2MOL   C263  685   6.022   0.308   7.351  0.3869 -0.8740 -0.7702
    2MOL   C264  686   5.633   0.416   6.932 -0.3199 -0.0176 -0.5982
    2MOL   H265  687   5.741   0.306   7.085  1.0958 -0.5839 -0.3901
    2MOL   H266  688   5.678   0.511   7.201  0.3426 -1.2469  2.0277
    2MOL   H267  689   5.809   0.623   7.219 -0.5697 -0.3338  0.6305
    2MOL   H268  690   6.018   0.606   7.196 -0.7282 -0.5680  1.3700
    2MOL   H269  691   6.277   0.573   7.222  0.8132  0.7946  2.1958
    2MOL   H270  692   6.355   0.363   7.310  0.3051  1.2364  0.6744
    2MOL   H271  693   6.199   0.190   7.400  0.4821 -0.1056  1.0881
    2MOL   H272  694   5.946   0.239   7.383 -0.5340  0.8172  0.7662
    2MOL   H273  695   5.590   0.501   6.985  1.4831  0.9139 -0.5499
    2MOL   H274  696   5.661   0.460   6.835 -1.4199 -0.1245 -0.9669
    2MOL   C275  697   5.526   0.312   6.911 -0.1734  0.0356  0.2163
    2MOL   O276  698   5.498   0.265   7.041 -0.1199 -0.3539  0.1632
    2MOL   C277  699   5.457   0.130   7.039  0.0157  0.1302  0.0126
    2MOL   O278  700   5.330   0.109   6.996 -0.2874  0.0739  0.2559
    2MOL   C279  701   5.222   0.147   7.079 -0.3086  0.3305  0.8634
    2MOL   C280  702   5.243   0.225   7.200  0.2348 -0.3248  0.5348
    2MOL   C281  703   5.134   0.269   7.274  0.1081  0.0923 -0.0750
    2MOL   C282  704   5.005   0.241   7.238 -0.9655  0.5374 -0.0898
    2MOL   C283  705   4.983   0.157   7.126  0.4907 -0.0409  0.0544
    2MOL   C284  706   5.086   0.108   7.053 -0.3027 -0.6713  0.3494
    2MOL   C285  707   5.403   0.377   6.839  0.1206 -0.0570  0.1980
    2MOL   H286  708   5.572   0.230   6.856 -0.7965 -1.3342  1.7023
    2MOL   H287  709   5.458   0.082   7.136 -0.8484  1.4174  0.6751
    2MOL   H288  710   5.516   0.075   6.966  0.6371 -0.9254  1.2954
    2MOL   H289  711   5.343   0.258   7.227  0.4211 -0.8095  0.4393
    2MOL   H290  712   5.152   0.312   7.372  1.0636  0.7259 -0.5135
    2MOL   H291  713   4.928   0.282   7.302  0.6543  1.1570  1.4754
    2MOL   H292  714   4.879   0.140   7.105  0.8505  1.0553 -2.8854
    2MOL   H293  715   5.065   0.042   6.970  1.3658 -0.5330 -0.1944
    2MOL   H294  716   5.430   0.481   6.825  0.1633  0.1953  1.9813
    2MOL   H295  717   5.310   0.372   6.897 -0.0242 -1.1169 -0.1151
    2MOL   C296  718   5.381   0.321   6.697 -0.5776 -0.1359  0.4907
    2MOL   O297  719   5.259   0.374   6.636  0.7638  0.1026  0.1992
    2MOL   C298  720   5.151   0.294   6.647  0.7142 -0.0277  0.9124
    2MOL   O299  721   5.160   0.199   6.544  0.5269  0.3695 -0.1673
    2MOL   C300  722   5.070   0.093   6.549 -0.7579  0.4211  0.3257
    2MOL   C301  723   4.962   0.079   6.643 -0.0055 -0.2641 -0.2477
    2MOL   C302  724   4.872   7.945   6.635 -0.1506  0.2478  0.3992
    2MOL   C303  725   4.879   7.854   6.532 -0.5882  0.3074  0.4935
    2MOL   C304  726   4.984   7.870   6.439 -0.1258 -0.1684  0.5699
    2MOL   C305  727   5.079   0.000   6.447  0.4949  0.5022  0.4213
    2MOL   C306  728   5.498   0.341   6.596 -0.8656 -0.0803 -0.3165
    2MOL   H307  729   5.376   0.212   6.697 -1.5963 -0.1123 -1.0725
    2MOL   H308  730   5.058   0.350   6.634  1.0123  0.0823 -0.9655
    2MOL   H309  731   5.140   0.241   6.741  2.6532 -1.0491  0.5837
    2MOL   H310  732   4.930   0.155   6.713  0.4057 -1.7298  1.5659
    2MOL   H311  733   4.795   7.930   6.709  0.3828  1.1731  1.1468
    2MOL   H312  734   4.807   7.775   6.514 -0.2438  0.5130 -1.9673
    2MOL   H313  735   4.975   7.797   6.360 -0.7328 -0.7797  1.1916
    2MOL   H314  736   5.150   7.975   6.365  2.1746 -0.1382  1.8521
    2MOL   H315  737   5.593   0.346   6.648  0.0189  2.4499 -2.1056
    2MOL   H316  738   5.486   0.446   6.569  1.0095 -0.2813 -2.0282
    2MOL   C317  739   5.501   0.258   6.470 -0.4173 -0.2058 -0.3082
    2MOL   O318  740   5.540   0.130   6.517 -0.4177 -0.1333 -0.1794
    2MOL   C319  741   5.449   0.020   6.495 -0.0130 -0.5783  0.0880
    2MOL   O320  742   5.455   7.964   6.361 -0.4999 -0.1240 -0.3306
    2MOL   C321  743   5.393   7.845   6.316 -0.1564  0.2664 -0.2126
    2MOL   C322  744   5.352   7.740   6.403 -0.1072  1.4893 -0.0653
    2MOL   C323  745   5.287   7.631   6.336 -0.2935  0.2409 -0.9405
    2MOL   C324  746   5.283   7.614   6.194  0.5836 -0.3058  0.2479
    2MOL   C325  747   5.320   7.717   6.112 -0.8571 -0.3225  0.3133
    2MOL   C326  748   5.379   7.836   6.176 -0.5435 -0.6249  0.0613
    2MOL   C327  749   5.604   0.301   6.363  0.4687 -0.0409  0.2549
    2MOL   H328  750   5.402   0.254   6.424 -0.5276  1.9776 -0.3118
    2MOL   H329  751   5.357   0.063   6.534  0.6538  1.0046 -0.0707
    2MOL   H330  752   5.500   7.924   6.559  1.8880  1.0337  0.4099
    2MOL   H331  753   5.335   7.745   6.509 -2.5649 -0.4695 -0.3079
    2MOL   H332  754   5.245   7.551   6.395  0.4717  1.3751  1.1980
    2MOL   H333  755   5.233   7.526   6.157 -0.7584  0.5597 -0.0360
    2MOL   H334  756   5.317   7.709   6.004  0.1286 -2.1892  0.4132
    2MOL   H335  757   5.416   7.916   6.113 -0.4752  0.1376  1.0495
    2MOL   H336  758   5.704   0.324   6.399  0.4217  0.7675 -0.1060
    2MOL   H337  759   5.618   0.212   6.302 -0.2867 -1.0280  1.4953
    2MOL   C338  760   5.562   0.420   6.278 -0.0934 -0.1180  0.2885
    2MOL   O339  761   5.667   0.457   6.190  0.1664 -0.0371 -0.1686
    2MOL   C340  762   5.739   0.569   6.230 -0.2683  0.3232  0.4056
    2MOL   O341  763   5.814   0.552   6.349  0.0923 -0.3132  0.5357
    2MOL   C342  764   5.947   0.524   6.343 -0.2148 -0.2419 -0.2997
    2MOL   C343  765   6.006   0.503   6.467 -0.5309 -0.1331 -0.8069
    2MOL   C344  766   6.140   0.466   6.476  0.1925 -0.4539  0.1863
    2MOL   C345  767   6.219   0.459   6.361  0.0339  0.0032 -0.2444
    2MOL   C346  768   6.167   0.492   6.233  0.1026 -0.6216 -0.4752
    2MOL   C347  769   6.029   0.527   6.221  0.0642 -0.1914 -0.8010
    2MOL   C348  770   5.452   0.391   6.172  0.7792  0.3190 -0.6317
    2MOL   H349  771   5.528   0.505   6.337  0.8140  1.7125 -1.7549
    2MOL   H350  772   5.664   0.644   6.254 -1.1407  0.1331 -1.6719
    2MOL   H351  773   5.799   0.595   6.143 -0.7794  1.6054  0.4267
    2MOL   H352  774   5.945   0.504   6.555 -0.6054 -0.9479 -0.8483
    2MOL   H353  775   6.191   0.438   6.568  0.1890  0.8479  0.5894
    2MOL   H354  776   6.322   0.427   6.366 -0.1445 -0.5297  0.1251
    2MOL   H355  777   6.232   0.497   6.146  0.4563 -0.3429 -0.1962
    2MOL   H356  778   5.986   0.559   6.128 -1.2587  1.6227  0.4016
    2MOL   H357  779   5.364   0.352   6.224 -0.2808  0.7204 -2.1100
    2MOL   H358  780   5.494   0.306   6.117  2.4051 -1.0366  2.5550
    2MOL   C359  781   5.423   0.504   6.067 -0.2309 -0.0492  0.8469
    2MOL   O360  782   5.398   0.623   6.138  0.2869 -0.2226  0.1479
    2MOL   C361  783   5.421   0.743   6.072 -0.1975  0.4215  0.1386
    2MOL   O362  784   5.555   0.770   6.069 -0.0022  0.4632 -0.3304
    2MOL   C363  785   5.605   0.885   6.018 -1.3638 -1.1929 -0.4636
    2MOL   C364  786   5.741   0.903   6.040  0.5720  0.1070 -0.5957
    2MOL   C365  787   5.809   1.018   5.993  0.1967 -0.4991 -0.4541
    2MOL   C366  788   5.735   1.108   5.916 -0.4181 -0.4311 -0.1212
    2MOL   C367  789   5.596   1.095   5.894  0.1040 -0.5614 -0.0455
    2MOL   C368  790   5.529   0.978   5.942 -0.2375  0.6277  0.4667
    2MOL   C369  791   5.281   0.481   5.999  0.8392 -0.4663  0.0664
    2MOL   H370  792   5.507   0.526   6.000  0.4631 -0.6688  1.5086
    2MOL   H371  793   5.375   0.823   6.130  1.6237 -0.3268  2.6527
    2MOL   H372  794   5.386   0.743   5.968  0.8134 -2.2803 -0.2335
    2MOL   H373  795   5.795   0.831   6.101 -0.3699  0.4346  0.6554
    2MOL   H374  796   5.911   1.044   6.018 -0.3894  1.3237  0.1405
    2MOL   H375  797   5.777   1.203   5.885 -0.7662  0.6077  2.4371
    2MOL   H376  798   5.541   1.171   5.840  0.3160  0.5698  1.2863
    2MOL   H377  799   5.421   0.969   5.944 -0.3367  1.7834  0.4557
    2MOL   H378  800   5.268   0.381   5.958  0.1492  0.0860 -1.0667
    2MOL   H379  801   5.280   0.541   5.909 -0.6795  0.3351  0.6056
    2MOL   C380  802   5.152   0.519   6.079 -0.0490 -0.4390 -0.6663
    2MOL   O381  803   5.124   0.431   6.183 -0.4325 -0.3007 -0.0125
    2MOL   C382  804   5.133   0.482   6.310  0.3423  0.7385 -0.0434
    2MOL   O383  805   5.015   0.534   6.345  0.2371  0.0562  0.4527
    2MOL   C384  806   4.917   0.448   6.394 -0.0877  0.3560  0.0537
    2MOL   C385  807   4.906   0.316   6.346  0.0933  0.5111 -0.4821
    2MOL   C386  808   4.797   0.236   6.385  0.2493 -0.2518 -0.4576
    2MOL   C387  809   4.697   0.285   6.471 -0.1855 -0.3162 -0.6773
    2MOL   C388  810   4.712   0.421   6.527 -0.7867  0.4672 -0.2728
    2MOL   C389  811   4.821   0.499   6.481  0.0878 -0.1517  0.0423
    2MOL   C390  812   5.028   0.507   5.986 -0.8495 -1.1102  0.0188
    2MOL   H391  813   5.160   0.622   6.115  0.7866 -0.4273 -0.8857
    2MOL   H392  814   5.150   0.397   6.376 -0.2048  1.5955  1.2218
    2MOL   H393  815   5.211   0.558   6.315  1.4610 -0.3344 -0.9147
    2MOL   H394  816   4.973   0.262   6.281  1.9814  0.6681  1.3226
    2MOL   H395  817   4.781   0.138   6.342  1.7529 -1.9814  2.7783
    2MOL   H396  818   4.617   0.220   6.504 -1.7443  1.5436 -0.7614
    2MOL   H397  819   4.646   0.466   6.599  0.3705  1.0181  0.4571
    2MOL   H398  820   4.834   0.596   6.527 -0.0142 -0.2335  0.2436
    2MOL   H399  821   4.936   0.521   6.044 -0.6874  1.1003 -0.2166
    2MOL   H400  822   5.025   0.403   5.953  0.0044 -0.4587 -2.2090
    2MOL   C401  823   5.031   0.616   5.871 -0.1175  0.6156 -0.4939
    2MOL   O402  824   5.109   0.564   5.762 -0.1058  0.0574 -0.5326
    2MOL   C403  825   5.156   0.660   5.677  0.9191  0.7834  0.1539
    2MOL   O404  826   5.260   0.743   5.726 -0.1854  0.0148  0.7771
    2MOL   C405  827   5.391   0.699   5.693  0.1488  0.0213 -0.1453
    2MOL   C406  828   5.431   0.564   5.674 -0.2164  0.0757 -0.3431
    2MOL   C407  829   5.565   0.530   5.660 -0.9470  0.0288  0.3907
    2MOL   C408  830   5.669   0.630   5.672 -0.1098  0.4574 -0.1837
    2MOL   C409  831   5.624   0.766   5.682 -0.5984 -0.8544 -0.0008
    2MOL   C410  832   5.485   0.800   5.687 -0.3656 -0.0396 -0.3571
    2MOL   C411  833   4.889   0.646   5.821 -0.3391  0.2848  0.4890
    2MOL   H412  834   5.065   0.708   5.919  1.8266  0.5001 -1.5706
    2MOL   H413  835   5.083   0.721   5.624 -0.0193 -1.8147 -1.6440
    2MOL   H414  836   5.191   0.594   5.597  0.1711 -0.1263  0.5759
    2MOL   H415  837   5.354   0.489   5.684 -0.6009  0.5158  0.0696
    2MOL   H416  838   5.594   0.426   5.654 -0.8046 -0.0519  2.0451
    2MOL   H417  839   5.772   0.598   5.657  0.6711  2.3867  0.9255
    2MOL   H418  840   5.703   0.835   5.659 -2.0683  0.7848 -0.2499
    2MOL   H419  841   5.457   0.905   5.686 -0.0315  0.0703  1.1887
    2MOL   H420  842   4.825   0.681   5.902 -1.4662  0.3906 -0.4227
    2MOL   H421  843   4.834   0.560   5.781 -0.0684 -0.4102  1.6115
    2MOL   H422  844   4.885   0.723   5.744 -1.0657 -0.2644 -0.0466
    3MOL     C1  845   3.488   6.777   0.677 -0.6333  0.6148 -0.3826
    3MOL     O2  846   3.422   6.894   0.667 -0.1316  0.4550  0.1708
    3MOL     C3  847   3.424   6.965   0.545 -0.7311  0.2623  0.0502
    3MOL     O4  848   3.326   7.061   0.539 -0.3423 -0.9169  0.0866
    3MOL     C5  849   3.317   7.137   0.418 -0.0167 -0.5042  0.0343
    3MOL     C6  850   3.379   7.092   0.302  0.2737 -0.1652 -0.3076
    3MOL     C7  851   3.382   7.167   0.184  0.6117 -0.1445 -0.2644
    3MOL     C8  852   3.312   7.291   0.179 -0.3630  0.9013 -0.4275
    3MOL     C9  853   3.238   7.334   0.288  0.2742 -0.1665  0.5983
    3MOL    C10  854   3.242   7.257   0.409  0.5319 -0.4928  0.4747
    3MOL    C11  855   3.631   6.806   0.714  0.9183 -0.1730  0.5551
    3MOL    H12  856   3.443   6.731   0.765 -0.5680 -1.8732 -1.6026
    3MOL    H13  857   3.524   7.005   0.528 -0.4320  0.4424  2.1541
    3MOL    H14  858   3.395   6.888   0.472 -2.6365  0.2959  0.7471
    3MOL    H15  859   3.432   6.998   0.294  0.5446  0.1007 -1.7166
    3MOL    H16  860   3.436   7.141   0.094  0.4442  1.3203 -0.7920
    3MOL    H17  861   3.302   7.342   0.084 -0.0339  2.9437  0.6270
    3MOL    H18  862   3.175   7.422   0.284 -0.6242 -0.8589 -1.6164
    3MOL    H19  863   3.194   7.302   0.494 -0.4321 -0.3793 -0.1249
    3MOL    H20  864   3.633   6.886   0.788 -2.2843  4.2123 -3.7368
    3MOL    H21  865   3.676   6.839   0.620  0.5421  0.0502  0.4492
    3MOL    H22  866   3.459   6.704   0.601 -1.1228 -0.3530  0.7100
    3MOL    C23  867   3.713   6.685   0.763  0.5028  0.3998 -0.6335
    3MOL    O24  868   3.698   6.688   0.905  0.2116 -0.0193 -0.5941
    3MOL    C25  869   3.663   6.559   0.945 -0.2164 -0.3826  0.4006
    3MOL    O26  870   3.767   6.474   0.947 -0.1752  0.0854 -0.1133
    3MOL    C27  871   3.756   6.361   1.028 -0.1534 -0.2226  0.5125
    3MOL    C28  872   3.875   6.281   1.039  0.2038 -0.8240 -0.6883
    3MOL    C29  873   3.879   6.170   1.118  0.6339 -0.6875  0.0714
    3MOL    C30  874   3.758   6.112   1.164 -0.4862 -0.8218 -0.7998
    3MOL    C31  875   3.640   6.190   1.151 -0.0767 -0.6325  0.6564
    3MOL    C32  876   3.640   6.314   1.086 -1.2448 -0.2469 -0.5604
    3MOL    C33  877   3.861   6.708   0.732  0.2945 -0.0623 -0.3048
    3MOL    H34  878   3.685   6.593   0.712  0.2781 -0.0423  0.2845
    3MOL    H35  879   3.580   6.528   0.882  0.5506  0.0540 -0.8509
    3MOL    H36  880   3.631   6.594   1.043 -0.1014 -0.2366  0.3869
    3MOL    H37  881   3.961   6.320   0.987 -0.1076 -0.8161 -1.2050
    3MOL    H38  882   3.978   6.130   1.132  0.9595 -0.4097 -1.3328
    3MOL    H39  883   3.757   6.022   1.223  1.0728 -0.1969  0.2348
    3MOL    H40  884   3.550   6.136   1.177 -1.7928  0.3999 -2.8227
    3MOL    H41  885   3.544   6.364   1.080 -1.3415 -0.4186 -0.4597
    3MOL    H42  886   3.921   6.664   0.811  0.0340  1.1351  0.5706
    3MOL    H43  887   3.889   6.813   0.730  1.0635 -0.2450  0.6612
    3MOL    C44  888   3.913   6.647   0.605 -0.5670  0.8899  0.4495
    3MOL    O45  889   4.053   6.629   0.612 -0.1589 -0.2937  0.1755
    3MOL    C46  890   4.098   6.523   0.542 -0.4980  0.0080 -0.1337
    3MOL    O47  891   4.054   6.399   0.583 -0.2212 -0.5137 -0.3749
    3MOL    C48  892   4.115   6.354   0.695 -0.5263  0.1370 -0.0811
    3MOL    C49  893   4.145   6.434   0.803  0.5431  0.4795 -0.2071
    3MOL    C50  894   4.208   6.377   0.917 -0.7352 -0.3669  0.8120
    3MOL    C51  895   4.227   6.240   0.920  0.1041  0.2234 -0.1527
    3MOL    C52  896   4.183   6.156   0.814  0.0242  0.3269  0.0740
    3MOL    C53  897   4.136   6.216   0.697  0.0376 -0.1030  0.0197
    3MOL    C54  898   3.865   6.718   0.475  0.4456  0.4208 -0.0945
    3MOL    H55  899   3.872   6.546   0.608  0.8219  0.2582 -1.0229
    3MOL    H56  900   4.207   6.529   0.548 -0.6293  3.0758 -0.1037
    3MOL    H57  901   4.070   6.523   0.436 -0.1076  1.7618 -0.2609
    3MOL    H58  902   4.111   6.536   0.812 -1.3021 -0.2740  1.9708
    3MOL    H59  903   4.241   6.441   0.997 -1.5198 -1.1693  1.7875
    3MOL    H60  904   4.273   6.194   1.006  2.5517  2.1345 -0.3950
    3MOL    H61  905   4.200   6.050   0.822  0.8784  0.5055  0.7527
    3MOL    H62  906   4.097   6.161   0.613 -1.1354  2.4219 -1.1498
    3MOL    H63  907   3.893   6.658   0.388  1.2953  1.4186 -0.5194
    3MOL    H64  908   3.757   6.716   0.466  0.2306 -3.7006  2.2063
    3MOL    C65  909   3.923   6.860   0.451  0.0590  0.4255  0.6066
    3MOL    O66  910   4.046   6.835   0.381 -0.3043  0.1800 -0.1728
    3MOL    C67  911   4.127   6.941   0.362  0.3482 -0.0400  0.5287
    3MOL    O68  912   4.120   6.985   0.230  0.1694  0.4092 -0.7479
    3MOL    C69  913   4.214   6.928   0.137 -0.6533  0.5380 -0.5628
    3MOL    C70  914   4.282   6.805   0.161 -0.3788 -0.2205  0.0404
    3MOL    C71  915   4.375   6.765   0.069  0.3325 -0.2169  0.7631
    3MOL    C72  916   4.399   6.832   7.929 -0.3468 -0.8589  0.7911
    3MOL    C73  917   4.338   6.957   7.909  0.4981  0.9488  0.1280
    3MOL    C74  918   4.246   7.004   0.027 -0.1667 -0.1065  0.4707
    3MOL    C75  919   3.832   6.950   0.364  0.4982  0.3535 -0.0405
    3MOL    H76  920   3.941   6.902   0.550  1.6693 -0.8028  0.8492
    3MOL    H77  921   4.228   6.905   0.381 -0.1007 -0.7434  1.5837
    3MOL    H78  922   4.114   7.031   0.421  1.0548 -1.2574  2.5878
    3MOL    H79  923   4.263   6.740   0.245  0.8400 -0.5078  0.1036
    3MOL    H80  924   4.434   6.676   0.085 -2.2005 -2.1920 -0.4090
    3MOL    H81  925   4.468   6.801   7.852 -0.1082  3.0591 -0.7015
    3MOL    H82  926   4.359   7.021   7.824 -1.0238 -2.9208 -3.3016
    3MOL    H83  927   4.200   7.098   0.001  2.5558  1.0787 -0.2648
    3MOL    H84  928   3.742   6.972   0.422  1.5618  0.2642  1.6470
    3MOL    H85  929   3.885   7.044   0.348  1.6679 -0.1225  1.0215
    3MOL    C86  930   3.780   6.889   0.233  0.0013 -1.1953 -0.0886
    3MOL    O87  931   3.671   6.808   0.266  0.3239 -0.3637  0.1161
    3MOL    C88  932   3.654   6.697   0.183 -0.4827  0.4923 -0.0854
    3MOL    O89  933   3.536   6.626   0.211 -0.2701 -0.3414  0.4647
    3MOL    C90  934   3.417   6.692   0.196 -0.4714  0.5088  0.4457
    3MOL    C91  935   3.396   6.787   0.098  0.1862 -0.3137 -0.2033
    3MOL    C92  936   3.265   6.840   0.076  0.2631  0.4634  0.4539
    3MOL    C93  937   3.159   6.808   0.163  0.7344 -0.0954 -0.4751
    3MOL    C94  938   3.183   6.714   0.268  0.4658 -0.0104 -0.2477
    3MOL    C95  939   3.310   6.654   0.281 -0.2349  0.2198 -0.3489
    3MOL    C96  940   3.728   6.988   0.129  0.2657  0.1766  0.0518
    3MOL    H97  941   3.851   6.820   0.187  1.6238  0.4345 -0.1048
    3MOL    H98  942   3.735   6.630   0.212 -2.3819 -0.5670  3.0368
    3MOL    H99  943   3.668   6.724   0.078  1.1035  1.1805  0.2732
    3MOL   H100  944   3.478   6.811   0.033  0.5272 -0.2596  0.2522
    3MOL   H101  945   3.237   6.912   0.001  1.7192  1.0980  0.5090
    3MOL   H102  946   3.069   6.867   0.158  1.7795  1.3698 -3.4471
    3MOL   H103  947   3.101   6.688   0.333 -0.2862 -2.4083 -2.0933
    3MOL   H104  948   3.318   6.567   0.343  1.2161  0.7290  0.1962
    3MOL   H105  949   3.672   6.934   0.053 -0.6109  0.8205  0.2313
    3MOL   H106  950   3.662   7.060   0.178  0.9620  0.4610  0.5941
    3MOL   C107  951   3.827   7.091   0.055 -0.0037 -0.7782 -0.1749
    3MOL   O108  952   3.760   7.153   7.919  0.1117  0.6066  0.6440
    3MOL   C109  953   3.778   7.087   7.792  0.4891 -0.5395 -0.6942
    3MOL   O110  954   3.730   6.958   7.784 -0.2189 -0.2263  0.1887
    3MOL   C111  955   3.603   6.934   7.749  0.2247  1.2315 -0.3882
    3MOL   C112  956   3.493   7.009   7.789 -0.0744 -0.0692  0.0970
    3MOL   C113  957   3.362   6.979   7.738 -1.3332  0.4418 -0.1334
    3MOL   C114  958   3.346   6.868   7.653  0.3179  0.0112 -0.0376
    3MOL   C115  959   3.453   6.793   7.604  0.7307  0.5099 -0.4033
    3MOL   C116  960   3.579   6.827   7.656  0.2338 -0.4562 -1.1735
    3MOL   C117  961   3.892   7.205   0.131  0.9973 -0.3390 -0.2995
    3MOL   H118  962   3.909   7.026   0.027  1.8818  1.4605  0.0394
    3MOL   H119  963   3.884   7.066   7.779  0.6720  1.2953 -2.4923
    3MOL   H120  964   3.731   7.144   7.712 -0.1776 -2.1111 -1.4601
    3MOL   H121  965   3.503   7.097   7.850 -0.0993 -0.6979  1.0253
    3MOL   H122  966   3.283   7.042   7.778 -1.3224  0.0205  0.5590
    3MOL   H123  967   3.242   6.851   7.630 -0.0345  0.7648  0.9766
    3MOL   H124  968   3.450   6.712   7.533  0.9952  0.7254 -0.6590
    3MOL   H125  969   3.667   6.778   7.616  2.4246  2.3199  0.1009
    3MOL   H126  970   3.964   7.160   0.199 -0.9936 -0.6479  1.6699
    3MOL   H127  971   3.821   7.231   0.210  0.5948  3.2348 -1.7554
    3MOL   C128  972   3.957   7.328   0.061 -0.3800  0.5720 -0.0701
    3MOL   O129  973   4.098   7.317   0.074  0.6684  0.0383  0.0921
    3MOL   C130  974   4.168   7.375   7.946 -0.9504  0.0102  0.0262
    3MOL   O131  975   4.180   7.289   7.839  0.8039  0.2176 -0.2252
    3MOL   C132  976   4.251   7.337   7.732 -0.0347 -0.3426  1.0310
    3MOL   C133  977   4.341   7.446   7.736  0.3383 -1.2740 -0.1421
    3MOL   C134  978   4.426   7.472   7.627  0.1363  0.2901 -0.4648
    3MOL   C135  979   4.404   7.403   7.506  0.3580 -0.3530  0.7499
    3MOL   C136  980   4.302   7.299   7.499  0.4612  0.4683 -0.8503
    3MOL   C137  981   4.231   7.266   7.617 -0.0323 -0.4321 -0.3449
    3MOL   C138  982   3.905   7.455   0.112  0.0703 -0.0313 -0.1217
    3MOL   H139  983   3.937   7.327   7.929  0.4941  1.4622 -0.2439
    3MOL   H140  984   4.268   7.394   0.008 -1.2396  0.8052  0.3924
    3MOL   H141  985   4.127   7.472   7.918 -0.0562  0.2391 -0.5296
    3MOL   H142  986   4.372   7.501   7.824  3.2632 -2.7545 -0.1947
    3MOL   H143  987   4.503   7.547   7.637 -0.4377  0.6682  1.3391
    3MOL   H144  988   4.467   7.426   7.421  0.1936  1.0142  0.9834
    3MOL   H145  989   4.285   7.242   7.409  0.1945 -3.8576  1.7983
    3MOL   H146  990   4.152   7.192   7.620  0.6453 -1.1207  1.5000
    3MOL   H147  991   3.939   7.460   0.215 -0.5147 -1.3352  0.1496
    3MOL   H148  992   3.957   7.538   0.064 -1.1245  1.2712  0.8014
    3MOL   C149  993   3.759   7.475   0.070 -0.0605 -0.7394  0.9160
    3MOL   O150  994   3.680   7.523   0.178 -0.1598  0.5565  0.0734
    3MOL   C151  995   3.642   7.433   0.283 -0.1975  0.1822  0.7187
    3MOL   O152  996   3.750   7.408   0.362 -0.9244  0.0540  0.8440
    3MOL   C153  997   3.730   7.325   0.473 -0.5795 -0.7488  0.4457
    3MOL   C154  998   3.610   7.305   0.538  0.4140  0.6307 -0.6405
    3MOL   C155  999   3.604   7.233   0.661  0.3295 -0.1349 -0.0183
    3MOL   C156 1000   3.721   7.171   0.719 -0.0213  0.2085 -0.2166
    3MOL   C157 1001   3.847   7.202   0.657 -0.3941  0.1104  0.4232
    3MOL   C158 1002   3.848   7.284   0.541 -0.3145 -0.3053 -0.4067
    3MOL   C159 1003   3.748   7.551   7.912 -0.7216  0.2067 -0.0601
    3MOL   H160 1004   3.714   7.380   0.043 -0.1786 -0.8657  1.5477
    3MOL   H161 1005   3.573   7.497   0.338 -0.8260  0.3855 -0.2972
    3MOL   H162 1006   3.589   7.347   0.240  2.4416 -0.3045 -1.6754
    3MOL   H163 1007   3.518   7.349   0.501 -0.3766 -0.5131 -0.0724
    3MOL   H164 1008   3.509   7.229   0.711 -0.1851 -1.3252 -1.0769
    3MOL   H165 1009   3.716   7.111   0.808  0.1666  0.0241 -0.3317
    3MOL   H166 1010   3.933   7.169   0.714  0.9267  1.2775 -0.8618
    3MOL   H167 1011   3.944   7.298   0.494  0.4548 -1.7217  0.7281
    3MOL   H168 1012   3.817   7.513   7.837 -1.2723  1.1293 -1.0542
    3MOL   H169 1013   3.769   7.655   7.937  1.5637 -0.9449  3.0944
    3MOL   C170 1014   3.603   7.549   7.854 -0.4458 -0.2597 -0.4173
    3MOL   O171 1015   3.587   7.673   7.791  0.2603 -0.0911 -0.2876
    3MOL   C172 1016   3.530   7.760   7.889 -0.0317  0.5379 -0.3861
    3MOL   O173 1017   3.396   7.720   7.919  0.0508  0.2373  0.1808
    3MOL   C174 1018   3.313   7.796   0.028  0.3555  0.7335  0.2719
    3MOL   C175 1019   3.199   7.731   0.068  0.5019  0.4597 -0.1442
    3MOL   C176 1020   3.102   7.799   0.149  0.6884  0.2333 -0.1714
    3MOL   C177 1021   3.120   7.930   0.185 -1.0612  0.1148 -0.1099
    3MOL   C178 1022   3.236   0.025   0.146 -0.2621  0.2304 -0.2022
    3MOL   C179 1023   3.335   7.929   0.071 -0.0535  0.4151 -0.1164
    3MOL   C180 1024   3.600   7.437   7.751 -0.8115 -0.1881  0.7964
    3MOL   H181 1025   3.531   7.525   7.933 -0.8360  2.2108  0.0361
    3MOL   H182 1026   3.539   7.862   7.853 -1.3783  1.2739  1.2317
    3MOL   H183 1027   3.591   7.760   0.004 -0.2573 -2.4725 -0.1778
    3MOL   H184 1028   3.186   7.628   0.037  0.8975  0.6322 -0.9010
    3MOL   H185 1029   3.010   7.756   0.186  0.3797 -0.2955 -1.5414
    3MOL   H186 1030   3.049   7.974   0.253 -0.9843  1.0410 -0.6211
    3MOL   H187 1031   3.253   0.125   0.181 -0.4683  0.7659 -1.5799
    3MOL   H188 1032   3.420   0.014   0.043  0.0936  0.9726  1.4705
    3MOL   H189 1033   3.687   7.450   7.686  0.4133  1.0021  2.6158
    3MOL   H190 1034   3.621   7.343   7.801  0.8061 -0.5987 -0.5917
    3MOL   C191 1035   3.459   7.413   7.686 -0.2032 -0.1040  0.1950
    3MOL   O192 1036   3.379   7.353   7.787 -0.8338 -0.1701  0.3441
    3MOL   C193 1037   3.240   7.375   7.799  0.3135 -0.2029  0.5360
    3MOL   O194 1038   3.178   7.269   7.865  0.0815 -0.1904  0.2546
    3MOL   C195 1039   3.056   7.284   7.917  0.9391  0.4861  0.6952
    3MOL   C196 1040   2.997   7.172   0.021  0.3337  0.2731 -0.3054
    3MOL   C197 1041   2.876   7.186   0.086  0.1454 -0.1599  0.1202
    3MOL   C198 1042   2.806   7.301   0.070 -0.1503 -0.0405  0.9935
    3MOL   C199 1043   2.845   7.406   7.958 -0.0360  0.3484 -0.0099
    3MOL   C200 1044   2.968   7.401   7.894 -0.4758 -0.1616  0.3576
    3MOL   C201 1045   3.471   7.319   7.566 -0.6326  0.1824 -0.8953
    3MOL   H202 1046   3.417   7.509   7.656  1.3793  1.7289  3.5587
    3MOL   H203 1047   3.194   7.379   7.700  0.2740  0.4172  0.5739
    3MOL   H204 1048   3.233   7.463   7.862 -0.9083  0.2542 -0.2215
    3MOL   H205 1049   3.037   7.072   0.033 -2.3996 -0.7870  0.3772
    3MOL   H206 1050   2.830   7.099   0.131 -1.1645 -0.0469 -0.9776
    3MOL   H207 1051   2.712   7.313   0.122  1.1007  0.4778  3.2078
    3MOL   H208 1052   2.787   7.497   7.958 -2.3095 -1.0717 -0.4936
    3MOL   H209 1053   2.999   7.482   7.830 -2.5305 -0.5728 -1.1910
    3MOL   H210 1054   3.554   7.347   7.502 -1.3951  1.7011 -1.2419
    3MOL   H211 1055   3.512   7.227   7.608  0.4277  0.3405 -1.5634
    3MOL   C212 1056   3.348   7.288   7.475  0.2477  0.5462  0.5444
    3MOL   O213 1057   3.329   7.401   7.383 -0.0867 -0.0006 -0.6542
    3MOL   C214 1058   3.207   7.463   7.382  0.4585  0.5032  0.6523
    3MOL   O215 1059   3.170   7.542   7.492 -0.1906  0.0270  0.6339
    3MOL   C216 1060   3.204   7.679   7.488 -0.0774 -0.1443  0.0406
    3MOL   C217 1061   3.288   7.735   7.394 -0.1553  0.1087 -0.6039
    3MOL   C218 1062   3.341   7.863   7.410  0.1013  0.2054  0.1256
    3MOL   C219 1063   3.304   7.942   7.518  0.3675  0.3478  0.4366
    3MOL   C220 1064   3.219   7.887   7.617 -0.5580 -0.3567 -0.2067
    3MOL   C221 1065   3.171   7.752   7.602 -0.6925 -0.2413 -0.9706
    3MOL   C222 1066   3.382   7.165   7.382 -0.6258  0.5150  0.0080
    3MOL   H223 1067   3.260   7.256   7.530 -0.8008  0.7700 -0.9594
    3MOL   H224 1068   3.134   7.382   7.378 -2.5904  3.2271 -2.0480
    3MOL   H225 1069   3.189   7.502   7.282  0.5838 -1.2871 -0.0760
    3MOL   H226 1070   3.327   7.673   7.315  0.2954  0.5894 -0.7595
    3MOL   H227 1071   3.412   7.890   7.334 -1.0103  2.2301 -0.2211
    3MOL   H228 1072   3.339   0.067   7.534  3.1362 -0.3712 -0.7161
    3MOL   H229 1073   3.197   7.944   7.705  2.5586  2.5222 -1.1544
    3MOL   H230 1074   3.125   7.698   7.683  1.4508 -0.5344  0.0712
    3MOL   H231 1075   3.478   7.183   7.334 -0.9249 -1.0587 -1.2096
    3MOL   H232 1076   3.403   7.076   7.442  0.9054 -0.3037 -1.7041
    3MOL   C233 1077   3.277   7.128   7.279  0.2300  0.3893  0.9860
    3MOL   O234 1078   3.347   7.094   7.159 -0.1414 -0.1854 -0.0051
    3MOL   C235 1079   3.393   7.207   7.092  0.3703 -0.8541  0.0817
    3MOL   O236 1080   3.294   7.251   6.996  0.3620 -0.1969  0.2201
    3MOL   C237 1081   3.287   7.179   6.882  0.1585 -0.1890  0.4176
    3MOL   C238 1082   3.290   7.041   6.864 -0.2091  1.0608  0.1835
    3MOL   C239 1083   3.256   6.982   6.740 -0.2176 -0.1757  0.1365
    3MOL   C240 1084   3.234   7.068   6.631 -0.0202 -0.4795  0.1595
    3MOL   C241 1085   3.244   7.207   6.643  0.2063 -0.4852 -0.8109
    3MOL   C242 1086   3.256   7.255   6.771 -0.3383 -0.0960 -0.2713
    3MOL   C243 1087   3.182   7.005   7.322 -0.2029  0.2597  0.1581
    3MOL   H244 1088   3.222   7.220   7.259 -2.2935 -1.3308 -0.2175
    3MOL   H245 1089   3.481   7.180   7.033 -0.8629 -0.7299 -1.8088
    3MOL   H246 1090   3.430   7.289   7.154  1.6950 -0.0911 -1.6737
    3MOL   H247 1091   3.293   6.982   6.955 -0.5277  2.6576  1.2570
    3MOL   H248 1092   3.241   6.875   6.734 -0.2931 -0.2134  0.9899
    3MOL   H249 1093   3.221   7.028   6.532  2.4185 -0.2519 -0.2742
    3MOL   H250 1094   3.214   7.276   6.565 -1.3302 -0.6800 -0.4059
    3MOL   H251 1095   3.253   7.362   6.788  1.4279 -0.5618  3.3226
    3MOL   H252 1096   3.220   6.919   7.267 -2.5226 -0.3222 -0.6051
    3MOL   H253 1097   3.182   6.990   7.430  0.0011  2.6006  0.5179
    3MOL   C254 1098   3.042   7.019   7.269 -0.1124 -1.0424 -0.3237
    3MOL   O255 1099   2.987   7.140   7.326  0.2667  0.3433 -0.0698
    3MOL   C256 1100   2.897   7.133   7.435  0.3538  0.2107 -0.0238
    3MOL   O257 1101   2.941   7.049   7.538 -0.1301  0.4751  0.0182
    3MOL   C258 1102   2.854   7.037   7.645 -0.4028 -0.5878 -0.7320
    3MOL   C259 1103   2.896   6.962   7.758  0.4192 -0.3251  0.0732
    3MOL   C260 1104   2.813   6.939   7.874 -0.3313  0.0042  0.2174
    3MOL   C261 1105   2.684   6.993   7.864  0.4059  0.3823  0.1341
    3MOL   C262 1106   2.639   7.058   7.755 -0.5275  0.0570  0.4767
    3MOL   C263 1107   2.724   7.094   7.652 -0.2764 -0.4568  0.5457
    3MOL   C264 1108   3.027   7.036   7.113 -0.1557  0.7958 -0.1873
    3MOL   H265 1109   2.973   6.942   7.306 -2.0280  0.4221 -0.7513
    3MOL   H266 1110   2.802   7.104   7.391 -1.1933  2.3847  1.7383
    3MOL   H267 1111   2.879   7.235   7.469  0.1485  0.5652 -1.1613
    3MOL   H268 1112   2.994   6.918   7.754  1.6738  2.5076 -2.4076
    3MOL   H269 1113   2.841   6.878   7.959 -1.3797  1.8063  1.9065
    3MOL   H270 1114   2.613   6.980   7.944 -0.2224 -1.7626 -0.7385
    3MOL   H271 1115   2.534   7.086   7.760 -0.8903 -1.0159 -0.7055
    3MOL   H272 1116   2.685   7.146   7.565 -0.6855  0.0050  0.9996
    3MOL   H273 1117   3.077   7.124   7.071  1.6164  1.2220  2.6657
    3MOL   H274 1118   3.088   6.955   7.073 -3.3972 -1.5232 -0.6381
    3MOL   C275 1119   2.888   7.010   7.054  0.3636  0.6344  0.5782
    3MOL   O276 1120   2.799   7.115   7.093  0.9811 -0.6712 -0.2174
    3MOL   C277 1121   2.665   7.085   7.067 -0.3247  0.5350  0.5276
    3MOL   O278 1122   2.583   7.141   7.153 -0.3532  0.3837  0.2401
    3MOL   C279 1123   2.536   7.065   7.259  0.4395 -0.3621 -0.9774
    3MOL   C280 1124   2.442   7.118   7.349 -0.6364 -0.8476 -0.0116
    3MOL   C281 1125   2.397   7.053   7.468 -1.0120  0.2192 -0.8343
    3MOL   C282 1126   2.444   6.926   7.498  0.3668  0.4656 -0.6252
    3MOL   C283 1127   2.528   6.856   7.401 -0.4747 -0.1767 -0.1298
    3MOL   C284 1128   2.568   6.930   7.288 -0.1471  0.3238  0.1348
    3MOL   C285 1129   2.886   7.001   6.900  0.1746  0.5179 -0.1200
    3MOL   H286 1130   2.848   6.914   7.088  1.1388  0.1067  0.0044
    3MOL   H287 1131   2.641   6.980   7.047 -0.0255  0.2820  1.4686
    3MOL   H288 1132   2.652   7.134   6.971  2.4248 -1.6919 -1.0701
    3MOL   H289 1133   2.401   7.214   7.320 -0.9678 -1.2925 -1.0708
    3MOL   H290 1134   2.339   7.115   7.534 -0.2825 -1.2926  1.2650
    3MOL   H291 1135   2.415   6.876   7.589 -1.7511  1.4231 -0.7458
    3MOL   H292 1136   2.566   6.757   7.419 -0.2716  0.2363  1.9110
    3MOL   H293 1137   2.639   6.876   7.227 -1.4223 -1.2302 -0.0123
    3MOL   H294 1138   2.963   7.074   6.877  2.7562 -1.8029  0.9201
    3MOL   H295 1139   2.787   7.023   6.860 -1.0100 -2.9013  0.6919
    3MOL   C296 1140   2.925   6.854   6.846  0.2804  0.2957 -0.0864
    3MOL   O297 1141   2.865   6.747   6.926  0.0906 -0.6472  0.6776
    3MOL   C298 1142   2.939   6.631   6.933  0.5494 -0.7478  0.1514
    3MOL   O299 1143   3.043   6.631   7.025  0.1830 -0.5634  0.1302
    3MOL   C300 1144   3.007   6.642   7.160 -0.3510  0.0441  0.1748
    3MOL   C301 1145   3.118   6.629   7.247 -0.1097  0.0243  0.3400
    3MOL   C302 1146   3.095   6.646   7.381 -0.2812  0.3222 -0.3909
    3MOL   C303 1147   2.970   6.674   7.431 -0.7078  0.2289 -0.0371
    3MOL   C304 1148   2.853   6.682   7.352 -0.1256  0.7068  1.1526
    3MOL   C305 1149   2.871   6.660   7.210 -0.1353 -0.4623  0.7439
    3MOL   C306 1150   2.907   6.837   6.689  0.1314  0.2059 -0.3166
    3MOL   H307 1151   3.033   6.861   6.857  0.2583 -2.2529  2.3722
    3MOL   H308 1152   2.971   6.596   6.835  0.3290 -1.7997  0.4556
    3MOL   H309 1153   2.873   6.552   6.968  0.8578 -0.6930  0.8686
    3MOL   H310 1154   3.211   6.590   7.207  1.0866  0.8767  2.2126
    3MOL   H311 1155   3.178   6.627   7.448 -0.7654 -0.5440 -0.0191
    3MOL   H312 1156   2.977   6.696   7.537 -0.6022 -0.1088  0.0246
    3MOL   H313 1157   2.755   6.699   7.393  0.2420  1.6294  1.6466
    3MOL   H314 1158   2.788   6.665   7.142 -0.5621  0.5947  1.3291
    3MOL   H315 1159   2.978   6.760   6.659  0.1886  0.8806 -1.9763
    3MOL   H316 1160   2.952   6.930   6.652  0.9589 -0.1825 -0.3157
    3MOL   C317 1161   2.772   6.791   6.628 -0.2239  0.2414 -0.0482
    3MOL   O318 1162   2.800   6.734   6.508 -0.0970 -0.0768  0.5398
    3MOL   C319 1163   2.737   6.610   6.475  0.7125 -0.2791  0.7246
    3MOL   O320 1164   2.801   6.506   6.534 -0.1998  0.4357 -0.6457
    3MOL   C321 1165   2.891   6.436   6.457  0.3640  0.0801 -0.4793
    3MOL   C322 1166   2.913   6.299   6.497  0.1446 -0.5632 -0.8149
    3MOL   C323 1167   3.009   6.218   6.440 -0.1534 -0.5544 -0.2816
    3MOL   C324 1168   3.088   6.277   6.338 -0.1532  0.5035  0.3352
    3MOL   C325 1169   3.067   6.408   6.292  0.1732 -0.6603 -0.5828
    3MOL   C326 1170   2.968   6.487   6.352  0.1507 -0.4914 -0.0798
    3MOL   C327 1171   2.675   6.911   6.608  0.3286  0.2337  0.2153
    3MOL   H328 1172   2.725   6.711   6.685  1.2288 -1.4750 -1.2292
    3MOL   H329 1173   2.722   6.589   6.369  2.3263 -0.1362  0.4588
    3MOL   H330 1174   2.644   6.600   6.530  0.5135  0.4093  0.5129
    3MOL   H331 1175   2.853   6.254   6.575  0.3788  0.0951 -0.2459
    3MOL   H332 1176   3.016   6.119   6.483  1.1933 -0.6374 -0.6854
    3MOL   H333 1177   3.151   6.212   6.280 -2.9320 -2.0837  0.0854
    3MOL   H334 1178   3.133   6.439   6.212  1.3766 -1.6471  0.0176
    3MOL   H335 1179   2.953   6.586   6.313 -0.5559  0.0546  1.5227
    3MOL   H336 1180   2.678   6.967   6.702  0.7283  0.2332  0.2056
    3MOL   H337 1181   2.732   6.976   6.541  0.1452 -1.0577 -1.2205
    3MOL   C338 1182   2.527   6.882   6.560 -0.4888 -0.8105  0.0884
    3MOL   O339 1183   2.473   6.798   6.673  0.5450 -0.4218 -0.0075
    3MOL   C340 1184   2.345   6.739   6.652  0.3360  0.1171 -0.1962
    3MOL   O341 1185   2.327   6.666   6.539 -0.6656 -0.1204  0.8846
    3MOL   C342 1186   2.378   6.536   6.533  1.0261  0.1801 -0.2009
    3MOL   C343 1187   2.377   6.463   6.415  0.5373  0.4706 -0.1058
    3MOL   C344 1188   2.424   6.330   6.400 -0.1994 -0.6465 -1.0300
    3MOL   C345 1189   2.477   6.268   6.514  0.7958  0.2575  0.2431
    3MOL   C346 1190   2.480   6.333   6.634 -0.2508  0.1524  0.1473
    3MOL   C347 1191   2.431   6.468   6.643  0.3764  0.7616 -0.2988
    3MOL   C348 1192   2.436   7.006   6.533  0.2560  0.1026  0.1366
    3MOL   H349 1193   2.540   6.817   6.473 -0.4174 -0.9164  0.1795
    3MOL   H350 1194   2.269   6.817   6.641 -2.1362 -2.1279  0.4831
    3MOL   H351 1195   2.318   6.687   6.744 -0.6925  0.7169 -0.1493
    3MOL   H352 1196   2.345   6.516   6.327 -0.3063 -1.3319 -0.9017
    3MOL   H353 1197   2.421   6.280   6.305  0.5152 -2.3094 -0.1985
    3MOL   H354 1198   2.535   6.177   6.504  2.5778  1.5026 -1.0913
    3MOL   H355 1199   2.532   6.285   6.715  0.5714  0.5930 -0.1140
    3MOL   H356 1200   2.432   6.516   6.740  0.0203  1.4967 -0.6598
    3MOL   H357 1201   2.432   7.077   6.615 -3.0861 -0.3653  0.4583
    3MOL   H358 1202   2.334   6.972   6.515 -0.6025  3.2160 -1.0859
    3MOL   C359 1203   2.479   7.079   6.401  0.3402  0.2135  0.8770
    3MOL   O360 1204   2.408   7.201   6.411 -0.6676  0.1552  0.3040
    3MOL   C361 1205   2.484   7.322   6.431 -0.0595  0.7622  0.2442
    3MOL   O362 1206   2.554   7.324   6.555  0.0117 -0.1806  0.2550
    3MOL   C363 1207   2.478   7.348   6.671  0.3812  0.9230 -0.6300
    3MOL   C364 1208   2.335   7.351   6.682 -0.1954  0.5356 -0.3656
    3MOL   C365 1209   2.271   7.357   6.806 -0.6382  0.3534  0.7658
    3MOL   C366 1210   2.342   7.351   6.925  0.1601  0.5718  0.5297
    3MOL   C367 1211   2.484   7.347   6.921  0.6189 -0.4476 -0.1807
    3MOL   C368 1212   2.551   7.345   6.794 -0.1950  0.0763 -0.3710
    3MOL   C369 1213   2.445   7.002   6.265 -0.7193 -0.3062 -0.2767
    3MOL   H370 1214   2.585   7.101   6.411  0.5175 -1.1290  2.2278
    3MOL   H371 1215   2.420   7.408   6.410  0.0981  0.6444 -0.7571
    3MOL   H372 1216   2.554   7.320   6.347  0.7624  1.7141  0.8914
    3MOL   H373 1217   2.275   7.336   6.594 -1.1115 -0.3112  0.3891
    3MOL   H374 1218   2.164   7.361   6.796 -0.6152 -0.1722  0.2955
    3MOL   H375 1219   2.302   7.345   7.025  1.7482 -1.9106  1.0820
    3MOL   H376 1220   2.539   7.336   7.013  0.0229 -2.4770 -0.0454
    3MOL   H377 1221   2.659   7.342   6.799 -0.3071 -1.1422  1.8405
    3MOL   H378 1222   2.359   7.048   6.218 -2.2511 -0.9267  1.8194
    3MOL   H379 1223   2.421   6.897   6.283  0.3529 -0.8214 -1.7313
    3MOL   C380 1224   2.556   7.021   6.156 -0.3869 -0.0717 -0.0998
    3MOL   O381 1225   2.534   7.152   6.102  0.4027  0.1183  0.8646
    3MOL   C382 1226   2.644   7.217   6.046 -0.1382  1.0962 -0.2207
    3MOL   O383 1227   2.601   7.330   5.981  0.2547 -0.1205 -0.7989
    3MOL   C384 1228   2.542   7.433   6.060  0.2561  0.1175  0.1885
    3MOL   C385 1229   2.411   7.435   6.107 -0.4764 -0.3193  0.2258
    3MOL   C386 1230   2.366   7.536   6.182 -0.1618  0.0623 -0.3705
    3MOL   C387 1231   2.447   7.648   6.217 -0.8358 -0.3924 -0.1440
    3MOL   C388 1232   2.582   7.645   6.181 -0.0196  0.6453 -0.4411
    3MOL   C389 1233   2.626   7.539   6.101  0.2208 -0.0476  0.4753
    3MOL   C390 1234   2.558   6.906   6.056 -0.6362  0.4163  0.3834
    3MOL   H391 1235   2.650   7.016   6.211 -0.0471 -1.6857 -0.8194
    3MOL   H392 1236   2.718   7.231   6.125  1.7576  3.0671 -2.2471
    3MOL   H393 1237   2.689   7.165   5.961 -2.8825 -0.4834 -0.7394
    3MOL   H394 1238   2.344   7.359   6.069 -0.8434 -0.0949  0.4336
    3MOL   H395 1239   2.265   7.545   6.219 -0.6499  2.1342 -2.0850
    3MOL   H396 1240   2.410   7.730   6.277  0.7355  0.6859 -0.6166
    3MOL   H397 1241   2.643   7.732   6.199 -0.8794  1.4954 -1.5283
    3MOL   H398 1242   2.731   7.535   6.078 -0.3727  0.8677 -2.5629
    3MOL   H399 1243   2.624   6.924   5.971 -2.2245 -1.2158 -1.2303
    3MOL   H400 1244   2.461   6.887   6.011  0.6275  0.6331 -2.5656
    3MOL   C401 1245   2.609   6.773   6.109  0.0467 -0.2457  0.6350
    3MOL   O402 1246   2.592   6.677   6.010  0.1954  0.0240 -0.0693
    3MOL   C403 1247   2.537   6.561   6.063  0.0663 -0.4278  0.6556
    3MOL   O404 1248   2.606   6.493   6.159 -0.1715  0.2182 -0.4583
    3MOL   C405 1249   2.703   6.407   6.114  0.1570  0.4067  0.4224
    3MOL   C406 1250   2.718   6.283   6.175  0.3831  0.3809  0.0337
    3MOL   C407 1251   2.822   6.196   6.138  0.7758 -0.3856  0.1409
    3MOL   C408 1252   2.906   6.225   6.028 -0.1637 -0.5161  0.1047
    3MOL   C409 1253   2.889   6.341   5.959 -0.6387 -0.3135 -0.3160
    3MOL   C410 1254   2.790   6.434   6.004  0.6782  0.8272  0.0802
    3MOL   C411 1255   2.765   6.781   6.140 -0.7774 -0.2767  0.6349
    3MOL   H412 1256   2.548   6.745   6.195  0.8001 -0.1232  1.2168
    3MOL   H413 1257   2.510   6.491   5.983  0.5890  1.7761 -1.5070
    3MOL   H414 1258   2.443   6.590   6.109  0.2202 -2.9097  2.6665
    3MOL   H415 1259   2.667   6.256   6.266  1.5366 -1.6596  0.1084
    3MOL   H416 1260   2.827   6.100   6.187 -1.2293 -0.1783  0.7986
    3MOL   H417 1261   2.975   6.153   5.988  1.8060  0.1855  2.1611
    3MOL   H418 1262   2.943   6.383   5.876  0.7473  0.7090  1.0593
    3MOL   H419 1263   2.779   6.533   5.961 -1.1157  0.0395 -1.3578
    3MOL   H420 1264   2.828   6.820   6.060 -1.4312  0.6660  0.5610
    3MOL   H421 1265   2.809   6.687   6.172 -0.8742 -0.7000 -0.4395
    3MOL   H422 1266   2.768   6.847   6.227  2.5482  0.5130  0.0026
    4MOL     C1 1267   7.168   0.594   6.962 -0.1302  0.1798 -0.3751
    4MOL     O2 1268   7.209   0.724   6.924  0.2778  0.4242  0.0280
    4MOL     C3 1269   7.146   0.772   6.804  0.0811  0.6363  0.2772
    4MOL     O4 1270   7.008   0.795   6.821 -0.4301 -0.0001 -0.2876
    4MOL     C5 1271   6.976   0.905   6.898  0.6457 -0.6383 -0.0984
    4MOL     C6 1272   6.841   0.926   6.922 -0.0027  0.3279  0.2392
    4MOL     C7 1273   6.799   1.042   6.984 -0.0910  0.1068  0.0487
    4MOL     C8 1274   6.889   1.141   7.037 -0.6809  0.0746 -0.3940
    4MOL     C9 1275   7.025   1.108   7.031 -0.1488  0.2973 -0.2076
    4MOL    C10 1276   7.070   0.992   6.959 -0.4224  0.2217 -0.3149
    4MOL    C11 1277   7.241   0.571   7.105 -0.4195 -0.0468 -0.4307
    4MOL    H12 1278   7.060   0.602   6.974 -0.1873 -3.1964  1.9727
    4MOL    H13 1279   7.201   0.863   6.784 -1.1435  1.2354 -0.4448
    4MOL    H14 1280   7.172   0.699   6.727 -2.8499 -0.2886  0.0735
    4MOL    H15 1281   6.768   0.858   6.880 -0.1254  1.2856 -1.1351
    4MOL    H16 1282   6.694   1.064   6.986 -0.1330 -0.1747  1.1490
    4MOL    H17 1283   6.856   1.224   7.098  4.1418  2.6543 -1.0464
    4MOL    H18 1284   7.095   1.178   7.074  0.9029  0.2453 -1.7863
    4MOL    H19 1285   7.176   0.974   6.962 -0.8202 -2.0944  0.3576
    4MOL    H20 1286   7.224   0.667   7.154 -1.9097  0.7438 -2.4538
    4MOL    H21 1287   7.350   0.567   7.093 -0.1054 -1.2586  2.4329
    4MOL    H22 1288   7.187   0.521   6.884  3.9045  0.4986  0.1863
    4MOL    C23 1289   7.198   0.449   7.184 -0.4361  0.7087 -0.3515
    4MOL    O24 1290   7.274   0.464   7.309  0.5374  0.1507 -0.3599
    4MOL    C25 1291   7.205   0.414   7.419 -1.1664 -0.1070 -0.1363
    4MOL    O26 1292   7.075   0.466   7.443  0.1564 -0.0994 -0.0607
    4MOL    C27 1293   7.049   0.603   7.424  0.0187 -0.0149 -0.4545
    4MOL    C28 1294   6.914   0.637   7.401 -0.0097 -1.1508  0.6990
    4MOL    C29 1295   6.880   0.769   7.363 -0.5025 -0.4741  0.0427
    4MOL    C30 1296   6.975   0.875   7.368  0.1745 -0.1784 -0.2740
    4MOL    C31 1297   7.108   0.837   7.401  0.2408  0.1715  0.7445
    4MOL    C32 1298   7.147   0.704   7.422 -0.4313 -0.1139 -0.2843
    4MOL    C33 1299   7.228   0.310   7.129 -0.2320 -0.5683 -0.0521
    4MOL    H34 1300   7.089   0.453   7.191 -0.3608  2.8728 -0.0683
    4MOL    H35 1301   7.269   0.423   7.506 -1.1829 -3.0082  0.2201
    4MOL    H36 1302   7.196   0.306   7.414 -0.1956 -0.1998  0.1570
    4MOL    H37 1303   6.839   0.560   7.388  1.0392 -2.0338 -0.2354
    4MOL    H38 1304   6.776   0.793   7.347 -0.2167  0.8612  0.0743
    4MOL    H39 1305   6.949   0.980   7.358 -0.5913 -0.3468 -0.0690
    4MOL    H40 1306   7.191   0.905   7.397 -0.4817  0.9657 -1.7956
    4MOL    H41 1307   7.250   0.676   7.442 -0.2550  0.2973 -0.6057
    4MOL    H42 1308   7.239   0.230   7.202  0.6505 -0.5336 -0.1399
    4MOL    H43 1309   7.326   0.322   7.084 -0.1913 -1.0287 -0.0899
    4MOL    C44 1310   7.130   0.248   7.033  0.5650  0.0004 -0.0644
    4MOL    O45 1311   7.019   0.210   7.108  0.4115 -0.0638  0.8811
    4MOL    C46 1312   6.889   0.221   7.052  0.3041  0.0922  1.0161
    4MOL    O47 1313   6.855   0.351   7.011  0.2360  0.0989 -0.3370
    4MOL    C48 1314   6.722   0.380   6.994 -0.5489  0.1156 -0.1414
    4MOL    C49 1315   6.626   0.282   6.987  0.0880  0.3121 -0.4690
    4MOL    C50 1316   6.490   0.317   6.967 -0.3464 -0.1467  0.7679
    4MOL    C51 1317   6.457   0.452   6.963 -0.4712 -0.0590 -0.3189
    4MOL    C52 1318   6.553   0.551   6.981 -0.1852  0.2212  0.0303
    4MOL    C53 1319   6.688   0.516   6.989  0.6347 -0.1983 -0.0778
    4MOL    C54 1320   7.193   0.131   6.943 -0.3415 -1.4086 -0.0832
    4MOL    H55 1321   7.105   0.336   6.974 -1.6277  0.9743  2.2405
    4MOL    H56 1322   6.822   0.181   7.128  0.6303 -1.0975  0.7005
    4MOL    H57 1323   6.882   0.154   6.966  3.1601  1.8531 -0.6452
    4MOL    H58 1324   6.644   0.176   6.988 -0.7591  0.1528  1.8678
    4MOL    H59 1325   6.416   0.240   6.951  0.3999 -1.0099  1.4399
    4MOL    H60 1326   6.357   0.490   6.947 -1.4712 -1.3302  2.6086
    4MOL    H61 1327   6.527   0.656   6.982  0.2803  0.3797 -2.5922
    4MOL    H62 1328   6.771   0.585   6.994  1.1258 -0.6557 -1.6207
    4MOL    H63 1329   7.114   0.097   6.876 -2.7532  1.4339  1.2395
    4MOL    H64 1330   7.264   0.179   6.876  0.9687 -2.4638  0.5352
    4MOL    C65 1331   7.265   0.018   7.002  0.6781  0.2022  0.1798
    4MOL    O66 1332   7.386   0.062   7.058 -0.4144 -0.2836  0.2664
    4MOL    C67 1333   7.499   7.952   7.033 -0.4159 -0.3116  0.3588
    4MOL    O68 1334   7.528   7.966   6.895  0.2052  0.0619 -0.3134
    4MOL    C69 1335   7.583   0.108   6.851 -0.3124 -0.0747  0.3359
    4MOL    C70 1336   7.657   0.103   6.732  0.1733  0.4196 -0.1150
    4MOL    C71 1337   7.734   0.209   6.690 -0.4540 -0.8553  0.1845
    4MOL    C72 1338   7.722   0.331   6.759 -0.6348  0.1085  0.7168
    4MOL    C73 1339   7.651   0.346   6.875  0.0911 -0.0838 -0.2497
    4MOL    C74 1340   7.580   0.231   6.922  1.2215 -0.5344 -0.2112
    4MOL    C75 1341   7.203   7.912   7.110  0.2507 -0.7970  0.1634
    4MOL    H76 1342   7.289   7.922   6.923 -0.1877 -0.1752  0.2438
    4MOL    H77 1343   7.486   7.845   7.048 -2.2537 -0.4903 -2.1651
    4MOL    H78 1344   7.580   0.010   7.097  0.6705 -1.1419 -0.5663
    4MOL    H79 1345   7.669   0.011   6.677  2.4968  0.9144 -0.5152
    4MOL    H80 1346   7.788   0.191   6.599 -2.3682 -0.4084 -1.0625
    4MOL    H81 1347   7.762   0.419   6.710  0.2459 -0.0364  1.1593
    4MOL    H82 1348   7.645   0.438   6.932 -0.3740  0.4326 -1.1301
    4MOL    H83 1349   7.529   0.231   7.017  2.3089  2.1928  0.4114
    4MOL    H84 1350   7.270   7.831   7.137 -0.2065 -0.2966  2.9069
    4MOL    H85 1351   7.188   0.007   7.192  1.3276  0.9410 -1.1072
    4MOL    C86 1352   7.063   7.852   7.080  0.0079 -0.3130  0.0885
    4MOL    O87 1353   7.060   7.807   6.940  0.5965  0.5903 -0.1246
    4MOL    C88 1354   6.931   7.790   6.884  0.0182 -0.2578  0.8502
    4MOL    O89 1355   6.887   7.916   6.835 -0.4486 -0.0013 -0.3777
    4MOL    C90 1356   6.918   7.948   6.706  0.0388 -0.6639 -0.2299
    4MOL    C91 1357   6.820   0.038   6.627 -0.0662  0.4720 -0.5509
    4MOL    C92 1358   6.841   0.056   6.492  0.2202  0.3181  0.2315
    4MOL    C93 1359   6.959   0.015   6.432 -0.7782 -0.8788  0.5784
    4MOL    C94 1360   7.055   7.921   6.500  0.5540 -0.1270  0.7696
    4MOL    C95 1361   7.035   7.906   6.639  0.3297  0.7791  0.5577
    4MOL    C96 1362   7.022   7.747   7.190  0.1097  0.3630  0.2991
    4MOL    H97 1363   6.989   7.931   7.090  0.3693  0.0070  0.2163
    4MOL    H98 1364   6.857   7.747   6.952  1.4268 -0.7299  2.1213
    4MOL    H99 1365   6.948   7.713   6.808 -0.2900  0.3641  0.1537
    4MOL   H100 1366   6.732   0.082   6.673  0.6219  2.3716 -0.9902
    4MOL   H101 1367   6.772   0.123   6.443  0.5469  0.5022  0.0198
    4MOL   H102 1368   6.986   0.032   6.329 -2.4863 -1.6827 -0.0205
    4MOL   H103 1369   7.147   7.884   6.459  0.1256 -1.2268  0.7777
    4MOL   H104 1370   7.110   7.849   6.691 -1.1611 -1.8646 -0.1009
    4MOL   H105 1371   6.928   7.701   7.160 -0.6100  1.2585  1.1822
    4MOL   H106 1372   7.089   7.662   7.205  0.8665  0.5640 -1.6711
    4MOL   C107 1373   6.998   7.803   7.334 -0.0802  0.4751  0.1230
    4MOL   O108 1374   6.890   7.723   7.397 -0.3406 -0.4132 -0.4008
    4MOL   C109 1375   6.770   7.789   7.390  0.1181  0.5679  0.1332
    4MOL   O110 1376   6.730   7.812   7.262  0.2701  0.4783 -0.3385
    4MOL   C111 1377   6.611   7.871   7.236  0.4230  0.3811  0.1408
    4MOL   C112 1378   6.591   7.905   7.104  1.5100  0.1319 -0.3896
    4MOL   C113 1379   6.461   7.948   7.069  0.0858 -0.3711 -0.0459
    4MOL   C114 1380   6.359   7.975   7.164  0.3260 -0.3176 -0.0010
    4MOL   C115 1381   6.388   7.943   7.296  0.3409 -0.1546 -0.0774
    4MOL   C116 1382   6.512   7.890   7.331 -0.1879 -0.1959  0.2968
    4MOL   C117 1383   7.123   7.787   7.426 -0.5574 -0.4820  0.1668
    4MOL   H118 1384   6.982   7.910   7.325 -1.2894  0.3582  0.7958
    4MOL   H119 1385   6.769   7.885   7.442 -1.1316  0.5771  0.0885
    4MOL   H120 1386   6.700   7.719   7.434  0.0562  2.2790  2.8729
    4MOL   H121 1387   6.660   7.881   7.025  1.4434 -1.2305 -0.0506
    4MOL   H122 1388   6.452   7.966   6.963  0.8018  0.1620 -0.0249
    4MOL   H123 1389   6.268   0.047   7.129  0.9567 -0.8710 -2.5180
    4MOL   H124 1390   6.308   7.962   7.365 -2.2883 -0.0702 -3.0385
    4MOL   H125 1391   6.532   7.873   7.435 -3.3639  0.9084  1.1437
    4MOL   H126 1392   7.200   7.835   7.366  1.3142 -2.4973  0.8973
    4MOL   H127 1393   7.148   7.681   7.424 -0.2150 -0.3931 -0.6530
    4MOL   C128 1394   7.113   7.851   7.562  0.4290  0.2372 -0.2633
    4MOL   O129 1395   7.248   7.876   7.613 -0.0815  0.0813  0.4742
    4MOL   C130 1396   7.284   0.034   7.622 -0.2200  0.4885 -0.3013
    4MOL   O131 1397   7.320   0.094   7.500  0.1122  0.3776  0.2371
    4MOL   C132 1398   7.445   0.057   7.450 -0.0702  0.1669  0.3407
    4MOL   C133 1399   7.506   0.157   7.368  0.0380  0.5312  0.4963
    4MOL   C134 1400   7.636   0.137   7.318 -0.5178  0.8366  0.4505
    4MOL   C135 1401   7.708   0.027   7.359 -0.0524  0.2686  0.6970
    4MOL   C136 1402   7.649   7.900   7.438  0.4636  0.1397  0.5064
    4MOL   C137 1403   7.518   7.921   7.486 -1.0886  0.7068  0.2182
    4MOL   C138 1404   7.035   7.769   7.664 -0.2982 -0.4183 -0.1351
    4MOL   H139 1405   7.070   7.949   7.544  0.2570  0.4559  1.2694
    4MOL   H140 1406   7.363   0.044   7.696  2.8616 -1.1694 -3.2322
    4MOL   H141 1407   7.206   0.093   7.671 -1.3377 -1.0673 -0.2051
    4MOL   H142 1408   7.452   0.250   7.360  1.6752  1.4734  0.0331
    4MOL   H143 1409   7.684   0.218   7.265 -1.3741  0.0929 -1.5075
    4MOL   H144 1410   7.810   0.011   7.328  0.2568 -1.7363  2.6053
    4MOL   H145 1411   7.709   7.816   7.469  1.0403 -0.2080 -1.4937
    4MOL   H146 1412   7.463   7.848   7.545 -0.0908  1.7651  2.5258
    4MOL   H147 1413   6.942   7.725   7.628 -0.6282 -0.3464  0.6185
    4MOL   H148 1414   7.095   7.680   7.685  0.1005 -0.1358 -0.0756
    4MOL   C149 1415   6.989   7.842   7.793  0.1048  0.4281 -0.9223
    4MOL   O150 1416   6.877   7.915   7.745 -0.0936 -0.3220 -0.1896
    4MOL   C151 1417   6.839   0.051   7.821 -0.0842 -0.4761  0.1401
    4MOL   O152 1418   6.716   0.093   7.770 -0.0978 -0.2393 -0.2536
    4MOL   C153 1419   6.711   0.144   7.643  0.2181  0.1835 -0.5152
    4MOL   C154 1420   6.823   0.198   7.571 -0.7825  0.3069 -0.2597
    4MOL   C155 1421   6.807   0.234   7.435  0.2328 -0.7655  0.1012
    4MOL   C156 1422   6.680   0.241   7.374  0.0722  0.0269  0.2049
    4MOL   C157 1423   6.569   0.217   7.455  0.3597  0.6070 -0.1235
    4MOL   C158 1424   6.584   0.164   7.584 -0.4329 -0.6144 -0.8225
    4MOL   C159 1425   6.953   7.733   7.904  0.6455 -0.0855 -0.1405
    4MOL   H160 1426   7.065   7.911   7.829  0.5669 -0.8010  0.5197
    4MOL   H161 1427   6.835   0.024   7.926  2.4484 -0.5410  0.2472
    4MOL   H162 1428   6.918   0.125   7.813  1.1939 -1.8661 -0.2243
    4MOL   H163 1429   6.925   0.208   7.603 -0.5343  1.0369 -1.2691
    4MOL   H164 1430   6.889   0.254   7.368  0.8321 -2.0893  0.4139
    4MOL   H165 1431   6.670   0.278   7.273  0.2499  4.2878  1.6532
    4MOL   H166 1432   6.468   0.238   7.424  0.6865  0.9263 -0.9954
    4MOL   H167 1433   6.497   0.148   7.646  1.3489 -0.1834  1.9062
    4MOL   H168 1434   6.901   7.654   7.849 -0.0773 -1.3850  2.3190
    4MOL   H169 1435   6.875   7.763   7.975 -0.4464 -1.8255 -0.5672
    4MOL   C170 1436   7.074   7.670   7.972 -0.2813 -0.5250 -0.0644
    4MOL   O171 1437   7.126   7.775   0.078  0.3906  0.6079  0.1719
    4MOL   C172 1438   7.231   7.732   0.162  0.0681  0.7158 -0.4997
    4MOL   O173 1439   7.348   7.688   0.092 -0.2616  0.2028 -0.3097
    4MOL   C174 1440   7.431   7.780   0.032 -0.0136 -0.1267  0.4811
    4MOL   C175 1441   7.548   7.736   7.949 -0.7801  0.2024 -0.0603
    4MOL   C176 1442   7.642   7.820   7.893  0.6177  0.1150 -0.0156
    4MOL   C177 1443   7.617   7.954   7.891 -0.1092 -0.7289 -0.5986
    4MOL   C178 1444   7.503   0.033   7.953 -0.1948 -0.0202  0.0660
    4MOL   C179 1445   7.407   7.924   0.034  0.1894  0.2173  0.0659
    4MOL   C180 1446   7.038   7.539   0.077 -0.1102 -0.3772  0.2677
    4MOL   H181 1447   7.145   7.646   7.892 -2.4210 -1.8550 -1.6002
    4MOL   H182 1448   7.189   7.652   0.224  0.1769 -0.2195 -1.6311
    4MOL   H183 1449   7.256   7.809   0.235  0.1707  0.3678 -0.1660
    4MOL   H184 1450   7.579   7.633   7.959  2.9812  1.3715  1.1508
    4MOL   H185 1451   7.733   7.787   7.846  0.5444 -0.1809  0.0501
    4MOL   H186 1452   7.689   0.048   7.851 -2.0572  1.5012 -0.3357
    4MOL   H187 1453   7.489   0.140   7.949  0.7195  0.1479  1.2007
    4MOL   H188 1454   7.318   7.961   0.084 -1.0079 -1.0157 -1.0759
    4MOL   H189 1455   7.130   7.497   0.118 -0.1631 -0.3602  0.4062
    4MOL   H190 1456   6.963   7.546   0.155  0.9222  1.7308  1.1279
    4MOL   C191 1457   6.998   7.415   7.967  0.2301 -0.1267  0.4461
    4MOL   O192 1458   6.982   7.302   0.084 -0.7358 -0.5886  0.4602
    4MOL   C193 1459   6.859   7.301   0.149  0.4440  0.0725  0.3679
    4MOL   O194 1460   6.781   7.189   0.108  0.0440  0.3606 -0.8704
    4MOL   C195 1461   6.811   7.065   0.150 -0.2034 -0.3854 -0.0367
    4MOL   C196 1462   6.713   6.966   0.128 -0.2910 -0.7844 -0.2486
    4MOL   C197 1463   6.736   6.833   0.151  0.1906  0.3836 -0.0023
    4MOL   C198 1464   6.845   6.801   0.237  0.3000  0.0566 -0.0558
    4MOL   C199 1465   6.949   6.895   0.258 -0.6632  0.7873  0.6300
    4MOL   C200 1466   6.930   7.029   0.218 -0.3894  0.7643 -0.0360
    4MOL   C201 1467   7.097   7.380   7.856  0.4735  0.1499  0.3133
    4MOL   H202 1468   6.904   7.433   7.915  2.1678  1.7384 -2.5247
    4MOL   H203 1469   6.806   7.395   0.135 -2.3298 -1.8808 -3.2504
    4MOL   H204 1470   6.888   7.291   0.254  1.2351 -2.6273 -0.0598
    4MOL   H205 1471   6.617   6.991   0.087 -0.7752  0.0485  1.3398
    4MOL   H206 1472   6.663   6.759   0.123  0.6306  0.9548 -2.8662
    4MOL   H207 1473   6.855   6.701   0.276 -0.9837 -1.6365 -3.7984
    4MOL   H208 1474   7.042   6.873   0.307  0.3477 -2.5050 -2.6199
    4MOL   H209 1475   7.006   7.103   0.235 -0.7905  0.9544  0.9677
    4MOL   H210 1476   7.125   7.468   7.797  0.6142 -0.2630 -0.2473
    4MOL   H211 1477   7.194   7.363   7.903 -0.3163 -0.1168  1.8519
    4MOL   C212 1478   7.042   7.256   7.776  0.9642 -0.0499  1.0183
    4MOL   O213 1479   7.059   7.287   7.633 -0.3067 -0.1386  0.1206
    4MOL   C214 1480   6.950   7.359   7.584  0.0612  0.2735 -0.0905
    4MOL   O215 1481   6.825   7.308   7.614 -0.1071 -0.0552 -0.5296
    4MOL   C216 1482   6.740   7.391   7.692 -0.1872  0.3329 -0.0626
    4MOL   C217 1483   6.661   7.325   7.787 -0.0601 -0.1334 -0.0478
    4MOL   C218 1484   6.565   7.401   7.854  0.3176  0.4747 -0.7161
    4MOL   C219 1485   6.554   7.541   7.840 -0.3280  0.7783 -0.0742
    4MOL   C220 1486   6.628   7.607   7.742  0.4326 -0.2734 -0.3400
    4MOL   C221 1487   6.715   7.531   7.661  0.2498 -0.6268  0.1325
    4MOL   C222 1488   7.128   7.132   7.805  0.1312 -0.4844 -0.0929
    4MOL   H223 1489   6.940   7.240   7.810 -0.0743  0.7199 -1.5625
    4MOL   H224 1490   6.970   7.365   7.477 -0.2190 -0.4367 -0.1878
    4MOL   H225 1491   6.961   7.465   7.609  1.1664  0.4315 -1.1428
    4MOL   H226 1492   6.668   7.219   7.808  1.0433 -0.6940 -3.0595
    4MOL   H227 1493   6.501   7.355   7.928  0.2311  0.3883 -0.8438
    4MOL   H228 1494   6.474   7.591   7.894 -1.6834 -1.5729  0.1572
    4MOL   H229 1495   6.622   7.711   7.711  1.7323 -0.1845 -0.3405
    4MOL   H230 1496   6.761   7.569   7.571 -2.0072 -0.5062 -1.0021
    4MOL   H231 1497   7.228   7.155   7.767  0.4740 -1.9905 -0.1390
    4MOL   H232 1498   7.141   7.105   7.910 -0.7995 -0.1560  0.1089
    4MOL   C233 1499   7.083   7.004   7.731 -0.0076  0.4300 -0.3611
    4MOL   O234 1500   7.192   6.912   7.747 -0.0474 -0.6195  0.5959
    4MOL   C235 1501   7.283   6.905   7.642 -0.0534  0.2158  0.0136
    4MOL   O236 1502   7.225   6.885   7.516 -1.0669 -0.0341  0.7497
    4MOL   C237 1503   7.160   6.767   7.479 -0.7572  0.2278  0.3814
    4MOL   C238 1504   7.140   6.747   7.341 -0.1394  0.0012  0.2463
    4MOL   C239 1505   7.086   6.632   7.289 -0.0697 -0.1067  0.1736
    4MOL   C240 1506   7.049   6.529   7.370 -0.0270 -0.1462  0.3587
    4MOL   C241 1507   7.079   6.540   7.510  0.0480 -0.1552 -0.0563
    4MOL   C242 1508   7.133   6.660   7.562 -0.3283  0.7214 -0.8481
    4MOL   C243 1509   6.954   6.940   7.794 -0.0041  0.2879 -0.3545
    4MOL   H244 1510   7.067   7.025   7.626  0.0484 -0.1909 -0.4910
    4MOL   H245 1511   7.357   6.828   7.660  0.0581  0.0753 -1.0023
    4MOL   H246 1512   7.346   6.994   7.639 -0.6570  0.7685  2.5257
    4MOL   H247 1513   7.159   6.824   7.267 -0.9163  0.4273  0.4840
    4MOL   H248 1514   7.062   6.632   7.183  0.2930  0.9938  0.0878
    4MOL   H249 1515   6.983   6.449   7.338  0.7067 -0.6908  0.1981
    4MOL   H250 1516   7.054   6.469   7.587  0.4432 -0.5924 -0.3279
    4MOL   H251 1517   7.148   6.666   7.669 -0.6608 -2.1294 -0.6145
    4MOL   H252 1518   6.989   6.880   7.878  0.0404 -0.0240 -0.5933
    4MOL   H253 1519   6.896   7.025   7.830 -0.4546  1.0612 -2.8431
    4MOL   C254 1520   6.863   6.860   7.695 -0.1866  1.1362  0.3396
    4MOL   O255 1521   6.784   6.770   7.772  0.3381 -0.4343  0.2153
    4MOL   C256 1522   6.835   6.656   7.829  0.0503 -0.5136 -0.2926
    4MOL   O257 1523   6.829   6.556   7.735  0.0780  0.5640  0.2946
    4MOL   C258 1524   6.790   6.434   7.785 -0.6749  0.5698  0.2054
    4MOL   C259 1525   6.826   6.390   7.915 -0.0077  0.5461  0.7404
    4MOL   C260 1526   6.760   6.280   7.967 -0.2238  0.2426 -0.1073
    4MOL   C261 1527   6.649   6.221   7.903 -0.7540  0.0423 -0.2413
    4MOL   C262 1528   6.619   6.262   7.774  0.3122  0.1697 -0.2676
    4MOL   C263 1529   6.701   6.360   7.705  0.3509  0.1858 -0.4085
    4MOL   C264 1530   6.790   6.953   7.607 -0.0908  0.1869 -0.1122
    4MOL   H265 1531   6.917   6.792   7.629  0.2598  1.9765 -0.1530
    4MOL   H266 1532   6.763   6.641   7.910 -0.3930  1.2999 -0.3346
    4MOL   H267 1533   6.936   6.662   7.869  0.4140  0.6329 -1.3540
    4MOL   H268 1534   6.904   6.441   7.969  1.0251  2.0231 -2.0526
    4MOL   H269 1535   6.776   6.243   0.092 -2.4346 -0.2553  0.0780
    4MOL   H270 1536   6.592   6.141   7.948 -1.9792  1.1750  0.2419
    4MOL   H271 1537   6.529   6.222   7.729 -0.9018  1.2135  1.1777
    4MOL   H272 1538   6.666   6.386   7.606  2.4891  0.2143 -1.1874
    4MOL   H273 1539   6.708   7.009   7.651 -2.8642 -3.1206 -0.8684
    4MOL   H274 1540   6.868   7.026   7.586  0.2865 -0.8929 -2.6448
    4MOL   C275 1541   6.739   6.893   7.476 -0.3287 -0.4777 -1.3042
    4MOL   O276 1542   6.623   6.818   7.497  0.1098 -0.3066  0.3033
    4MOL   C277 1543   6.643   6.686   7.481  0.7500 -0.1345 -0.6338
    4MOL   O278 1544   6.661   6.653   7.348 -0.1266  0.3097  0.1114
    4MOL   C279 1545   6.543   6.641   7.268  0.6978  0.6808 -0.3092
    4MOL   C280 1546   6.568   6.595   7.138 -0.4811  0.3623 -0.2667
    4MOL   C281 1547   6.455   6.547   7.063  0.3159 -0.7599  0.5774
    4MOL   C282 1548   6.324   6.563   7.109 -0.1445  0.1667  0.1785
    4MOL   C283 1549   6.300   6.625   7.230  0.4366  0.3149 -0.5707
    4MOL   C284 1550   6.411   6.657   7.310  0.8032  0.3611 -0.0117
    4MOL   C285 1551   6.700   7.004   7.377 -0.4249 -0.8266  0.4016
    4MOL   H286 1552   6.822   6.837   7.431 -0.3180 -0.4643 -1.3024
    4MOL   H287 1553   6.575   6.621   7.536  0.8296 -0.2808 -0.7071
    4MOL   H288 1554   6.737   6.661   7.532  0.8313  1.0141 -0.2148
    4MOL   H289 1555   6.669   6.575   7.107 -0.0219  2.8719 -0.5257
    4MOL   H290 1556   6.484   6.500   6.970 -1.2167  1.0098 -0.8361
    4MOL   H291 1557   6.239   6.523   7.056  0.0330  0.4022 -0.2794
    4MOL   H292 1558   6.203   6.626   7.278  0.8860  0.9595  0.3384
    4MOL   H293 1559   6.379   6.690   7.408  0.3166 -0.7888  0.2269
    4MOL   H294 1560   6.678   7.100   7.424 -2.2220 -0.6437 -0.7821
    4MOL   H295 1561   6.605   6.975   7.333 -0.8656 -0.7597  1.2873
    4MOL   C296 1562   6.816   7.044   7.279 -0.2587 -0.4164  0.4255
    4MOL   O297 1563   6.782   6.996   7.145 -0.0665  0.1391  0.0542
    4MOL   C298 1564   6.835   6.873   7.126 -0.3931 -0.3369  0.0548
    4MOL   O299 1565   6.972   6.876   7.118  0.4063  0.0763 -0.3026
    4MOL   C300 1566   7.028   6.894   6.996 -0.2375 -0.4650  0.2784
    4MOL   C301 1567   7.153   6.831   6.972  1.1478  0.4755  0.2242
    4MOL   C302 1568   7.215   6.843   6.844 -0.2084 -0.0472 -0.4808
    4MOL   C303 1569   7.154   6.920   6.749 -0.3466  0.3583 -0.1640
    4MOL   C304 1570   7.031   6.983   6.771 -0.7293 -0.0507  0.0721
    4MOL   C305 1571   6.960   6.961   6.890 -0.0032  0.4740  0.2438
    4MOL   C306 1572   6.830   7.193   7.252  0.3843  0.2765  0.0173
    4MOL   H307 1573   6.911   7.005   7.315  0.1526 -0.0189 -0.2387
    4MOL   H308 1574   6.782   6.828   7.042 -2.3616 -0.5518  1.3544
    4MOL   H309 1575   6.810   6.799   7.203 -1.7288 -0.8193 -0.8329
    4MOL   H310 1576   7.206   6.788   7.055  1.1919  0.0121 -0.0414
    4MOL   H311 1577   7.317   6.809   6.833 -1.0347 -2.7797 -0.2696
    4MOL   H312 1578   7.212   6.946   6.661 -0.8558  1.2087 -0.2506
    4MOL   H313 1579   6.983   7.044   6.696 -3.1446  1.0157  2.4310
    4MOL   H314 1580   6.862   7.002   6.910  0.3895  1.2384  0.6044
    4MOL   H315 1581   6.840   7.245   7.347 -2.7038  0.8328  0.0997
    4MOL   H316 1582   6.735   7.230   7.213 -1.2497 -0.9039  2.7285
    4MOL   C317 1583   6.954   7.234   7.164 -0.1481  0.0236  0.6476
    4MOL   O318 1584   7.064   7.228   7.253  0.4233 -0.3959 -0.0150
    4MOL   C319 1585   7.183   7.176   7.200 -0.2864 -0.1051  0.0280
    4MOL   O320 1586   7.247   7.262   7.113 -0.6258  0.6783  0.8519
    4MOL   C321 1587   7.308   7.379   7.168  0.3475  1.0457 -0.2989
    4MOL   C322 1588   7.403   7.433   7.082 -0.7316 -0.4097 -0.0137
    4MOL   C323 1589   7.459   7.558   7.112  0.0969 -0.0362  0.6837
    4MOL   C324 1590   7.439   7.619   7.235 -0.0303 -0.6241  0.7298
    4MOL   C325 1591   7.364   7.558   7.332  0.5587 -0.0126  0.0609
    4MOL   C326 1592   7.281   7.445   7.299 -0.8344  0.4437  0.1513
    4MOL   C327 1593   6.934   7.375   7.099  0.2056  0.7769 -0.0235
    4MOL   H328 1594   6.964   7.160   7.085 -1.1038 -0.7488  1.2489
    4MOL   H329 1595   7.171   7.083   7.145  2.1186 -0.5242  0.1615
    4MOL   H330 1596   7.253   7.159   7.282 -0.7589 -0.5688  0.3334
    4MOL   H331 1597   7.423   7.400   6.981 -4.5572  0.8927 -1.2544
    4MOL   H332 1598   7.529   7.608   7.047  0.7443 -1.4334  0.2775
    4MOL   H333 1599   7.504   7.703   7.256  0.7461 -1.3204  1.1684
    4MOL   H334 1600   7.360   7.600   7.431  0.7443 -1.3126  0.6372
    4MOL   H335 1601   7.203   7.416   7.368  0.4137  1.5205  2.0792
    4MOL   H336 1602   6.897   7.432   7.184 -0.3714 -1.0492  0.9697
    4MOL   H337 1603   7.028   7.424   7.073 -1.3711  2.7020 -2.2616
    4MOL   C338 1604   6.835   7.375   6.979  0.6134  0.0589  0.1723
    4MOL   O339 1605   6.789   7.506   6.990  0.3417  0.1233 -0.5139
    4MOL   C340 1606   6.662   7.527   7.031  0.0796 -0.1882  0.8870
    4MOL   O341 1607   6.648   7.478   7.159 -0.4775 -0.5233  0.1655
    4MOL   C342 1608   6.524   7.490   7.219  0.3237 -0.2985 -0.0290
    4MOL   C343 1609   6.524   7.490   7.359 -0.1216 -0.2493 -0.6795
    4MOL   C344 1610   6.398   7.505   7.429 -0.6446  0.2641  0.0899
    4MOL   C345 1611   6.277   7.524   7.352 -0.9173 -0.1193 -0.2456
    4MOL   C346 1612   6.281   7.521   7.214 -0.8842  0.0926  0.7651
    4MOL   C347 1613   6.406   7.506   7.148  0.8574  0.5947  0.3179
    4MOL   C348 1614   6.912   7.368   6.848 -0.1140 -0.4451  0.3628
    4MOL   H349 1615   6.760   7.298   6.995 -0.3987  0.2396 -3.3329
    4MOL   H350 1616   6.594   7.478   6.961  0.0288  1.3284 -0.1708
    4MOL   H351 1617   6.629   7.631   7.036 -0.1152 -0.1899 -0.3291
    4MOL   H352 1618   6.615   7.462   7.410  0.7687 -0.4706 -2.3276
    4MOL   H353 1619   6.404   7.513   7.536  0.5905  2.1235 -0.0952
    4MOL   H354 1620   6.185   7.536   7.406 -2.4571  1.3655 -3.1383
    4MOL   H355 1621   6.191   7.517   7.153  0.0925  0.5738 -0.7371
    4MOL   H356 1622   6.408   7.504   7.040  0.5795 -0.8016  0.3280
    4MOL   H357 1623   6.984   7.287   6.855 -1.2634 -1.5454 -0.4098
    4MOL   H358 1624   6.962   7.463   6.830 -0.9253 -0.1918 -0.5558
    4MOL   C359 1625   6.820   7.334   6.732 -0.3379 -0.2061 -0.2848
    4MOL   O360 1626   6.764   7.208   6.762  0.1011  0.4310 -0.0541
    4MOL   C361 1627   6.642   7.177   6.705 -0.3446  0.0815  0.3577
    4MOL   O362 1628   6.537   7.237   6.770 -0.0559  0.4339 -0.2537
    4MOL   C363 1629   6.490   7.171   6.883  0.6473  0.1050  0.3189
    4MOL   C364 1630   6.370   7.212   6.938 -0.3710  0.1178  0.2168
    4MOL   C365 1631   6.314   7.157   7.054 -0.3346  0.2060  0.5256
    4MOL   C366 1632   6.377   7.045   7.110  0.0566 -0.8945  0.6539
    4MOL   C367 1633   6.496   6.997   7.060  0.3795  0.3577  1.2145
    4MOL   C368 1634   6.552   7.055   6.942 -0.5873 -0.4158  0.2558
    4MOL   C369 1635   6.901   7.326   6.600 -0.1657  0.2325  0.1005
    4MOL   H370 1636   6.736   7.403   6.724  0.5311  0.8643 -0.3027
    4MOL   H371 1637   6.631   7.070   6.691 -1.5105  0.0451  1.4759
    4MOL   H372 1638   6.635   7.221   6.605 -1.4936  0.6990  0.7019
    4MOL   H373 1639   6.326   7.294   6.884  2.0366  0.5242 -1.1730
    4MOL   H374 1640   6.227   7.204   7.097  0.9057  1.4638  1.7007
    4MOL   H375 1641   6.353   6.999   7.205 -1.9524  3.3733  2.3350
    4MOL   H376 1642   6.539   6.916   7.115  2.6012  0.9584  0.4223
    4MOL   H377 1643   6.649   7.016   6.914 -0.9470 -1.8130  0.8845
    4MOL   H378 1644   6.845   7.264   6.530 -0.5103 -0.1101  0.6713
    4MOL   H379 1645   6.996   7.275   6.619 -0.8293 -0.4514  1.6982
    4MOL   C380 1646   6.934   7.460   6.535 -0.6579  0.6043  0.0894
    4MOL   O381 1647   6.828   7.509   6.468  0.4145 -0.4788  0.3815
    4MOL   C382 1648   6.799   7.637   6.505 -0.1027  0.5792  0.3480
    4MOL   O383 1649   6.747   7.650   6.633  0.0749  0.1137 -0.3128
    4MOL   C384 1650   6.608   7.629   6.657 -0.3075  0.7173  0.2476
    4MOL   C385 1651   6.547   7.696   6.764  0.3140 -0.0307 -0.3287
    4MOL   C386 1652   6.406   7.676   6.794  0.1225 -0.1192 -0.0645
    4MOL   C387 1653   6.331   7.587   6.713  1.0167 -0.3362  0.1145
    4MOL   C388 1654   6.389   7.527   6.598  0.4707 -0.1574 -0.6316
    4MOL   C389 1655   6.526   7.547   6.571  0.1178  0.7088 -0.4787
    4MOL   C390 1656   7.041   7.441   6.423  0.4137  0.4644  0.1446
    4MOL   H391 1657   6.978   7.526   6.610  0.5743  0.9841 -0.9528
    4MOL   H392 1658   6.883   7.706   6.505  0.4349 -0.0308 -1.2976
    4MOL   H393 1659   6.744   7.679   6.421  1.6648  0.9362 -0.6688
    4MOL   H394 1660   6.604   7.764   6.826 -0.7668 -0.4633  1.1658
    4MOL   H395 1661   6.363   7.714   6.886  0.1305 -0.1216 -0.0591
    4MOL   H396 1662   6.225   7.568   6.725  0.7937  0.4894 -0.4304
    4MOL   H397 1663   6.326   7.470   6.532 -0.9814 -0.6956  1.1782
    4MOL   H398 1664   6.563   7.494   6.485  1.5082  0.7158  0.0940
    4MOL   H399 1665   7.011   7.371   6.344  1.7819 -1.3535  1.2015
    4MOL   H400 1666   7.126   7.394   6.471 -0.1827 -1.9774 -1.0854
    4MOL   C401 1667   7.089   7.569   6.360 -0.2474 -0.2386  0.6807
    4MOL   O402 1668   7.217   7.557   6.315 -0.1124  0.5959  0.3753
    4MOL   C403 1669   7.294   7.674   6.308 -0.0262  0.0728 -0.4182
    4MOL   O404 1670   7.320   7.728   6.436 -0.7283  0.2610  0.0915
    4MOL   C405 1671   7.402   7.660   6.522  0.6404 -0.6402 -0.2472
    4MOL   C406 1672   7.434   7.730   6.641 -0.1909  0.0757 -0.7548
    4MOL   C407 1673   7.515   7.672   6.741 -0.4715 -0.1804  0.1484
    4MOL   C408 1674   7.580   7.554   6.716  0.1272  0.5027 -0.1672
    4MOL   C409 1675   7.557   7.483   6.596  0.5612  0.1073  0.5365
    4MOL   C410 1676   7.463   7.537   6.496 -1.0095  0.4039 -0.0266
    4MOL   C411 1677   7.007   7.597   6.226  0.4214  0.1401  0.3243
    4MOL   H412 1678   7.083   7.658   6.423 -3.6902 -1.7405  2.6099
    4MOL   H413 1679   7.262   7.762   6.254 -0.0717 -0.0088 -0.5247
    4MOL   H414 1680   7.387   7.642   6.262  0.2499 -0.5593  0.5478
    4MOL   H415 1681   7.387   7.827   6.649  2.2809  1.0438  3.1861
    4MOL   H416 1682   7.534   7.724   6.834 -2.0126 -2.0624  1.5511
    4MOL   H417 1683   7.650   7.518   6.791  0.6314  3.3742  0.7809
    4MOL   H418 1684   7.602   7.388   6.574  0.9899  0.3707  0.2631
    4MOL   H419 1685   7.457   7.489   6.399  2.8362 -0.5678  0.1472
    4MOL   H420 1686   6.900   7.592   6.246  0.1149  0.5054 -1.1452
    4MOL   H421 1687   7.031   7.528   6.145  2.2976 -2.1013  2.6810
    4MOL   H422 1688   7.027   7.696   6.185 -0.0676 -0.3739 -1.1792
    5MOL     C1 1689   1.439   3.087   2.061 -0.0980  0.2390  0.2879
    5MOL     O2 1690   1.491   3.124   2.189  0.4821  0.0652  0.3087
    5MOL     C3 1691   1.625   3.126   2.200 -0.0288 -0.2361  0.1764
    5MOL     O4 1692   1.675   2.998   2.182 -0.0917 -0.1407  0.1327
    5MOL     C5 1693   1.804   2.971   2.203 -0.2527  0.3752  0.2606
    5MOL     C6 1694   1.900   3.073   2.214 -0.3786 -0.1799 -0.1330
    5MOL     C7 1695   2.031   3.043   2.240  0.2933 -0.0759  0.1872
    5MOL     C8 1696   2.074   2.911   2.250 -0.6910 -0.0710 -0.1167
    5MOL     C9 1697   1.982   2.809   2.231 -0.1668  0.3606 -0.2482
    5MOL    C10 1698   1.849   2.833   2.209  0.1329 -0.0216  0.8944
    5MOL    C11 1699   1.325   3.185   2.021 -0.1514 -0.2736  0.4306
    5MOL    H12 1700   1.518   3.089   1.986  1.4451  2.7797  1.9102
    5MOL    H13 1701   1.664   3.208   2.139 -1.5429 -0.1535 -0.6969
    5MOL    H14 1702   1.660   3.150   2.300 -0.4590  0.4561  0.1645
    5MOL    H15 1703   1.873   3.176   2.229  0.0058  0.0278 -0.8231
    5MOL    H16 1704   2.098   3.125   2.262 -0.8947  1.2937 -1.1995
    5MOL    H17 1705   2.178   2.889   2.267 -0.8274 -0.9887 -0.4505
    5MOL    H18 1706   2.019   2.708   2.240 -0.0951  0.4378  0.3428
    5MOL    H19 1707   1.781   2.750   2.218 -0.4116  0.4074  0.8106
    5MOL    H20 1708   1.374   3.282   2.011 -1.0665  0.0992 -0.6008
    5MOL    H21 1709   1.242   3.183   2.091  0.4920 -1.2304  1.1828
    5MOL    H22 1710   1.385   2.992   2.054  0.1627  0.1628 -0.7992
    5MOL    C23 1711   1.263   3.152   1.884 -0.1115 -0.5133  0.2899
    5MOL    O24 1712   1.362   3.153   1.780  0.7259  0.1324  0.2448
    5MOL    C25 1713   1.327   3.083   1.671 -0.7822 -0.3648  0.7095
    5MOL    O26 1714   1.366   2.952   1.680 -0.0143 -0.1073 -0.2067
    5MOL    C27 1715   1.316   2.864   1.585  0.3885  0.0144  0.1247
    5MOL    C28 1716   1.340   2.730   1.615  0.1093 -0.6929  0.3095
    5MOL    C29 1717   1.287   2.631   1.530  0.6241 -0.1144 -0.0532
    5MOL    C30 1718   1.250   2.665   1.402  0.6164 -0.2884  0.1967
    5MOL    C31 1719   1.214   2.802   1.371 -0.0124  0.2231  0.1988
    5MOL    C32 1720   1.261   2.903   1.461  0.7348  0.4498 -0.6306
    5MOL    C33 1721   1.149   3.262   1.861  0.0997  0.3367  0.7621
    5MOL    H34 1722   1.216   3.053   1.884 -1.6165  0.1868 -0.6772
    5MOL    H35 1723   1.387   3.120   1.588  0.1437 -2.5881  0.3564
    5MOL    H36 1724   1.219   3.084   1.653 -0.7692 -2.8704  0.2698
    5MOL    H37 1725   1.406   2.716   1.699 -0.7869 -1.5551  0.8751
    5MOL    H38 1726   1.310   2.528   1.554  1.9217  0.4721  1.3073
    5MOL    H39 1727   1.233   2.587   1.329  0.4723 -0.0666 -0.0097
    5MOL    H40 1728   1.168   2.821   1.275 -1.9937 -1.1012  0.8565
    5MOL    H41 1729   1.257   3.007   1.433 -0.8896  0.5232 -0.2032
    5MOL    H42 1730   1.066   3.244   1.930 -1.8276  2.6620 -0.8960
    5MOL    H43 1731   1.102   3.249   1.764 -1.8733  0.7258  1.6475
    5MOL    C44 1732   1.184   3.413   1.865  0.7934  0.2797 -0.0628
    5MOL    O45 1733   1.061   3.482   1.842 -0.0812 -0.4592  0.1093
    5MOL    C46 1734   0.992   3.516   1.961 -0.4399 -0.0035  0.0868
    5MOL    O47 1735   1.053   3.617   2.040  0.2280 -0.3798 -0.0595
    5MOL    C48 1736   1.024   3.743   2.012  0.1716  0.2925 -0.0338
    5MOL    C49 1737   1.016   3.794   1.881 -0.3032 -0.1468 -0.7374
    5MOL    C50 1738   0.991   3.934   1.864 -0.4343  0.5861  0.7405
    5MOL    C51 1739   0.974   4.017   1.975  0.4688 -0.3217  0.2682
    5MOL    C52 1740   0.991   3.967   2.105  0.0629 -0.1324 -0.1630
    5MOL    C53 1741   1.016   3.831   2.120  0.0202 -0.0530 -0.3313
    5MOL    C54 1742   1.277   3.444   1.745  0.4111 -0.4574 -0.2504
    5MOL    H55 1743   1.225   3.458   1.955 -1.0028  2.0864 -0.1103
    5MOL    H56 1744   0.999   3.430   2.029  2.2718 -0.9470 -1.3173
    5MOL    H57 1745   0.889   3.545   1.938 -0.3628  0.2453  0.0639
    5MOL    H58 1746   1.025   3.726   1.797 -0.4472 -0.2225 -0.6918
    5MOL    H59 1747   0.981   3.976   1.765 -0.8737  0.8488  0.8956
    5MOL    H60 1748   0.952   4.122   1.959 -0.2226 -0.6576 -1.0622
    5MOL    H61 1749   0.973   4.039   2.184  3.1224 -1.2312  1.6269
    5MOL    H62 1750   1.017   3.792   2.220 -0.6257 -0.3069 -0.4242
    5MOL    H63 1751   1.355   3.370   1.727  1.0742 -0.0319  0.8379
    5MOL    H64 1752   1.209   3.451   1.660  0.7376  0.0189 -0.4725
    5MOL    C65 1753   1.357   3.573   1.751 -0.8795 -0.1697 -0.2268
    5MOL    O66 1754   1.481   3.557   1.818 -0.1646  0.2134 -0.0323
    5MOL    C67 1755   1.492   3.639   1.929 -0.1877 -0.1690  0.2225
    5MOL    O68 1756   1.496   3.770   1.882  0.3599  0.1577 -0.0202
    5MOL    C69 1757   1.481   3.871   1.969 -0.0745  0.9820 -0.1766
    5MOL    C70 1758   1.596   3.917   2.029 -0.0128 -0.1044 -0.5477
    5MOL    C71 1759   1.590   4.027   2.110  0.6933 -0.9873 -0.2071
    5MOL    C72 1760   1.469   4.083   2.146  0.4695  0.0256 -0.3389
    5MOL    C73 1761   1.342   4.025   2.089  0.2060 -0.1336  0.3531
    5MOL    C74 1762   1.354   3.912   2.000  0.3721 -0.5576  0.0226
    5MOL    C75 1763   1.399   3.617   1.609  0.4696 -0.4307 -0.2802
    5MOL    H76 1764   1.298   3.649   1.802 -0.2104 -0.4255  0.9434
    5MOL    H77 1765   1.586   3.609   1.975  1.1016  2.1640 -0.8263
    5MOL    H78 1766   1.411   3.618   1.999 -1.0233  0.3001 -0.5931
    5MOL    H79 1767   1.689   3.864   2.010 -0.2274 -0.2546 -1.1872
    5MOL    H80 1768   1.683   4.070   2.142  0.4291 -2.4968  2.7992
    5MOL    H81 1769   1.464   4.175   2.202  0.0316 -2.0015  3.0906
    5MOL    H82 1770   1.243   4.063   2.108 -1.1073 -1.5952 -3.0798
    5MOL    H83 1771   1.264   3.879   1.951  0.3553 -0.9405  0.3199
    5MOL    H84 1772   1.489   3.570   1.569  1.5476  0.7732  0.6599
    5MOL    H85 1773   1.323   3.593   1.535 -0.1326  0.8684 -0.0972
    5MOL    C86 1774   1.414   3.769   1.587  0.9323 -0.8651 -0.1538
    5MOL    O87 1775   1.457   3.785   1.450 -0.5858  0.3325  0.5435
    5MOL    C88 1776   1.577   3.860   1.430 -0.4891  0.0002 -0.1622
    5MOL    O89 1777   1.692   3.793   1.474  0.5285 -0.7327 -0.5082
    5MOL    C90 1778   1.751   3.821   1.594  0.2715  0.0770 -0.8032
    5MOL    C91 1779   1.856   3.731   1.631  0.6515 -0.1159 -0.0878
    5MOL    C92 1780   1.938   3.766   1.741  0.6873  0.7508 -0.6477
    5MOL    C93 1781   1.903   3.878   1.821 -1.1412 -0.2314 -0.0715
    5MOL    C94 1782   1.794   3.961   1.791  0.4783 -0.5359 -0.0286
    5MOL    C95 1783   1.721   3.933   1.672 -0.5732  0.3880 -1.2671
    5MOL    C96 1784   1.276   3.835   1.593  0.3500 -0.5567  0.4438
    5MOL    H97 1785   1.488   3.796   1.662 -0.5546 -0.9122  1.3732
    5MOL    H98 1786   1.573   3.965   1.458 -1.2280  0.3281 -1.4194
    5MOL    H99 1787   1.593   3.873   1.323 -0.9987 -0.3329 -0.2823
    5MOL   H100 1788   1.860   3.637   1.578  0.1735 -0.3619  0.3118
    5MOL   H101 1789   2.025   3.707   1.767  1.0484  1.2648 -0.6748
    5MOL   H102 1790   1.962   3.910   1.906  0.4139 -0.5934 -0.9797
    5MOL   H103 1791   1.764   4.044   1.853  1.6945  3.2674 -4.2575
    5MOL   H104 1792   1.633   3.991   1.648 -1.2716 -0.0566  0.1569
    5MOL   H105 1793   1.197   3.793   1.532 -0.3386  0.0665  0.9053
    5MOL   H106 1794   1.235   3.830   1.694  1.0353  0.3277  0.7790
    5MOL   C107 1795   1.275   3.983   1.569  0.1712 -0.3626 -0.1859
    5MOL   O108 1796   1.134   4.023   1.538 -0.3883  0.1928  0.1153
    5MOL   C109 1797   1.108   4.070   1.410  0.6500  0.1398 -0.2705
    5MOL   O110 1798   1.166   4.195   1.377  0.6444  0.3152  0.6200
    5MOL   C111 1799   1.161   4.236   1.246  0.6705 -0.9835  0.6222
    5MOL   C112 1800   1.229   4.354   1.206  0.5029  0.4348 -0.4677
    5MOL   C113 1801   1.213   4.396   1.074  0.0643  0.6142 -0.2926
    5MOL   C114 1802   1.126   4.333   0.985  0.2455 -0.1764 -0.2185
    5MOL   C115 1803   1.051   4.220   1.023 -0.1899 -0.3418 -0.1366
    5MOL   C116 1804   1.079   4.165   1.148 -1.0588  0.6629  0.2275
    5MOL   C117 1805   1.322   4.065   1.687 -0.5906 -0.2458 -0.1680
    5MOL   H118 1806   1.333   4.013   1.482  0.0098  1.2420  0.2409
    5MOL   H119 1807   1.001   4.091   1.415 -0.0024 -3.0183  0.3504
    5MOL   H120 1808   1.122   3.985   1.344 -0.3036  1.7617 -2.6173
    5MOL   H121 1809   1.292   4.407   1.275 -3.2553  0.8256  2.8594
    5MOL   H122 1810   1.263   4.481   1.030 -0.9663 -0.1534 -3.0365
    5MOL   H123 1811   1.124   4.367   0.882 -0.0954  0.6025  0.0401
    5MOL   H124 1812   0.983   4.162   0.963  0.2852 -1.8225  0.6984
    5MOL   H125 1813   1.025   4.074   1.171 -0.5460  0.0648 -0.9120
    5MOL   H126 1814   1.401   3.999   1.721 -0.4910 -0.1967 -0.3048
    5MOL   H127 1815   1.242   4.060   1.761 -0.5624  0.5084 -0.0828
    5MOL   C128 1816   1.372   4.211   1.666 -0.0576 -0.1795 -0.3896
    5MOL   O129 1817   1.503   4.185   1.600 -0.0877  0.2873 -0.8009
    5MOL   C130 1818   1.517   4.260   1.488  0.4451  0.2050  0.1875
    5MOL   O131 1819   1.630   4.214   1.421  0.2493  0.0693 -0.4278
    5MOL   C132 1820   1.665   4.282   1.308  0.1912  0.4401 -0.3665
    5MOL   C133 1821   1.797   4.335   1.304  0.3115 -0.0926 -0.4807
    5MOL   C134 1822   1.826   4.417   1.193 -0.3799  0.5783  0.3654
    5MOL   C135 1823   1.734   4.433   1.083  0.0391 -0.2281 -0.0688
    5MOL   C136 1824   1.610   4.371   1.090 -0.6621 -0.2869 -1.1303
    5MOL   C137 1825   1.576   4.292   1.200  0.3874 -0.0903 -0.2922
    5MOL   C138 1826   1.395   4.294   1.795 -0.0909 -0.7854  0.3217
    5MOL   H139 1827   1.293   4.260   1.609 -0.2563 -1.3372 -1.1155
    5MOL   H140 1828   1.541   4.365   1.509  0.1654  0.5479 -1.1534
    5MOL   H141 1829   1.427   4.258   1.426  1.5311  1.6488 -1.4985
    5MOL   H142 1830   1.868   4.314   1.384  0.2465  0.7335 -0.2013
    5MOL   H143 1831   1.917   4.475   1.186 -1.2449  1.8968 -0.2584
    5MOL   H144 1832   1.752   4.494   0.996 -2.1208  2.8514  1.5368
    5MOL   H145 1833   1.530   4.394   1.022  0.7706 -0.0818 -2.7930
    5MOL   H146 1834   1.473   4.257   1.204  0.3688 -0.1996 -1.5150
    5MOL   H147 1835   1.303   4.278   1.852 -1.5586 -1.1264 -2.0848
    5MOL   H148 1836   1.484   4.258   1.848  1.9987  1.9088 -1.2449
    5MOL   C149 1837   1.414   4.445   1.780  0.2198  0.0508  0.5773
    5MOL   O150 1838   1.304   4.491   1.696 -0.4822 -0.1621 -0.4952
    5MOL   C151 1839   1.344   4.614   1.632  1.2636 -0.1514 -0.5571
    5MOL   O152 1840   1.416   4.582   1.516  0.3424 -0.4564 -0.2976
    5MOL   C153 1841   1.435   4.688   1.428 -0.0368 -0.3656 -1.1725
    5MOL   C154 1842   1.372   4.815   1.448 -0.4934  0.1534  0.4585
    5MOL   C155 1843   1.393   4.921   1.351 -0.1948 -0.4306 -0.2179
    5MOL   C156 1844   1.477   4.898   1.239 -0.4559 -0.3243  0.1656
    5MOL   C157 1845   1.532   4.769   1.218 -0.1873 -0.1260 -0.1936
    5MOL   C158 1846   1.507   4.666   1.310 -0.1831 -0.0625  0.3199
    5MOL   C159 1847   1.420   4.516   1.916  0.2693 -0.9091  0.1468
    5MOL   H160 1848   1.509   4.461   1.730 -0.6478  2.6220 -0.3660
    5MOL   H161 1849   1.246   4.653   1.604  0.8936 -1.4250 -1.0629
    5MOL   H162 1850   1.393   4.693   1.689  1.0163  1.6047 -2.7168
    5MOL   H163 1851   1.302   4.838   1.528 -0.0761 -3.7101  2.0359
    5MOL   H164 1852   1.344   5.018   1.358  2.8245  1.3898 -2.8797
    5MOL   H165 1853   1.486   4.980   1.169 -0.3338 -0.3842  0.1118
    5MOL   H166 1854   1.588   4.745   1.129 -0.4737  0.9295 -0.6607
    5MOL   H167 1855   1.543   4.566   1.289 -1.4518 -0.6741  1.0648
    5MOL   H168 1856   1.357   4.467   1.990  1.1214 -1.0613  0.7798
    5MOL   H169 1857   1.382   4.618   1.907  1.8736 -0.4555 -2.0569
    5MOL   C170 1858   1.560   4.523   1.989 -0.1187 -0.1094 -0.2843
    5MOL   O171 1859   1.632   4.613   1.912  0.1851 -0.3639  0.7330
    5MOL   C172 1860   1.757   4.559   1.865 -0.0270  0.7109  0.3760
    5MOL   O173 1861   1.745   4.453   1.776 -0.4056 -0.0171 -0.6688
    5MOL   C174 1862   1.855   4.380   1.741 -0.0593 -0.6835 -0.0185
    5MOL   C175 1863   1.981   4.413   1.783 -0.0034  0.2042 -0.5578
    5MOL   C176 1864   2.094   4.342   1.751  0.2661 -0.4226  0.3718
    5MOL   C177 1865   2.078   4.225   1.663 -0.2035 -0.2549 -0.0849
    5MOL   C178 1866   1.948   4.193   1.614  0.4646 -0.0265  0.5107
    5MOL   C179 1867   1.833   4.272   1.651 -0.5363  0.2278  0.2716
    5MOL   C180 1868   1.559   4.578   2.134 -1.0453  1.1485 -0.2433
    5MOL   H181 1869   1.606   4.424   1.986 -2.7356 -1.3408 -1.2877
    5MOL   H182 1870   1.816   4.524   1.949  1.8350 -1.0815 -1.6239
    5MOL   H183 1871   1.808   4.643   1.817  0.3077 -0.1896 -0.8715
    5MOL   H184 1872   2.006   4.489   1.857  0.1429  0.9228 -1.3400
    5MOL   H185 1873   2.194   4.369   1.781  0.5025 -1.1335  0.2479
    5MOL   H186 1874   2.165   4.168   1.634 -0.2514 -1.4726  2.0273
    5MOL   H187 1875   1.926   4.101   1.561  3.0030 -0.5717  0.3280
    5MOL   H188 1876   1.736   4.234   1.622 -1.0783  0.9177  1.1473
    5MOL   H189 1877   1.662   4.602   2.160  0.5011 -3.8677 -1.2508
    5MOL   H190 1878   1.495   4.666   2.139 -1.4010  0.8819 -0.0254
    5MOL   C191 1879   1.511   4.471   2.237 -0.0372  0.6248 -0.3475
    5MOL   O192 1880   1.375   4.513   2.266 -0.3994 -0.4553 -0.6053
    5MOL   C193 1881   1.277   4.414   2.263 -0.6197  0.3516  0.0914
    5MOL   O194 1882   1.159   4.473   2.216 -0.2950 -0.3802 -0.6372
    5MOL   C195 1883   1.089   4.557   2.295  0.5537  0.1515 -0.1379
    5MOL   C196 1884   1.131   4.591   2.425 -0.6369  0.0146 -0.0274
    5MOL   C197 1885   1.054   4.669   2.517  0.0772 -0.8820 -0.4733
    5MOL   C198 1886   0.924   4.708   2.473 -0.4775 -0.3030 -0.5447
    5MOL   C199 1887   0.883   4.682   2.340 -0.2826 -0.1844 -0.8347
    5MOL   C200 1888   0.961   4.612   2.247 -0.0138  0.3246  0.8380
    5MOL   C201 1889   1.600   4.490   2.363 -0.4986 -0.0797  0.5182
    5MOL   H202 1890   1.522   4.368   2.204 -0.4987 -0.3885  2.4996
    5MOL   H203 1891   1.263   4.372   2.363 -0.7861 -0.1029 -0.1247
    5MOL   H204 1892   1.299   4.338   2.189 -1.2207  0.5696 -0.3143
    5MOL   H205 1893   1.230   4.564   2.461 -1.1914 -0.2050  1.3722
    5MOL   H206 1894   1.080   4.693   2.619 -2.6662  0.4284 -0.0353
    5MOL   H207 1895   0.857   4.765   2.535  0.6430 -0.8305  1.1735
    5MOL   H208 1896   0.786   4.714   2.305 -0.5779 -0.7786 -0.5643
    5MOL   H209 1897   0.922   4.584   2.150  1.2456  0.1083  0.3954
    5MOL   H210 1898   1.703   4.472   2.333 -0.0576  2.4572  0.3676
    5MOL   H211 1899   1.602   4.595   2.391  1.1561  0.7506 -2.4852
    5MOL   C212 1900   1.570   4.394   2.475 -0.6051  0.2908 -0.2738
    5MOL   O213 1901   1.607   4.263   2.431  0.7427  0.2930 -0.1886
    5MOL   C214 1902   1.546   4.151   2.493 -0.1371 -0.4900 -0.8819
    5MOL   O215 1903   1.412   4.134   2.455 -0.2705 -0.0976 -0.2221
    5MOL   C216 1904   1.343   4.019   2.489 -0.4055 -0.2076  0.3913
    5MOL   C217 1905   1.215   3.997   2.427  0.5968  0.3353  0.4423
    5MOL   C218 1906   1.144   3.880   2.465  0.3195  0.4388 -0.0406
    5MOL   C219 1907   1.196   3.781   2.548  0.0845 -0.1682 -0.2352
    5MOL   C220 1908   1.328   3.799   2.600 -0.3787  0.0690  0.1319
    5MOL   C221 1909   1.401   3.915   2.573  0.0645 -0.8401 -0.7116
    5MOL   C222 1910   1.648   4.426   2.610  0.3844 -0.5116 -0.2105
    5MOL   H223 1911   1.463   4.400   2.493 -0.4599 -0.4009  0.9027
    5MOL   H224 1912   1.544   4.160   2.602 -0.8543 -0.6077 -0.8805
    5MOL   H225 1913   1.598   4.062   2.457  3.0422  0.7196  0.5710
    5MOL   H226 1914   1.175   4.077   2.366 -0.0836  0.3006  0.8437
    5MOL   H227 1915   1.047   3.861   2.421  1.7013 -0.4483 -2.8620
    5MOL   H228 1916   1.142   3.692   2.576  0.0389 -0.0630  0.0185
    5MOL   H229 1917   1.368   3.735   2.677 -3.9554 -0.8924  1.2538
    5MOL   H230 1918   1.476   3.953   2.640 -0.5319  1.4882 -1.3167
    5MOL   H231 1919   1.734   4.359   2.613 -0.5027 -1.5923  2.1467
    5MOL   H232 1920   1.692   4.526   2.611  0.4543 -0.5466  0.6160
    5MOL   C233 1921   1.571   4.417   2.744  0.1560 -0.1445 -0.2198
    5MOL   O234 1922   1.664   4.390   2.849  0.3027  0.6041  0.2764
    5MOL   C235 1923   1.644   4.268   2.910  0.5894 -1.0058  0.2583
    5MOL   O236 1924   1.676   4.162   2.824  0.7721 -0.5991  0.2548
    5MOL   C237 1925   1.782   4.085   2.856 -0.0090  0.1515 -0.1017
    5MOL   C238 1926   1.794   4.030   2.983  0.4752 -0.0951 -0.3313
    5MOL   C239 1927   1.902   3.957   3.014 -0.0355  0.2025 -0.0988
    5MOL   C240 1928   2.013   3.942   2.926 -0.1040 -0.2004 -0.3845
    5MOL   C241 1929   2.000   3.989   2.793  0.1474  0.1985  0.1824
    5MOL   C242 1930   1.873   4.044   2.756  0.0641  0.3081 -0.0866
    5MOL   C243 1931   1.509   4.552   2.783 -0.6328  0.8726  0.1436
    5MOL   H244 1932   1.493   4.341   2.750  0.0720  0.0032  0.6708
    5MOL   H245 1933   1.543   4.255   2.947 -0.0093  1.4540 -0.4305
    5MOL   H246 1934   1.710   4.271   2.996  0.2532 -2.3129  0.5738
    5MOL   H247 1935   1.728   4.060   3.063  0.8871  0.2928 -0.1331
    5MOL   H248 1936   1.908   3.918   3.115 -2.2937 -1.7286 -0.6442
    5MOL   H249 1937   2.097   3.884   2.962  2.0081  3.7441  1.4365
    5MOL   H250 1938   2.079   3.961   2.725 -1.7152  0.3849 -2.0926
    5MOL   H251 1939   1.866   4.080   2.654 -0.6816  0.7644  0.1186
    5MOL   H252 1940   1.484   4.550   2.889 -0.2294  0.3803  0.2325
    5MOL   H253 1941   1.595   4.618   2.774  1.2773 -1.2772  1.9060
    5MOL   C254 1942   1.383   4.601   2.709 -0.1627 -0.0668  0.5056
    5MOL   O255 1943   1.271   4.515   2.739 -0.3031 -0.4415 -0.8759
    5MOL   C256 1944   1.209   4.523   2.864 -0.0869 -0.6179 -0.0558
    5MOL   O257 1945   1.270   4.445   2.962 -0.6950  0.0804  0.3242
    5MOL   C258 1946   1.269   4.308   2.950 -0.5939 -0.3338 -0.5075
    5MOL   C259 1947   1.305   4.229   3.065 -1.1060 -0.1868 -0.1859
    5MOL   C260 1948   1.327   4.094   3.053  0.0019 -0.4076 -0.2730
    5MOL   C261 1949   1.301   4.024   2.931  0.3956  0.1977 -0.0891
    5MOL   C262 1950   1.247   4.098   2.819  0.1914 -0.3358 -0.4142
    5MOL   C263 1951   1.233   4.239   2.830  1.3969  0.0367 -0.2599
    5MOL   C264 1952   1.348   4.752   2.719  0.7032  0.1230  0.1398
    5MOL   H265 1953   1.394   4.590   2.601  0.2329 -0.0731  0.5479
    5MOL   H266 1954   1.106   4.489   2.848 -0.0833 -0.7479  0.1954
    5MOL   H267 1955   1.198   4.627   2.894  0.1395 -0.7076  0.3403
    5MOL   H268 1956   1.330   4.274   3.160  0.2417 -2.1550  0.4251
    5MOL   H269 1957   1.363   4.043   3.140  1.6398  0.4755 -0.4162
    5MOL   H270 1958   1.317   3.918   2.918 -1.4020 -0.0531 -0.5067
    5MOL   H271 1959   1.218   4.043   2.731 -1.1261  0.0478 -0.2275
    5MOL   H272 1960   1.219   4.299   2.741 -1.5691 -0.6631 -0.3047
    5MOL   H273 1961   1.242   4.768   2.700  0.4362 -1.2860  0.3690
    5MOL   H274 1962   1.360   4.793   2.819 -3.8000  2.0283  0.0126
    5MOL   C275 1963   1.424   4.849   2.633 -0.4453 -0.2238 -0.1615
    5MOL   O276 1964   1.369   4.836   2.499  0.4168  0.1568  0.7358
    5MOL   C277 1965   1.439   4.893   2.394 -0.0426  0.4727  0.6402
    5MOL   O278 1966   1.412   5.017   2.356  0.7222  0.5087  0.8174
    5MOL   C279 1967   1.294   5.036   2.285  0.4941  0.1735 -0.0859
    5MOL   C280 1968   1.271   5.167   2.238  0.5413  0.0704  0.5121
    5MOL   C281 1969   1.142   5.191   2.188 -0.1795 -0.2852  0.5424
    5MOL   C282 1970   1.041   5.090   2.178  0.4576 -0.0291 -0.0828
    5MOL   C283 1971   1.069   4.962   2.213 -0.3755 -0.1056 -0.2196
    5MOL   C284 1972   1.191   4.932   2.273 -0.7002  0.5175  0.2526
    5MOL   C285 1973   1.408   5.000   2.669  0.1393  0.8469 -0.6567
    5MOL   H286 1974   1.530   4.825   2.632 -0.5431 -0.8890  2.9153
    5MOL   H287 1975   1.429   4.829   2.306  0.3038  0.1943  0.8010
    5MOL   H288 1976   1.543   4.876   2.420  0.8308 -0.6506 -3.1921
    5MOL   H289 1977   1.341   5.246   2.260  0.5517 -0.1699  1.3409
    5MOL   H290 1978   1.114   5.293   2.168  1.7130 -0.0875 -1.2835
    5MOL   H291 1979   0.945   5.114   2.136  0.0634 -1.5611 -0.0531
    5MOL   H292 1980   0.990   4.888   2.212 -0.8709  0.4130 -0.0484
    5MOL   H293 1981   1.200   4.829   2.304 -4.1244  0.5113  1.4239
    5MOL   H294 1982   1.306   5.039   2.668  0.0514  0.6146 -0.8377
    5MOL   H295 1983   1.474   5.053   2.600  1.0587 -0.4884 -0.8223
    5MOL   C296 1984   1.452   5.047   2.813 -0.2033 -0.0912 -0.1177
    5MOL   O297 1985   1.591   5.010   2.826 -0.2514  0.3557 -0.1496
    5MOL   C298 1986   1.638   4.993   2.960 -0.0797  0.7638 -0.6616
    5MOL   O299 1987   1.584   4.884   3.023  0.0318 -0.4573 -0.4528
    5MOL   C300 1988   1.468   4.892   3.099 -0.3289  0.3630  0.2551
    5MOL   C301 1989   1.422   5.017   3.150  0.3748 -0.2210  0.4104
    5MOL   C302 1990   1.306   5.023   3.224  1.0787  1.3453 -0.1727
    5MOL   C303 1991   1.246   4.901   3.264 -0.0568 -0.0664 -0.8560
    5MOL   C304 1992   1.290   4.777   3.218 -0.8506 -0.1544 -0.4249
    5MOL   C305 1993   1.403   4.773   3.133 -0.3424 -0.6973  0.4913
    5MOL   C306 1994   1.428   5.196   2.837 -0.0538 -0.3456  0.2208
    5MOL   H307 1995   1.399   4.995   2.892 -0.3926 -1.3844 -1.0641
    5MOL   H308 1996   1.625   5.089   3.011 -1.5275  0.3535 -0.2363
    5MOL   H309 1997   1.746   4.988   2.966 -0.1169  1.4284  0.8143
    5MOL   H310 1998   1.459   5.115   3.123 -0.4666  0.0750  0.2880
    5MOL   H311 1999   1.269   5.124   3.238  1.3646  1.0978  2.8169
    5MOL   H312 2000   1.150   4.898   3.313 -0.3517 -2.4290 -1.5190
    5MOL   H313 2001   1.238   4.688   3.251  2.7522 -1.6910  1.4288
    5MOL   H314 2002   1.434   4.676   3.095 -2.8455 -1.0963 -0.6952
    5MOL   H315 2003   1.466   5.248   2.749 -1.2923  0.3491  0.0936
    5MOL   H316 2004   1.482   5.231   2.925  0.4743  1.1928 -0.7038
    5MOL   C317 2005   1.284   5.237   2.846 -0.4787  0.3539 -0.0954
    5MOL   O318 2006   1.285   5.375   2.886 -0.3115 -0.7196  0.2866
    5MOL   C319 2007   1.294   5.465   2.793  0.4855  0.4503  0.0235
    5MOL   O320 2008   1.179   5.489   2.720  0.1972 -0.0495  0.0303
    5MOL   C321 2009   1.071   5.560   2.769  0.1456 -0.1327  0.5555
    5MOL   C322 2010   0.971   5.603   2.682  0.3957  0.3566 -0.4548
    5MOL   C323 2011   0.860   5.670   2.728 -0.2690 -0.3053  0.3180
    5MOL   C324 2012   0.841   5.692   2.869 -0.4912 -0.0637  0.3675
    5MOL   C325 2013   0.945   5.644   2.957  0.8951  0.1289 -0.4107
    5MOL   C326 2014   1.055   5.583   2.909 -0.1756  0.6423  0.9986
    5MOL   C327 2015   1.192   5.156   2.950 -0.2611 -0.0006 -0.2373
    5MOL   H328 2016   1.245   5.212   2.748 -0.6620 -2.5049  0.6712
    5MOL   H329 2017   1.372   5.460   2.717 -0.6391 -1.5981 -1.0571
    5MOL   H330 2018   1.335   5.554   2.840 -0.6316  1.6695 -1.2791
    5MOL   H331 2019   0.989   5.593   2.576  1.1991  2.2720 -0.5141
    5MOL   H332 2020   0.775   5.686   2.663 -0.3329  3.4649  1.1865
    5MOL   H333 2021   0.753   5.727   2.921  0.6556 -2.1587  3.9165
    5MOL   H334 2022   0.917   5.663   3.060 -0.1991 -0.2025 -0.6376
    5MOL   H335 2023   1.129   5.533   2.970 -2.0606 -0.7339  2.2101
    5MOL   H336 2024   1.218   5.050   2.958  3.2640  0.8546  0.5646
    5MOL   H337 2025   1.229   5.190   3.047 -0.1533 -2.7541  0.7227
    5MOL   C338 2026   1.039   5.177   2.946 -0.4684 -0.5461  0.0370
    5MOL   O339 2027   0.981   5.101   2.843  0.4118  0.2136  0.1394
    5MOL   C340 2028   0.954   5.168   2.724 -0.5262  0.1896  0.5652
    5MOL   O341 2029   0.823   5.223   2.722  0.2043  0.0186  0.0859
    5MOL   C342 2030   0.787   5.312   2.621  0.6676 -0.6122  0.3149
    5MOL   C343 2031   0.664   5.379   2.643 -0.0218  0.3782  0.2010
    5MOL   C344 2032   0.608   5.447   2.536 -0.3696  0.2486 -0.1802
    5MOL   C345 2033   0.673   5.465   2.410 -0.0775  0.3655 -0.1068
    5MOL   C346 2034   0.807   5.423   2.403  0.0457  0.4732  0.0530
    5MOL   C347 2035   0.864   5.342   2.504 -0.4424 -0.1631  0.2412
    5MOL   C348 2036   0.974   5.127   3.078 -0.0874  0.2412 -0.2048
    5MOL   H349 2037   1.016   5.283   2.932  0.7633  0.0805  2.4353
    5MOL   H350 2038   0.960   5.107   2.634  1.4123  0.6938  0.3261
    5MOL   H351 2039   1.018   5.254   2.704 -0.9513  0.2642 -0.4893
    5MOL   H352 2040   0.594   5.353   2.722 -0.9646 -1.7976 -1.3073
    5MOL   H353 2041   0.506   5.480   2.544 -0.9682 -1.6276  0.2673
    5MOL   H354 2042   0.631   5.514   2.324 -2.3611  0.1303  0.8354
    5MOL   H355 2043   0.861   5.431   2.310 -0.6568 -0.0414 -0.4091
    5MOL   H356 2044   0.964   5.302   2.495 -0.9606 -1.1253 -1.3327
    5MOL   H357 2045   1.031   5.166   3.162 -0.1865 -0.4610  0.1896
    5MOL   H358 2046   0.989   5.020   3.091 -1.2756  0.1970  0.8230
    5MOL   C359 2047   0.828   5.159   3.099 -0.4314  0.3913  0.4026
    5MOL   O360 2048   0.816   5.292   3.136  0.2236  0.5064  0.0957
    5MOL   C361 2049   0.716   5.361   3.065 -0.6766 -1.5751  0.1316
    5MOL   O362 2050   0.585   5.332   3.108  0.4676 -0.1698  0.1845
    5MOL   C363 2051   0.533   5.415   3.206  0.0147 -0.0506  0.0651
    5MOL   C364 2052   0.604   5.480   3.305  0.6091 -0.4592  0.5140
    5MOL   C365 2053   0.536   5.557   3.405 -0.0327  0.2719  0.5382
    5MOL   C366 2054   0.398   5.585   3.386  0.1741  0.8740  0.0655
    5MOL   C367 2055   0.328   5.522   3.282 -0.0935 -0.0914  0.2177
    5MOL   C368 2056   0.398   5.437   3.187 -0.8588  0.9072 -0.1332
    5MOL   C369 2057   0.762   5.071   3.209  0.2071  0.1845 -0.7815
    5MOL   H370 2058   0.771   5.133   3.010  1.8656 -2.3914 -0.3201
    5MOL   H371 2059   0.724   5.337   2.959 -2.5323  1.0743 -0.6467
    5MOL   H372 2060   0.738   5.467   3.054 -1.1982 -1.6531 -1.7096
    5MOL   H373 2061   0.711   5.472   3.314  1.0390  3.1614 -0.5820
    5MOL   H374 2062   0.597   5.602   3.481  0.9051 -0.5137  0.2639
    5MOL   H375 2063   0.352   5.662   3.446 -0.2057  0.5277  0.2283
    5MOL   H376 2064   0.221   5.539   3.276 -0.1087  0.8106  2.4053
    5MOL   H377 2065   0.347   5.377   3.113 -0.9102 -0.7138  1.2085
    5MOL   H378 2066   0.766   4.964   3.188  1.9601  0.0684  0.0652
    5MOL   H379 2067   0.656   5.085   3.190  0.2891  1.2605 -0.4759
    5MOL   C380 2068   0.801   5.099   3.353 -0.4208  0.1109  0.3140
    5MOL   O381 2069   0.933   5.069   3.373 -0.4590 -0.7834  0.1220
    5MOL   C382 2070   0.985   5.157   3.461 -0.4630 -0.4428 -0.1783
    5MOL   O383 2071   1.116   5.132   3.504 -0.3898  0.4450  0.8398
    5MOL   C384 2072   1.138   5.040   3.608 -0.6133  0.1006 -0.1382
    5MOL   C385 2073   1.262   5.033   3.670  0.0015  0.0832  0.5665
    5MOL   C386 2074   1.282   4.932   3.764  0.2262 -0.4293  0.0753
    5MOL   C387 2075   1.183   4.841   3.795 -0.0089 -0.0087  0.4828
    5MOL   C388 2076   1.067   4.833   3.721 -0.3859  0.8829 -0.3115
    5MOL   C389 2077   1.040   4.937   3.634  0.1978 -0.3808  0.0375
    5MOL   C390 2078   0.712   5.018   3.450 -0.3784 -0.5167  0.2132
    5MOL   H391 2079   0.788   5.206   3.371 -3.0154 -0.1840  0.3498
    5MOL   H392 2080   0.997   5.250   3.405 -0.6108  0.3659  1.0870
    5MOL   H393 2081   0.920   5.168   3.549  1.2488  0.9632  0.9457
    5MOL   H394 2082   1.339   5.101   3.639 -0.0333 -0.2182 -0.1906
    5MOL   H395 2083   1.375   4.938   3.819  2.0501 -2.0212 -2.7346
    5MOL   H396 2084   1.211   4.759   3.859  0.4725  0.8732  1.4201
    5MOL   H397 2085   0.999   4.753   3.746  0.0795  0.9418  1.1678
    5MOL   H398 2086   0.949   4.930   3.577  0.2036 -1.6825  0.1688
    5MOL   H399 2087   0.764   5.015   3.546  1.0382 -2.3149 -0.5738
    5MOL   H400 2088   0.708   4.918   3.406 -2.3516 -1.0324  1.5211
    5MOL   C401 2089   0.567   5.069   3.473 -0.0521 -0.6052  0.3344
    5MOL   O402 2090   0.498   4.960   3.536  0.1084 -0.6121 -0.2412
    5MOL   C403 2091   0.359   4.947   3.499 -0.3529  0.4407 -0.7603
    5MOL   O404 2092   0.298   5.074   3.492  0.2483 -0.0397  0.0901
    5MOL   C405 2093   0.191   5.092   3.409  0.4242 -0.0779 -0.5413
    5MOL   C406 2094   0.105   4.983   3.383 -0.1586  0.0319  0.3816
    5MOL   C407 2095   0.015   4.987   3.276 -0.0896  0.0297 -0.1814
    5MOL   C408 2096   0.008   5.102   3.195  0.0303 -0.2804  0.0708
    5MOL   C409 2097   0.082   5.211   3.226 -0.4508 -0.1985  0.2201
    5MOL   C410 2098   0.168   5.209   3.335 -0.3478 -0.1188 -0.2543
    5MOL   C411 2099   0.564   5.198   3.558 -0.6288 -0.5084 -0.1960
    5MOL   H412 2100   0.520   5.086   3.376 -0.1261 -0.7249  0.3494
    5MOL   H413 2101   0.309   4.889   3.576 -0.4406  1.8442  0.2528
    5MOL   H414 2102   0.349   4.893   3.404 -2.3113 -3.2500  1.4345
    5MOL   H415 2103   0.113   4.887   3.433 -0.3993  0.2204  0.7781
    5MOL   H416 2104   7.934   4.896   3.264 -1.9326  0.7430  2.6696
    5MOL   H417 2105   7.923   5.109   3.106  1.1222  1.9935 -0.5414
    5MOL   H418 2106   0.074   5.293   3.156 -1.0524 -0.4125  0.0376
    5MOL   H419 2107   0.224   5.299   3.357  1.7041 -0.4874 -3.6295
    5MOL   H420 2108   0.621   5.280   3.513  0.1649 -0.6754  0.5027
    5MOL   H421 2109   0.597   5.171   3.658 -1.3331  3.5694  1.2070
    5MOL   H422 2110   0.459   5.225   3.556 -0.5462 -0.1852 -0.1997
    6MOL     C1 2111   0.050   3.562   2.940 -0.1384 -0.6008 -0.0661
    6MOL     O2 2112   0.152   3.482   2.878 -0.7646 -0.1247 -0.2686
    6MOL     C3 2113   0.103   3.355   2.857  0.1915  0.1974  0.5174
    6MOL     O4 2114   7.964   3.358   2.785  0.2665 -0.0508 -0.0946
    6MOL     C5 2115   7.970   3.379   2.650  0.0604  0.3097 -0.0686
    6MOL     C6 2116   7.843   3.377   2.587 -0.3028  0.2725 -0.1639
    6MOL     C7 2117   7.835   3.396   2.451  0.2195 -0.5467  0.5011
    6MOL     C8 2118   7.950   3.422   2.372 -0.7411  0.2599 -1.0367
    6MOL     C9 2119   0.098   3.409   2.431  0.3019 -0.0645  0.3312
    6MOL    C10 2120   0.116   3.383   2.575 -0.0790 -0.2747 -0.2828
    6MOL    C11 2121   0.114   3.692   3.001  0.2440 -0.2659 -0.5181
    6MOL    H12 2122   7.946   3.589   2.871 -0.2909  1.5403  0.8956
    6MOL    H13 2123   0.185   3.299   2.811 -0.0559 -0.4935  0.9182
    6MOL    H14 2124   0.078   3.307   2.952 -2.8747 -1.6208 -1.1365
    6MOL    H15 2125   7.745   3.384   2.632 -0.4050 -0.9162 -0.1911
    6MOL    H16 2126   7.735   3.390   2.410  1.1998  1.7935 -2.4443
    6MOL    H17 2127   7.941   3.435   2.265  1.7968 -1.6339 -1.5151
    6MOL    H18 2128   0.179   3.429   2.362 -1.0712  0.8420 -1.0367
    6MOL    H19 2129   0.218   3.375   2.610 -0.3026 -0.2062  0.3894
    6MOL    H20 2130   0.166   3.755   2.929  0.7102  1.7226  1.4804
    6MOL    H21 2131   0.182   3.653   3.076  2.6507  3.0586 -0.8387
    6MOL    H22 2132   0.013   3.503   3.024  1.4364  0.6356  1.5529
    6MOL    C23 2133   0.012   3.784   3.080 -0.1599 -0.0928 -0.0112
    6MOL    O24 2134   7.895   3.851   2.983  0.0919  0.5597  0.1422
    6MOL    C25 2135   7.756   3.853   3.016 -0.1302 -0.4046  0.3277
    6MOL    O26 2136   7.686   3.734   2.993 -0.1221 -0.2404 -0.2269
    6MOL    C27 2137   7.640   3.718   2.862 -0.3940 -0.4121  0.0570
    6MOL    C28 2138   7.521   3.651   2.836  0.5359 -0.0224 -0.0961
    6MOL    C29 2139   7.482   3.626   2.702 -0.1987 -0.7835 -0.2946
    6MOL    C30 2140   7.567   3.658   2.598 -0.9788  0.2154  1.1979
    6MOL    C31 2141   7.688   3.720   2.621 -0.2663  0.1844  0.4926
    6MOL    C32 2142   7.718   3.758   2.753  0.3846  0.2146 -0.3547
    6MOL    C33 2143   0.091   3.888   3.166  0.1202  0.2269  0.3051
    6MOL    H34 2144   7.943   3.720   3.156  0.7294  2.3012  2.6319
    6MOL    H35 2145   7.706   3.935   2.963  1.5288 -0.6645 -1.7247
    6MOL    H36 2146   7.734   3.878   3.120  0.7153  1.4634  0.0817
    6MOL    H37 2147   7.469   3.608   2.921 -1.5878  3.9909  0.7435
    6MOL    H38 2148   7.395   3.569   2.674  1.1249 -0.9797 -4.2821
    6MOL    H39 2149   7.531   3.626   2.501  1.5549  0.9050 -0.0070
    6MOL    H40 2150   7.756   3.735   2.537  0.5201  0.6896  1.2121
    6MOL    H41 2151   7.814   3.806   2.763  0.2269  0.7316 -1.2500
    6MOL    H42 2152   0.132   3.952   3.087  1.5854 -0.6513  0.3423
    6MOL    H43 2153   0.165   3.831   3.221 -0.5527 -0.2194  0.7561
    6MOL    C44 2154   7.975   3.965   3.271 -0.2756  0.0322 -0.1316
    6MOL    O45 2155   0.101   4.055   3.323  0.1158 -0.5511  0.4869
    6MOL    C46 2156   0.076   4.188   3.335 -0.5503  0.3882 -0.0661
    6MOL    O47 2157   0.022   4.208   3.463  0.6916 -0.2637  0.1452
    6MOL    C48 2158   0.100   4.196   3.576  0.2062  0.4506  0.0872
    6MOL    C49 2159   0.028   4.218   3.695 -0.4535 -0.1546  0.7355
    6MOL    C50 2160   0.094   4.208   3.819 -0.0216  0.3344 -0.5426
    6MOL    C51 2161   0.228   4.182   3.819  0.1470  0.5180  0.2232
    6MOL    C52 2162   0.301   4.159   3.701  0.2282 -0.1033 -0.7000
    6MOL    C53 2163   0.238   4.171   3.579  0.5814  0.7111 -0.7147
    6MOL    C54 2164   7.896   3.878   3.382  0.3027 -0.2860 -0.0531
    6MOL    H55 2165   7.900   4.024   3.219 -1.0926 -1.6141 -0.8460
    6MOL    H56 2166   0.018   4.229   3.253 -0.7368  1.1740  0.4579
    6MOL    H57 2167   0.173   4.236   3.322  0.4684 -0.6741  3.1227
    6MOL    H58 2168   7.897   4.235   3.684  0.2909  2.5582 -3.5990
    6MOL    H59 2169   0.043   4.236   3.910  1.2664 -1.8234  0.8594
    6MOL    H60 2170   0.285   4.169   3.910  0.2528  2.0529  0.3879
    6MOL    H61 2171   0.407   4.142   3.697  0.2361  0.4099 -3.1874
    6MOL    H62 2172   0.292   4.158   3.487  2.9014 -2.0775  0.9701
    6MOL    H63 2173   7.840   3.796   3.338  0.1562  0.6166 -1.5763
    6MOL    H64 2174   7.961   3.827   3.452  0.1028  1.7347  1.6716
    6MOL    C65 2175   7.792   3.959   3.465 -0.8176  0.6620 -0.8204
    6MOL    O66 2176   7.697   3.998   3.367 -0.8630  0.1611 -0.1076
    6MOL    C67 2177   7.667   4.136   3.375  0.1714  0.4968  0.0078
    6MOL    O68 2178   7.706   4.196   3.259 -0.2305 -0.1161 -0.0574
    6MOL    C69 2179   7.638   4.175   3.142  0.5718 -0.2083 -0.4810
    6MOL    C70 2180   7.519   4.097   3.123 -0.4119  0.3124 -0.0715
    6MOL    C71 2181   7.463   4.078   2.998 -0.3994  0.1156 -0.2563
    6MOL    C72 2182   7.536   4.135   2.887  0.3028 -0.6063  0.4408
    6MOL    C73 2183   7.649   4.219   2.904  0.1265  0.7966  0.0104
    6MOL    C74 2184   7.695   4.243   3.037 -0.4373 -0.1395 -0.9091
    6MOL    C75 2185   7.720   3.880   3.578 -0.2443 -0.0089 -0.2103
    6MOL    H76 2186   7.848   4.039   3.514 -0.3364 -0.5328  0.6185
    6MOL    H77 2187   7.718   4.186   3.458 -1.0944  1.6407  0.1153
    6MOL    H78 2188   7.560   4.147   3.393  0.1556  1.4483 -0.6149
    6MOL    H79 2189   7.481   4.050   3.212 -0.8548  0.5922 -0.1120
    6MOL    H80 2190   7.377   4.014   2.987 -0.6518  0.3544  0.2941
    6MOL    H81 2191   7.503   4.116   2.786 -2.7321  0.1626  1.2397
    6MOL    H82 2192   7.696   4.265   2.818 -1.8227 -0.8759 -1.9939
    6MOL    H83 2193   7.790   4.293   3.051 -1.5569  1.0329  3.3720
    6MOL    H84 2194   7.670   3.793   3.535  0.8038 -0.7758  0.0977
    6MOL    H85 2195   7.794   3.824   3.635  0.3088 -0.8670 -1.7139
    6MOL    C86 2196   7.638   3.970   3.675  0.6784 -0.9945 -0.5981
    6MOL    O87 2197   7.529   4.025   3.598  0.1201 -0.5685 -0.3297
    6MOL    C88 2198   7.455   4.133   3.658  1.1159 -0.0070  0.2009
    6MOL    O89 2199   7.501   4.262   3.619 -0.3390  0.3285  0.0538
    6MOL    C90 2200   7.593   4.329   3.695 -0.7470  0.2604  0.2955
    6MOL    C91 2201   7.653   4.280   3.814 -0.7592  0.5234  0.1615
    6MOL    C92 2202   7.731   4.367   3.895  0.6288  0.2691  0.6739
    6MOL    C93 2203   7.756   4.497   3.849  0.3104  0.1006  0.3686
    6MOL    C94 2204   7.706   4.546   3.727 -0.3752  0.2247 -0.1099
    6MOL    C95 2205   7.626   4.459   3.648  0.2152  0.3286  0.3771
    6MOL    C96 2206   7.592   3.879   3.793  0.1046  0.3973 -0.9488
    6MOL    H97 2207   7.695   4.059   3.704 -2.0160  0.2183  1.2784
    6MOL    H98 2208   7.436   4.116   3.764  1.2684 -1.8123 -0.0356
    6MOL    H99 2209   7.359   4.135   3.607  1.5041 -0.4735 -0.5507
    6MOL   H100 2210   7.644   4.182   3.859  0.1991  0.6814  0.7051
    6MOL   H101 2211   7.757   4.344   3.997  0.5851 -1.5612  0.3009
    6MOL   H102 2212   7.809   4.568   3.910  1.0589 -1.1334  1.1801
    6MOL   H103 2213   7.735   4.642   3.686  1.1381  0.2288  0.9163
    6MOL   H104 2214   7.584   4.494   3.555  1.1060  0.1509 -0.1050
    6MOL   H105 2215   7.526   3.937   3.857 -0.4114 -0.0967 -1.0257
    6MOL   H106 2216   7.525   3.803   3.751 -0.5558 -0.1498  1.0489
    6MOL   C107 2217   7.699   3.815   3.888 -0.2394 -0.0914 -0.1356
    6MOL   O108 2218   7.778   3.929   3.928  0.4202  0.1322  0.0100
    6MOL   C109 2219   7.925   3.914   3.938  0.5160 -0.1461 -0.5409
    6MOL   O110 2220   7.953   3.829   4.045 -0.0905 -0.0437  0.0583
    6MOL   C111 2221   0.047   3.709   4.032  0.5033 -0.2199 -1.2166
    6MOL   C112 2222   0.100   3.650   3.922  0.2272  0.3644  0.2952
    6MOL   C113 2223   0.159   3.521   3.927 -0.0925 -0.0116  0.2144
    6MOL   C114 2224   0.175   3.449   4.046 -0.2300  0.1128  0.0684
    6MOL   C115 2225   0.123   3.507   4.163 -0.1759 -0.0281 -0.4230
    6MOL   C116 2226   0.065   3.635   4.151 -0.2032  0.2809  0.5610
    6MOL   C117 2227   7.644   3.741   4.012 -0.0719 -0.3900  0.2674
    6MOL   H118 2228   7.759   3.743   3.832 -1.6925  0.4613 -2.4782
    6MOL   H119 2229   7.960   4.016   3.956 -0.2617  0.1121 -0.4550
    6MOL   H120 2230   7.971   3.899   3.840 -0.7772  1.0063 -1.3583
    6MOL   H121 2231   0.089   3.691   3.822 -1.4391  1.0459  0.7372
    6MOL   H122 2232   0.192   3.478   3.834  0.2463 -1.3759  0.9495
    6MOL   H123 2233   0.234   3.359   4.035 -1.0097 -0.4086  0.1800
    6MOL   H124 2234   0.140   3.459   4.259  1.0574 -0.3687 -0.8007
    6MOL   H125 2235   0.018   3.674   4.240  1.4409 -1.5705  2.2903
    6MOL   H126 2236   7.548   3.786   4.039  0.1691 -0.9482  2.1306
    6MOL   H127 2237   7.708   3.757   4.099 -1.1982  0.3829  0.9816
    6MOL   C128 2238   7.634   3.590   3.996  0.3285  0.2697  0.5766
    6MOL   O129 2239   7.531   3.586   3.895 -0.0582 -0.1695 -0.3846
    6MOL   C130 2240   7.561   3.497   3.790  0.6726  0.3517  0.8113
    6MOL   O131 2241   7.684   3.515   3.728  0.0453 -0.1587  0.0276
    6MOL   C132 2242   7.706   3.459   3.610 -0.4456  0.2691  0.1456
    6MOL   C133 2243   7.808   3.511   3.538  0.4605 -0.5325  0.6791
    6MOL   C134 2244   7.847   3.453   3.417  0.3961  0.0669 -0.0420
    6MOL   C135 2245   7.775   3.351   3.357  1.0771  0.3785  0.6925
    6MOL   C136 2246   7.674   3.284   3.436  0.4924  0.3120 -0.2042
    6MOL   C137 2247   7.633   3.349   3.556  0.1682 -0.4429  0.0589
    6MOL   C138 2248   7.576   3.512   4.115  0.5018 -0.0508  0.3955
    6MOL   H139 2249   7.736   3.557   3.974  1.2043  2.2028  1.5570
    6MOL   H140 2250   7.486   3.518   3.713  2.1060 -1.1290 -1.0121
    6MOL   H141 2251   7.544   3.395   3.825 -1.6316 -0.0503 -1.2905
    6MOL   H142 2252   7.862   3.593   3.584 -0.5922 -0.2643  1.4570
    6MOL   H143 2253   7.932   3.500   3.369  0.9490  0.3477  1.2021
    6MOL   H144 2254   7.804   3.306   3.264  1.8845  0.8779  0.6990
    6MOL   H145 2255   7.616   3.201   3.399  1.9506 -2.1036  2.7028
    6MOL   H146 2256   7.545   3.308   3.603 -0.6728 -1.3594 -2.2232
    6MOL   H147 2257   7.576   3.586   4.196 -1.1049  0.6989 -0.2739
    6MOL   H148 2258   7.475   3.476   4.099  0.3405  0.5250  0.0937
    6MOL   C149 2259   7.663   3.400   4.165  0.2118  0.4073  0.1195
    6MOL   O150 2260   7.603   3.354   4.277  0.1621  0.1266  0.1424
    6MOL   C151 2261   7.679   3.360   4.393  0.9855 -0.2866  0.1696
    6MOL   O152 2262   7.781   3.272   4.387  0.2106  0.0265 -0.2380
    6MOL   C153 2263   7.879   3.267   4.485 -0.0446 -0.4533  0.5847
    6MOL   C154 2264   0.016   3.193   4.464  0.1513  0.3938 -0.7555
    6MOL   C155 2265   0.124   3.186   4.550  0.3954 -0.5507 -0.1341
    6MOL   C156 2266   0.120   3.269   4.666 -0.2369  0.3687 -0.3633
    6MOL   C157 2267   0.005   3.346   4.692 -0.1333  0.3396  0.0904
    6MOL   C158 2268   7.872   3.346   4.603  0.9130 -0.2908  0.5725
    6MOL   C159 2269   7.672   3.281   4.061 -0.5623  0.5031  0.3266
    6MOL   H160 2270   7.761   3.445   4.177 -0.2455  1.2041  0.9760
    6MOL   H161 2271   7.720   3.459   4.415  0.1802 -0.2974  1.7309
    6MOL   H162 2272   7.614   3.332   4.476 -1.1380 -0.2647 -1.4430
    6MOL   H163 2273   0.023   3.133   4.373  0.1905  1.0240 -1.1698
    6MOL   H164 2274   0.208   3.120   4.540  1.4344  0.6862  0.2739
    6MOL   H165 2275   0.199   3.272   4.739 -0.2710 -1.9216 -0.1756
    6MOL   H166 2276   0.002   3.401   4.785  1.0885  0.7899 -0.1258
    6MOL   H167 2277   7.780   3.400   4.619  0.8751 -0.0101 -0.5995
    6MOL   H168 2278   7.690   3.321   3.962 -0.2275 -0.5252 -0.0320
    6MOL   H169 2279   7.574   3.237   4.044  0.0103 -1.2324  1.4165
    6MOL   C170 2280   7.772   3.164   4.087 -0.8883 -0.4802  0.1996
    6MOL   O171 2281   7.728   3.056   4.006 -0.0937  0.7949 -0.4659
    6MOL   C172 2282   7.654   2.957   4.072 -0.0876  0.6256  0.6236
    6MOL   O173 2283   7.743   2.869   4.132  0.3874 -0.0701 -0.0975
    6MOL   C174 2284   7.777   2.756   4.062  0.1315  0.3106  0.8285
    6MOL   C175 2285   7.750   2.733   3.925  0.3210 -0.9782 -0.6942
    6MOL   C176 2286   7.787   2.617   3.860 -0.2859  1.0185 -0.1062
    6MOL   C177 2287   7.872   2.529   3.922  0.0557  0.2747 -1.3630
    6MOL   C178 2288   7.904   2.552   4.059  0.5475  0.2519 -0.4004
    6MOL   C179 2289   7.847   2.659   4.129 -0.1877 -0.0370  0.2484
    6MOL   C180 2290   7.921   3.190   4.048 -0.1990  0.0544 -0.3818
    6MOL   H181 2291   7.764   3.138   4.193  0.6406  1.8194  0.9038
    6MOL   H182 2292   7.588   2.910   4.000 -1.9391  1.5148  1.7138
    6MOL   H183 2293   7.587   2.996   4.148 -2.9210 -1.8639 -0.5152
    6MOL   H184 2294   7.705   2.806   3.858  3.0015  0.0766 -1.4081
    6MOL   H185 2295   7.770   2.615   3.754 -2.5365  1.0108  0.2291
    6MOL   H186 2296   7.903   2.440   3.869  0.5896 -0.3129 -0.1016
    6MOL   H187 2297   7.972   2.491   4.117 -0.3839 -2.7572 -2.3839
    6MOL   H188 2298   7.862   2.669   4.235 -0.1396 -1.6264  0.4031
    6MOL   H189 2299   7.921   3.238   3.950 -3.6101 -0.9480 -0.9360
    6MOL   H190 2300   7.956   3.276   4.106 -0.3607  0.7456 -1.2946
    6MOL   C191 2301   0.045   3.078   4.044 -1.0540  0.3652 -0.0788
    6MOL   O192 2302   0.107   3.064   4.173 -0.1452  0.5117  0.2115
    6MOL   C193 2303   0.120   2.935   4.220  0.2806  0.4319  0.5340
    6MOL   O194 2304   0.184   2.856   4.135  0.3778  0.4240 -0.4133
    6MOL   C195 2305   0.217   2.726   4.173  0.2322 -0.2541  1.2109
    6MOL   C196 2306   0.280   2.653   4.074 -0.3388  0.0081 -0.9544
    6MOL   C197 2307   0.323   2.523   4.096  1.3462  0.6320  0.6338
    6MOL   C198 2308   0.289   2.465   4.219 -0.2115  0.0111 -0.3768
    6MOL   C199 2309   0.256   2.546   4.326  1.0815  0.1296 -0.1164
    6MOL   C200 2310   0.211   2.680   4.305  0.5155 -0.9354  0.3498
    6MOL   C201 2311   0.156   3.099   3.935 -0.4347 -0.3040 -0.0024
    6MOL   H202 2312   7.970   2.985   4.020  2.5639 -2.0284  1.2331
    6MOL   H203 2313   0.031   2.885   4.258 -0.5313  0.1502 -1.6767
    6MOL   H204 2314   0.184   2.944   4.309  0.1250 -0.9245  0.8086
    6MOL   H205 2315   0.297   2.707   3.982 -1.1616  1.3189 -0.3438
    6MOL   H206 2316   0.381   2.468   4.022  0.8852  2.1574 -0.9012
    6MOL   H207 2317   0.332   2.367   4.236  0.4450  0.5086  0.9541
    6MOL   H208 2318   0.245   2.499   4.423 -1.0879  1.9124  0.5405
    6MOL   H209 2319   0.180   2.739   4.390  1.2032 -1.1807  0.7664
    6MOL   H210 2320   0.193   3.198   3.909  2.8808 -1.2348  0.9921
    6MOL   H211 2321   0.244   3.048   3.972  1.1884  1.7553 -0.9295
    6MOL   C212 2322   0.129   3.021   3.804  0.5426  0.0880  0.6567
    6MOL   O213 2323   0.093   3.122   3.714  0.2055 -0.0958  0.3719
    6MOL   C214 2324   7.931   3.128   3.695 -0.7845  0.0491 -0.6281
    6MOL   O215 2325   7.878   3.018   3.622  0.4553  0.0829  0.2937
    6MOL   C216 2326   7.875   3.012   3.486  0.0123  0.3258  0.2194
    6MOL   C217 2327   7.968   3.076   3.400 -0.2755  0.3927 -0.0369
    6MOL   C218 2328   7.964   3.059   3.256 -0.5963 -0.3031 -0.8640
    6MOL   C219 2329   7.867   2.971   3.200  0.0181 -0.1112  0.9504
    6MOL   C220 2330   7.776   2.907   3.285  0.5956  0.4321  0.5566
    6MOL   C221 2331   7.783   2.928   3.426  0.7428  0.5612 -0.1392
    6MOL   C222 2332   0.242   2.953   3.744  0.3074 -0.9557  0.1039
    6MOL   H223 2333   0.055   2.948   3.837 -0.5107  0.0844 -1.5734
    6MOL   H224 2334   7.895   3.219   3.649  1.5333  1.3421  0.0172
    6MOL   H225 2335   7.882   3.112   3.792  2.4581 -0.4530  1.0187
    6MOL   H226 2336   0.075   3.130   3.444 -0.1306  0.5598 -0.5145
    6MOL   H227 2337   0.066   3.105   3.197 -1.9028  1.3791 -1.3060
    6MOL   H228 2338   7.865   2.946   3.095 -1.4544  0.0757  0.9307
    6MOL   H229 2339   7.711   2.837   3.234  2.1772 -0.3518 -0.4439
    6MOL   H230 2340   7.715   2.881   3.496  0.9194 -2.2216 -1.7594
    6MOL   H231 2341   0.317   3.024   3.710  0.5208  0.1838  2.8447
    6MOL   H232 2342   0.287   2.903   3.830  0.6307  1.4795  1.3936
    6MOL   C233 2343   0.204   2.847   3.635  0.3400 -0.0175 -0.1956
    6MOL   O234 2344   0.321   2.812   3.560 -0.3210 -0.1345  0.6763
    6MOL   C235 2345   0.335   2.878   3.438 -0.2555 -0.0724 -0.0687
    6MOL   O236 2346   0.330   3.020   3.453  0.7541  0.4826 -0.6187
    6MOL   C237 2347   0.360   3.095   3.336  0.6023 -0.2141 -0.0823
    6MOL   C238 2348   0.377   3.233   3.352  0.6165 -0.2720  0.0098
    6MOL   C239 2349   0.391   3.316   3.242  0.5084  0.4009 -0.3979
    6MOL   C240 2350   0.399   3.267   3.111  0.2327 -0.3980  0.4422
    6MOL   C241 2351   0.384   3.127   3.093 -0.6515  0.2433  0.8728
    6MOL   C242 2352   0.366   3.047   3.209  0.5085  0.0979  0.2891
    6MOL   C243 2353   0.133   2.720   3.699 -0.3701 -0.0796  0.5123
    6MOL   H244 2354   0.128   2.898   3.575 -0.7767 -0.1228  1.0908
    6MOL   H245 2355   0.256   2.848   3.370 -1.1362 -1.7054  1.6320
    6MOL   H246 2356   0.434   2.852   3.402  0.1863  1.2787  0.1176
    6MOL   H247 2357   0.375   3.272   3.453  0.8392 -1.6146  0.5441
    6MOL   H248 2358   0.397   3.422   3.263 -0.5997  0.0288  1.9281
    6MOL   H249 2359   0.414   3.328   3.023 -0.2761 -1.0564 -0.0980
    6MOL   H250 2360   0.384   3.078   2.997  1.3822  0.1718  0.8843
    6MOL   H251 2361   0.350   2.943   3.185 -0.0274  0.8360 -2.7025
    6MOL   H252 2362   0.202   2.677   3.771 -0.0958 -4.1863 -2.0143
    6MOL   H253 2363   0.045   2.752   3.754 -1.7623 -1.1811 -1.0366
    6MOL   C254 2364   0.105   2.610   3.603  0.7277 -0.1000  0.0483
    6MOL   O255 2365   0.053   2.492   3.672  0.5411 -0.4996 -0.0398
    6MOL   C256 2366   0.145   2.396   3.703  0.4149 -0.1528 -0.5802
    6MOL   O257 2367   0.190   2.326   3.590  0.5638 -0.5349 -0.6528
    6MOL   C258 2368   0.328   2.316   3.577  0.7947  0.1237 -0.4276
    6MOL   C259 2369   0.391   2.399   3.482 -0.2990 -0.4527 -0.7603
    6MOL   C260 2370   0.532   2.390   3.474  0.0429  0.4255 -0.0550
    6MOL   C261 2371   0.608   2.313   3.568 -0.3349  0.2669 -0.2892
    6MOL   C262 2372   0.541   2.228   3.660  0.0937  0.4326  0.4729
    6MOL   C263 2373   0.402   2.223   3.658  0.3053  0.9545 -0.7511
    6MOL   C264 2374   7.974   2.651   3.492  0.6829  0.8215 -0.9833
    6MOL   H265 2375   0.201   2.580   3.561  1.8880  0.6694  2.0808
    6MOL   H266 2376   0.098   2.319   3.764  2.2393  0.0131  1.0828
    6MOL   H267 2377   0.217   2.433   3.776  0.7892  0.8887 -1.4676
    6MOL   H268 2378   0.337   2.462   3.412  0.1745 -0.2579 -0.9482
    6MOL   H269 2379   0.587   2.431   3.391 -0.8138  1.6083 -0.0552
    6MOL   H270 2380   0.716   2.307   3.571 -0.3265 -0.6813 -2.2173
    6MOL   H271 2381   0.593   2.165   3.731  1.9598 -0.6336 -1.7650
    6MOL   H272 2382   0.338   2.164   3.722  0.8151  1.1695 -0.0377
    6MOL   H273 2383   7.875   2.668   3.535  1.1566  1.2218 -0.0274
    6MOL   H274 2384   0.023   2.752   3.459  1.2916  1.6576  1.8961
    6MOL   C275 2385   7.966   2.555   3.372 -0.3989 -0.3293  0.1231
    6MOL   O276 2386   7.827   2.533   3.356  0.1188  0.1832  0.1256
    6MOL   C277 2387   7.759   2.459   3.454  0.2543 -0.6394  0.5818
    6MOL   O278 2388   7.667   2.541   3.519 -0.6526  0.2361  0.0218
    6MOL   C279 2389   7.541   2.568   3.466  0.0293  0.4600  0.3418
    6MOL   C280 2390   7.521   2.557   3.329  0.3603 -0.5450  0.2916
    6MOL   C281 2391   7.395   2.584   3.270  0.1017  0.0306  0.2237
    6MOL   C282 2392   7.290   2.618   3.351  0.2905 -0.2365  0.0417
    6MOL   C283 2393   7.300   2.619   3.490 -0.2911 -0.2378  0.1970
    6MOL   C284 2394   7.428   2.597   3.544  0.2211  0.0352 -0.4471
    6MOL   C285 2395   0.049   2.588   3.244 -0.3049 -0.5525  0.1922
    6MOL   H286 2396   0.035   2.465   3.416 -0.9244  0.1379  1.6272
    6MOL   H287 2397   7.825   2.423   3.533  0.9042 -0.2817  0.2080
    6MOL   H288 2398   7.711   2.379   3.397  0.3962 -1.1716  1.2031
    6MOL   H289 2399   7.610   2.540   3.269  1.7397  3.0636  1.2347
    6MOL   H290 2400   7.381   2.574   3.163  0.2515  1.1723  0.0964
    6MOL   H291 2401   7.194   2.635   3.304  0.8985  2.4427 -0.2975
    6MOL   H292 2402   7.222   2.644   3.561 -0.1193 -0.8626  0.6120
    6MOL   H293 2403   7.436   2.594   3.652 -0.4352 -0.9131 -0.4184
    6MOL   H294 2404   0.147   2.628   3.269 -1.7310  3.5785 -0.4335
    6MOL   H295 2405   7.961   2.655   3.185  1.4079  0.3762 -0.6497
    6MOL   C296 2406   0.085   2.459   3.167 -0.3202 -0.4253  0.1309
    6MOL   O297 2407   7.937   2.396   3.143  0.0094 -0.3613 -0.0749
    6MOL   C298 2408   7.937   2.255   3.153  0.2453 -0.1216 -0.1434
    6MOL   O299 2409   0.006   2.210   3.275  0.1837  0.3366 -0.0764
    6MOL   C300 2410   0.027   2.074   3.291 -0.1894 -0.3986  0.1065
    6MOL   C301 2411   7.950   1.974   3.205  0.7554  0.6558  0.8712
    6MOL   C302 2412   0.008   1.833   3.225 -0.8868 -0.9023  0.1237
    6MOL   C303 2413   0.092   1.802   3.332 -0.0197 -0.0161  0.5629
    6MOL   C304 2414   0.139   1.902   3.419 -0.1294 -0.6766  0.0932
    6MOL   C305 2415   0.113   2.037   3.394 -0.2306  0.8204 -0.1600
    6MOL   C306 2416   0.154   2.481   3.039 -0.2245 -0.5794  0.1293
    6MOL   H307 2417   0.152   2.407   3.235 -1.0570 -0.8811  0.5246
    6MOL   H308 2418   0.024   2.209   3.077 -0.3893  0.4413 -1.0219
    6MOL   H309 2419   7.835   2.221   3.140 -0.5412  2.5766 -1.5216
    6MOL   H310 2420   7.891   1.997   3.118 -0.6072 -0.1642  1.5645
    6MOL   H311 2421   7.941   1.759   3.160 -1.0197 -0.7012 -0.0193
    6MOL   H312 2422   0.116   1.698   3.345 -1.5725 -0.4379  0.1519
    6MOL   H313 2423   0.191   1.868   3.507  0.6812  1.9060  0.6466
    6MOL   H314 2424   0.153   2.118   3.454  1.2362 -0.3675  0.5190
    6MOL   H315 2425   0.116   2.573   2.994  1.9000  0.0560 -0.4450
    6MOL   H316 2426   0.153   2.398   2.969 -0.1123 -0.6087  0.1620
    6MOL   C317 2427   0.307   2.502   3.053  0.9199 -0.1423  0.0309
    6MOL   O318 2428   0.348   2.558   2.929 -0.1096  1.1539 -0.7487
    6MOL   C319 2429   0.392   2.690   2.943 -0.7964 -0.3427 -1.1806
    6MOL   O320 2430   0.287   2.785   2.961 -0.1289 -0.8136 -0.0443
    6MOL   C321 2431   0.222   2.831   2.847 -0.2010 -0.1380 -0.4685
    6MOL   C322 2432   0.242   2.791   2.714  0.3205 -0.1485 -0.1963
    6MOL   C323 2433   0.170   2.852   2.608  0.0213 -0.4032 -0.0202
    6MOL   C324 2434   0.087   2.967   2.643  0.0009  0.1715 -0.7036
    6MOL   C325 2435   0.055   2.997   2.775  0.4459  0.0175 -0.0666
    6MOL   C326 2436   0.130   2.932   2.874  0.4976 -0.1158 -0.0835
    6MOL   C327 2437   0.375   2.366   3.084 -0.1807  0.1801  0.4488
    6MOL   H328 2438   0.319   2.572   3.135  1.8030 -0.0177 -0.1924
    6MOL   H329 2439   0.456   2.721   2.861  0.4392 -0.7742 -0.3901
    6MOL   H330 2440   0.468   2.700   3.020 -0.0698  0.8570 -2.0443
    6MOL   H331 2441   0.308   2.707   2.695 -0.5710 -1.1117  0.8828
    6MOL   H332 2442   0.172   2.817   2.506 -0.2777 -2.8478  0.7767
    6MOL   H333 2443   0.050   3.034   2.567 -0.7736  0.8800  0.2874
    6MOL   H334 2444   7.963   3.077   2.798  1.8966  0.7651  1.6654
    6MOL   H335 2445   0.110   2.969   2.974  1.8667  0.3773  0.0164
    6MOL   H336 2446   0.355   2.327   3.184 -0.7111 -0.5739  0.0507
    6MOL   H337 2447   0.325   2.283   3.034 -1.7375 -0.3221  2.7538
    6MOL   C338 2448   0.524   2.372   3.060  0.0998 -0.1952 -0.3672
    6MOL   O339 2449   0.584   2.496   3.097 -0.1704  0.6755  0.0629
    6MOL   C340 2450   0.700   2.526   3.041  0.3763 -0.3975 -0.0849
    6MOL   O341 2451   0.737   2.657   3.052  0.0784 -0.0947  0.6525
    6MOL   C342 2452   0.734   2.713   3.179 -0.1427  0.2164  0.2549
    6MOL   C343 2453   0.703   2.848   3.182 -0.2279  0.4625  0.0681
    6MOL   C344 2454   0.689   2.913   3.301  0.1360 -0.3997 -0.0525
    6MOL   C345 2455   0.693   2.847   3.425 -0.2136  0.6378  0.6062
    6MOL   C346 2456   0.716   2.706   3.424  0.0983 -1.1294 -1.0206
    6MOL   C347 2457   0.736   2.644   3.301 -0.3938 -0.0822 -1.1603
    6MOL   C348 2458   0.602   2.246   3.117  0.4586  0.1355  0.4116
    6MOL   H349 2459   0.534   2.361   2.952  0.0704 -2.3603 -0.1864
    6MOL   H350 2460   0.700   2.498   2.935  2.7361 -1.7589  0.2421
    6MOL   H351 2461   0.778   2.467   3.088  0.3130 -1.1370 -0.8923
    6MOL   H352 2462   0.691   2.910   3.094  0.6807  1.2130  0.4615
    6MOL   H353 2463   0.673   3.019   3.290 -0.2821 -0.6689 -2.2596
    6MOL   H354 2464   0.688   2.904   3.516  0.5515 -0.1376  1.1485
    6MOL   H355 2465   0.726   2.649   3.515  1.7295  0.2414 -0.3264
    6MOL   H356 2466   0.755   2.538   3.301 -0.3668 -0.0789 -2.2116
    6MOL   H357 2467   0.595   2.242   3.225 -0.7506 -1.0758  0.2990
    6MOL   H358 2468   0.706   2.258   3.085  0.5272 -2.0061 -0.2999
    6MOL   C359 2469   0.563   2.109   3.064 -0.0761  0.1871  0.3661
    6MOL   O360 2470   0.655   2.017   3.119 -0.2834  0.0706  0.0911
    6MOL   C361 2471   0.623   1.875   3.125 -0.3180 -0.0474  0.3916
    6MOL   O362 2472   0.651   1.813   2.999 -0.6840 -0.5583  0.8239
    6MOL   C363 2473   0.781   1.789   2.956  0.1885 -0.1749  0.8545
    6MOL   C364 2474   0.899   1.838   3.019 -0.2678  0.4360 -0.2461
    6MOL   C365 2475   1.027   1.822   2.963 -0.6913  0.0718  0.1602
    6MOL   C366 2476   1.039   1.750   2.844  0.0191  0.1995  0.1627
    6MOL   C367 2477   0.920   1.699   2.778  0.6056  0.0922 -0.0622
    6MOL   C368 2478   0.794   1.725   2.830 -0.1956  0.3406  0.2259
    6MOL   C369 2479   0.550   2.091   2.908  0.0973 -0.0355 -0.3315
    6MOL   H370 2480   0.460   2.092   3.095 -0.6026 -0.3975 -1.6138
    6MOL   H371 2481   0.516   1.860   3.138 -0.8701  2.6995 -0.6367
    6MOL   H372 2482   0.680   1.833   3.209 -1.2585  0.4542  1.2951
    6MOL   H373 2483   0.895   1.882   3.118  1.0359 -0.6376  0.2930
    6MOL   H374 2484   1.114   1.862   3.012  0.7162 -3.0858  0.3590
    6MOL   H375 2485   1.133   1.717   2.802 -0.7358  1.1941 -2.3626
    6MOL   H376 2486   0.923   1.638   2.689 -0.5570  0.2202 -0.1883
    6MOL   H377 2487   0.711   1.690   2.771  0.7369  0.1458 -0.9872
    6MOL   H378 2488   0.479   2.167   2.876 -0.8053 -0.1350  1.4025
    6MOL   H379 2489   0.500   1.995   2.898 -0.2690  0.3790 -2.9914
    6MOL   C380 2490   0.678   2.100   2.821  0.1411  0.7723  0.6185
    6MOL   O381 2491   0.732   2.228   2.832  0.8764  0.6763  0.3682
    6MOL   C382 2492   0.870   2.210   2.858  0.4061  0.2625  0.1140
    6MOL   O383 2493   0.923   2.333   2.876  0.1630  0.1577 -0.5614
    6MOL   C384 2494   0.958   2.406   2.766 -0.6564  0.0515 -0.3531
    6MOL   C385 2495   0.880   2.400   2.646 -0.1684 -0.1652 -0.3450
    6MOL   C386 2496   0.919   2.482   2.539  0.6899 -0.6654 -0.1809
    6MOL   C387 2497   1.046   2.555   2.545 -0.5570 -0.1836  0.3586
    6MOL   C388 2498   1.124   2.555   2.656 -0.1433  0.1737 -0.7794
    6MOL   C389 2499   1.079   2.478   2.766 -0.1629  0.2313 -0.5760
    6MOL   C390 2500   0.672   2.034   2.680  0.2025 -0.4910  0.3104
    6MOL   H391 2501   0.741   2.029   2.874  1.3931  2.2470  1.1153
    6MOL   H392 2502   0.891   2.156   2.950  0.9724 -1.1195 -0.8140
    6MOL   H393 2503   0.926   2.165   2.776  0.0824  1.3054 -0.6943
    6MOL   H394 2504   0.794   2.335   2.649  2.2326 -3.4648  1.5059
    6MOL   H395 2505   0.851   2.481   2.456  1.2779  0.7872 -0.6931
    6MOL   H396 2506   1.080   2.607   2.457 -0.1136  1.8726  1.7240
    6MOL   H397 2507   1.219   2.607   2.659 -0.1216  0.1556 -1.0946
    6MOL   H398 2508   1.150   2.471   2.847 -0.9158  2.4140  0.3141
    6MOL   H399 2509   0.642   1.929   2.687  1.2829 -0.7217  1.6977
    6MOL   H400 2510   0.775   2.037   2.645  0.3646 -0.8864  0.7356
    6MOL   C401 2511   0.589   2.114   2.574  0.1979 -0.6927  0.1440
    6MOL   O402 2512   0.616   2.052   2.443 -0.1206  0.6388  0.6364
    6MOL   C403 2513   0.625   2.138   2.340  0.4663 -0.1248 -0.2226
    6MOL   O404 2514   0.742   2.213   2.348  0.6527 -0.0845 -0.5700
    6MOL   C405 2515   0.756   2.320   2.260 -0.3774 -0.0153  0.4512
    6MOL   C406 2516   0.886   2.358   2.219  0.4182  0.1118  0.1271
    6MOL   C407 2517   0.913   2.465   2.126 -0.2142  0.4446  0.9201
    6MOL   C408 2518   0.808   2.538   2.067  0.0057 -0.2299  0.6531
    6MOL   C409 2519   0.681   2.504   2.108  0.0830 -0.0616 -0.3124
    6MOL   C410 2520   0.650   2.398   2.203 -0.0814  0.1829 -0.4297
    6MOL   C411 2521   0.432   2.118   2.597  0.2974  0.4178 -0.0784
    6MOL   H412 2522   0.629   2.215   2.574 -2.8757  0.6004  0.7067
    6MOL   H413 2523   0.538   2.204   2.343  2.4475  2.5869  0.0518
    6MOL   H414 2524   0.624   2.071   2.255  0.4166 -0.3135 -0.0729
    6MOL   H415 2525   0.967   2.310   2.271 -1.6626 -2.1461  1.3374
    6MOL   H416 2526   1.013   2.494   2.097 -0.8932  0.9777 -0.9872
    6MOL   H417 2527   0.830   2.628   2.011 -0.7462 -0.3375  0.1839
    6MOL   H418 2528   0.607   2.556   2.049  1.5880  1.2371 -1.0909
    6MOL   H419 2529   0.554   2.386   2.250  0.5628  1.8232  1.3612
    6MOL   H420 2530   0.385   2.182   2.522  4.0416  2.1278 -1.1251
    6MOL   H421 2531   0.396   2.173   2.684 -0.3492 -0.9519  0.5283
    6MOL   H422 2532   0.405   2.013   2.604  0.8750  0.2913  0.3101
    7MOL     C1 2533   7.135   4.620   1.046  0.5021  0.1259  0.5981
    7MOL     O2 2534   7.105   4.484   1.045  0.7401  0.1560 -0.5691
    7MOL     C3 2535   7.109   4.424   0.920 -0.4253  0.2995 -0.1009
    7MOL     O4 2536   7.235   4.416   0.864  0.4231 -0.1700 -0.0246
    7MOL     C5 2537   7.247   4.418   0.729  0.5138 -0.1416 -0.1925
    7MOL     C6 2538   7.371   4.440   0.670  0.2696 -0.4204 -0.1000
    7MOL     C7 2539   7.391   4.426   0.536 -1.1207  0.0984  0.4360
    7MOL     C8 2540   7.290   4.404   0.450  0.3607  0.2259  0.7253
    7MOL     C9 2541   7.163   4.376   0.503 -0.5662 -0.4056  1.1955
    7MOL    C10 2542   7.134   4.390   0.641  0.0691 -0.2684 -0.2500
    7MOL    C11 2543   7.056   4.683   1.163 -0.3486  0.1267  0.0475
    7MOL    H12 2544   7.243   4.630   1.056  0.4908  0.4055  0.4399
    7MOL    H13 2545   7.068   4.323   0.921  0.1972  0.0484 -0.0098
    7MOL    H14 2546   7.046   4.491   0.861 -0.4172  0.6956  0.3402
    7MOL    H15 2547   7.465   4.464   0.719 -0.3573  2.0739 -0.0478
    7MOL    H16 2548   7.490   4.433   0.496 -1.1103  0.2334  0.4866
    7MOL    H17 2549   7.313   4.406   0.345 -0.1901  0.5093  0.6073
    7MOL    H18 2550   7.082   4.357   0.435 -0.2623 -0.4189  0.8305
    7MOL    H19 2551   7.039   4.361   0.683  0.0000 -0.7387 -0.7287
    7MOL    H20 2552   7.070   4.626   1.255 -0.1428 -1.6546 -1.0565
    7MOL    H21 2553   6.950   4.683   1.140 -0.0491 -0.3007 -1.4184
    7MOL    H22 2554   7.117   4.672   0.952  0.2809  0.2318  0.6963
    7MOL    C23 2555   7.085   4.828   1.195 -0.2882 -0.1018 -0.1806
    7MOL    O24 2556   7.210   4.825   1.265  0.3965  0.2757  0.2802
    7MOL    C25 2557   7.266   4.946   1.308  0.5768 -0.0084 -0.7847
    7MOL    O26 2558   7.201   4.982   1.429 -0.5637 -0.3595 -0.4497
    7MOL    C27 2559   7.247   4.915   1.546 -0.0496 -0.3929 -0.6675
    7MOL    C28 2560   7.223   4.996   1.664  0.0072  0.1453  0.4458
    7MOL    C29 2561   7.257   4.948   1.786 -0.4292 -0.2631  0.5793
    7MOL    C30 2562   7.313   4.823   1.798 -0.5954 -0.2990 -0.1788
    7MOL    C31 2563   7.343   4.742   1.687  0.2451  0.6580  0.1556
    7MOL    C32 2564   7.309   4.786   1.561 -0.5647  0.0283 -0.4990
    7MOL    C33 2565   6.967   4.900   1.256 -0.1001  0.1638 -0.4597
    7MOL    H34 2566   7.105   4.871   1.097 -1.8513  3.2580  0.9023
    7MOL    H35 2567   7.248   5.027   1.237 -4.0496 -0.8641 -0.7576
    7MOL    H36 2568   7.373   4.937   1.324  0.3753 -0.1816  0.5749
    7MOL    H37 2569   7.169   5.087   1.641 -1.7526 -0.9907 -0.0214
    7MOL    H38 2570   7.231   5.016   1.865  0.4157 -0.2888  0.8892
    7MOL    H39 2571   7.332   4.785   1.897 -3.0160 -0.8784  0.0869
    7MOL    H40 2572   7.374   4.640   1.707 -2.1538 -0.0462  0.3933
    7MOL    H41 2573   7.332   4.719   1.480 -0.5276  0.0850 -0.5361
    7MOL    H42 2574   6.963   4.866   1.359  2.1817 -2.3861 -1.1658
    7MOL    H43 2575   6.872   4.855   1.226  0.6038 -2.5404  1.1970
    7MOL    C44 2576   6.942   5.052   1.226  0.0781 -0.6096 -0.4762
    7MOL    O45 2577   6.856   5.091   1.337 -0.4623 -0.1222 -0.6592
    7MOL    C46 2578   6.906   5.175   1.430  0.1530 -0.3969 -0.5249
    7MOL    O47 2579   6.808   5.230   1.511 -0.0158 -0.1015  0.2533
    7MOL    C48 2580   6.746   5.151   1.601  0.0090  0.2660  0.3103
    7MOL    C49 2581   6.785   5.023   1.645 -0.3419  0.0761  0.3485
    7MOL    C50 2582   6.723   4.963   1.755  0.1765  0.1020 -0.0135
    7MOL    C51 2583   6.612   5.025   1.820 -0.0839  0.0523  0.0431
    7MOL    C52 2584   6.568   5.148   1.770  0.4101  0.7049 -0.4518
    7MOL    C53 2585   6.636   5.217   1.665  0.0091 -0.6225  0.1486
    7MOL    C54 2586   6.882   5.094   1.092 -0.2958  0.6245 -0.2135
    7MOL    H55 2587   7.043   5.093   1.236  1.5976 -3.8255 -1.6850
    7MOL    H56 2588   6.957   5.251   1.371 -1.2996  0.8971 -0.1685
    7MOL    H57 2589   6.983   5.126   1.490 -0.1951 -0.9414 -0.5174
    7MOL    H58 2590   6.866   4.972   1.594  0.7469  2.2468 -0.1976
    7MOL    H59 2591   6.743   4.860   1.781 -2.0280 -0.2411  0.4812
    7MOL    H60 2592   6.553   4.964   1.886  0.6248  0.4732  1.0740
    7MOL    H61 2593   6.476   5.190   1.808 -1.2184 -1.6594 -1.6453
    7MOL    H62 2594   6.618   5.321   1.640  1.7441 -0.1603  0.7389
    7MOL    H63 2595   6.927   5.025   1.021 -1.0084  0.5696 -0.6056
    7MOL    H64 2596   6.775   5.074   1.097 -0.6790  2.3004 -1.2417
    7MOL    C65 2597   6.910   5.239   1.047  1.1344  0.1684  0.0592
    7MOL    O66 2598   7.055   5.232   1.018  0.0279 -0.2358 -0.7795
    7MOL    C67 2599   7.123   5.350   1.054  0.5542 -0.2511  0.0991
    7MOL    O68 2600   7.149   5.370   1.192  0.0697  0.2575  0.2457
    7MOL    C69 2601   7.281   5.382   1.229  0.7386 -0.4122  0.1748
    7MOL    C70 2602   7.318   5.324   1.349  0.1173 -0.2148  0.6694
    7MOL    C71 2603   7.446   5.331   1.400 -0.1155  0.2814  0.2922
    7MOL    C72 2604   7.547   5.385   1.321  0.3449 -0.3033 -0.2988
    7MOL    C73 2605   7.505   5.455   1.204  0.4414 -0.7337  0.3468
    7MOL    C74 2606   7.378   5.449   1.155  0.1329 -0.2170 -0.2358
    7MOL    C75 2607   6.835   5.286   0.921 -0.5218  0.6747 -0.4471
    7MOL    H76 2608   6.899   5.298   1.137  0.1349 -2.5247  1.7492
    7MOL    H77 2609   7.072   5.441   1.025  2.7849  0.6897 -1.0046
    7MOL    H78 2610   7.216   5.343   0.997  0.1637  0.9296 -0.7041
    7MOL    H79 2611   7.240   5.279   1.409 -0.8993  0.6308 -0.0071
    7MOL    H80 2612   7.466   5.283   1.494  0.1003 -1.8146 -0.7845
    7MOL    H81 2613   7.651   5.382   1.350  0.2834  0.9006  0.0753
    7MOL    H82 2614   7.583   5.502   1.146  0.4700 -0.9212  0.2328
    7MOL    H83 2615   7.356   5.496   1.061 -3.1380 -0.2701  0.4118
    7MOL    H84 2616   6.918   5.315   0.856  1.0413 -1.2250  0.6854
    7MOL    H85 2617   6.795   5.202   0.864 -1.5688 -1.0350  2.6885
    7MOL    C86 2618   6.734   5.394   0.942  0.3388  0.4558  0.3423
    7MOL    O87 2619   6.707   5.437   0.808  0.3452  0.0319  0.1803
    7MOL    C88 2620   6.684   5.570   0.792  0.0564 -0.0890 -0.2092
    7MOL    O89 2621   6.803   5.635   0.824  0.4681 -0.4715  0.1905
    7MOL    C90 2622   6.817   5.774   0.818 -0.2491  0.3010 -0.3241
    7MOL    C91 2623   6.942   5.826   0.850  0.0842  0.0654  0.5747
    7MOL    C92 2624   6.965   5.967   0.837 -0.1291  0.0873 -0.1357
    7MOL    C93 2625   6.872   6.050   0.781  0.4738  0.5065 -0.2061
    7MOL    C94 2626   6.744   6.000   0.749  1.0647 -0.2211 -0.0096
    7MOL    C95 2627   6.719   5.859   0.754 -0.3651 -0.0964 -0.3956
    7MOL    C96 2628   6.606   5.340   0.998 -0.1394  0.2788 -0.5749
    7MOL    H97 2629   6.776   5.472   1.006 -1.4165  1.8937 -0.2065
    7MOL    H98 2630   6.613   5.608   0.865 -0.6311  0.9424 -1.3983
    7MOL    H99 2631   6.663   5.581   0.685 -0.4256  0.5314 -0.0500
    7MOL   H100 2632   7.015   5.754   0.883  0.6671  0.3375 -0.0920
    7MOL   H101 2633   7.061   6.012   0.860 -0.3387  0.6790 -0.4044
    7MOL   H102 2634   6.887   6.157   0.771 -2.4926  1.0480  0.5791
    7MOL   H103 2635   6.675   6.066   0.700  0.9350  0.0172  0.4952
    7MOL   H104 2636   6.631   5.806   0.719 -1.7559  0.2462  2.4636
    7MOL   H105 2637   6.528   5.412   0.972 -1.6973 -0.7495  1.0959
    7MOL   H106 2638   6.579   5.252   0.939 -2.2867  0.4216  0.1223
    7MOL   C107 2639   6.599   5.317   1.151  0.1173  0.1184 -0.3595
    7MOL   O108 2640   6.610   5.448   1.211  0.7895  0.8141  0.0029
    7MOL   C109 2641   6.665   5.462   1.335  0.0349 -0.4975 -0.5857
    7MOL   O110 2642   6.672   5.596   1.364 -0.3196 -0.2286 -0.4834
    7MOL   C111 2643   6.772   5.670   1.307  0.0972 -0.5889 -0.7530
    7MOL   C112 2644   6.746   5.802   1.273  0.2140 -0.2269 -0.3805
    7MOL   C113 2645   6.838   5.882   1.201 -0.0414  0.0679  0.7675
    7MOL   C114 2646   6.965   5.842   1.170 -0.0063 -0.2381 -0.2777
    7MOL   C115 2647   7.000   5.711   1.218 -0.3677 -0.6255  0.1294
    7MOL   C116 2648   6.908   5.627   1.288 -0.3136 -0.5708 -0.3595
    7MOL   C117 2649   6.469   5.259   1.201  1.5758  0.0714 -0.7335
    7MOL   H118 2650   6.682   5.266   1.198 -0.7417 -0.1398  0.8963
    7MOL   H119 2651   6.760   5.410   1.341  0.5124  0.5998  1.8917
    7MOL   H120 2652   6.606   5.412   1.411 -1.2169 -0.0121 -1.2080
    7MOL   H121 2653   6.645   5.834   1.296  0.1078 -0.8441  0.0313
    7MOL   H122 2654   6.813   5.986   1.185  2.7564  1.0164  2.1395
    7MOL   H123 2655   7.037   5.903   1.118  0.7890  1.3406  2.5725
    7MOL   H124 2656   7.103   5.682   1.213 -0.8828 -2.3836 -0.8551
    7MOL   H125 2657   6.942   5.529   1.316 -0.4042 -0.8328 -1.1696
    7MOL   H126 2658   6.396   5.307   1.136  1.6637  0.7789 -0.3148
    7MOL   H127 2659   6.443   5.287   1.304  1.8991 -1.2694 -0.2761
    7MOL   C128 2660   6.455   5.106   1.198 -0.3890 -0.0154  1.1535
    7MOL   O129 2661   6.312   5.085   1.206 -0.6706 -0.0768 -0.0472
    7MOL   C130 2662   6.258   4.992   1.125 -0.7473 -0.0895 -0.2830
    7MOL   O131 2663   6.235   5.035   0.995  0.1387 -0.9499  0.0222
    7MOL   C132 2664   6.137   5.122   0.971 -0.0839  0.1270 -0.0862
    7MOL   C133 2665   6.060   5.180   1.071  0.1984  0.3562  0.4665
    7MOL   C134 2666   5.968   5.281   1.042 -0.1125 -0.6216  0.1326
    7MOL   C135 2667   5.954   5.320   0.906 -0.2880  0.5875  0.2503
    7MOL   C136 2668   6.035   5.263   0.806  0.5431 -0.5765 -0.3521
    7MOL   C137 2669   6.126   5.166   0.841  0.2736  1.3071 -0.1033
    7MOL   C138 2670   6.520   5.015   1.303  0.4676  0.2967  0.2565
    7MOL   H139 2671   6.492   5.084   1.098 -0.1536  3.3182  0.4304
    7MOL   H140 2672   6.164   4.950   1.163 -1.3022  1.0967 -0.3095
    7MOL   H141 2673   6.326   4.908   1.110  2.1500  1.7478  2.1020
    7MOL   H142 2674   6.052   5.156   1.176 -0.4642 -0.9566  0.1233
    7MOL   H143 2675   5.906   5.330   1.115 -0.6334 -2.7338  1.1620
    7MOL   H144 2676   5.885   5.398   0.879 -0.4468  0.2446 -0.3439
    7MOL   H145 2677   6.017   5.299   0.706 -0.0612 -1.1093 -0.4314
    7MOL   H146 2678   6.193   5.139   0.761 -0.5685 -1.7777  0.1913
    7MOL   H147 2679   6.599   5.080   1.341  0.2082  2.0353 -2.0604
    7MOL   H148 2680   6.460   4.994   1.391  2.2876 -1.1385  1.1922
    7MOL   C149 2681   6.561   4.873   1.258 -0.8179  0.6426 -0.1750
    7MOL   O150 2682   6.658   4.877   1.153  0.3993  0.5199 -0.4843
    7MOL   C151 2683   6.630   4.806   1.044  0.2524 -0.2851  0.1874
    7MOL   O152 2684   6.738   4.800   0.964 -0.0673 -0.1896 -0.3316
    7MOL   C153 2685   6.719   4.741   0.846  0.7810  0.2285  0.7004
    7MOL   C154 2686   6.829   4.739   0.755  0.2182  0.8216 -0.5546
    7MOL   C155 2687   6.826   4.672   0.633  0.1959 -1.1519 -0.2230
    7MOL   C156 2688   6.715   4.607   0.594  0.2454 -0.3946  0.7455
    7MOL   C157 2689   6.601   4.613   0.674 -0.0513  0.2705 -0.1167
    7MOL   C158 2690   6.594   4.680   0.804  0.3275 -0.2558 -0.5605
    7MOL   C159 2691   6.618   4.797   1.377 -0.1208  0.0927 -0.2214
    7MOL   H160 2692   6.469   4.822   1.231  0.3359 -0.7704 -1.5100
    7MOL   H161 2693   6.613   4.702   1.074  0.0386 -0.0922  0.7257
    7MOL   H162 2694   6.541   4.849   0.998  0.2119  0.8680  1.3360
    7MOL   H163 2695   6.912   4.801   0.785 -0.1810  0.2644  1.7710
    7MOL   H164 2696   6.917   4.690   0.578  1.5784 -1.3841  1.9315
    7MOL   H165 2697   6.700   4.575   0.492  0.1104 -0.9368  0.9307
    7MOL   H166 2698   6.509   4.567   0.641 -0.5646  0.8770  0.4420
    7MOL   H167 2699   6.503   4.671   0.860  0.2839  1.7266 -0.2929
    7MOL   H168 2700   6.670   4.854   1.454 -0.7677  1.9252 -1.1049
    7MOL   H169 2701   6.695   4.725   1.349  0.1122 -0.4083  1.6323
    7MOL   C170 2702   6.507   4.718   1.453  0.2923 -0.3160 -0.3330
    7MOL   O171 2703   6.493   4.601   1.377  0.1502 -0.2368  0.1869
    7MOL   C172 2704   6.359   4.575   1.339  0.3687  0.0643 -0.3805
    7MOL   O173 2705   6.333   4.642   1.220 -0.1736 -0.2268  0.2901
    7MOL   C174 2706   6.340   4.571   1.098  0.7863  0.4428 -0.5296
    7MOL   C175 2707   6.432   4.469   1.075 -0.1701  0.2817 -0.3515
    7MOL   C176 2708   6.429   4.393   0.958 -0.8481  0.5644  0.0015
    7MOL   C177 2709   6.325   4.422   0.867 -0.2488 -0.0142  0.3862
    7MOL   C178 2710   6.239   4.529   0.888  0.1328  0.0907  0.8168
    7MOL   C179 2711   6.239   4.597   1.009 -0.2041  0.7586  0.0473
    7MOL   C180 2712   6.547   4.669   1.593 -0.3797 -0.6572 -0.5403
    7MOL   H181 2713   6.418   4.781   1.447 -2.0894 -3.5169  0.3650
    7MOL   H182 2714   6.285   4.606   1.413  0.8292 -0.3166  0.2506
    7MOL   H183 2715   6.337   4.468   1.330  0.3700  0.1251 -1.1466
    7MOL   H184 2716   6.505   4.432   1.146 -0.9910 -2.1553 -0.7651
    7MOL   H185 2717   6.504   4.318   0.944 -1.3122  0.3324 -1.3608
    7MOL   H186 2718   6.312   4.364   0.777  0.4973  2.5756 -1.4197
    7MOL   H187 2719   6.172   4.564   0.811  3.3585 -1.8456 -3.0561
    7MOL   H188 2720   6.170   4.677   1.031  0.0507  0.4755  1.9378
    7MOL   H189 2721   6.598   4.574   1.575 -0.9324 -1.3956  1.6174
    7MOL   H190 2722   6.619   4.737   1.637 -1.7520 -0.4234  1.4204
    7MOL   C191 2723   6.432   4.669   1.698  0.0025 -0.2261  0.0154
    7MOL   O192 2724   6.347   4.568   1.659 -0.6439  0.5103  0.4554
    7MOL   C193 2725   6.341   4.443   1.718 -0.3257 -0.5076  0.4886
    7MOL   O194 2726   6.329   4.455   1.855  0.1946 -0.0456  0.3635
    7MOL   C195 2727   6.286   4.344   1.926  0.0881  0.4539  0.1126
    7MOL   C196 2728   6.234   4.377   2.054 -0.0067 -0.6716  0.5627
    7MOL   C197 2729   6.188   4.272   2.133 -0.1382 -0.5107 -0.0219
    7MOL   C198 2730   6.206   4.136   2.100 -0.3703 -0.1896 -0.2373
    7MOL   C199 2731   6.247   4.102   1.969 -0.4196 -0.0349  0.3985
    7MOL   C200 2732   6.289   4.205   1.880  0.1915  0.1814  0.0900
    7MOL   C201 2733   6.342   4.800   1.709  0.7857 -0.0694 -0.5677
    7MOL   H202 2734   6.488   4.651   1.790 -1.9442 -2.6501  0.8033
    7MOL   H203 2735   6.429   4.382   1.696  0.4440  0.9342 -0.5308
    7MOL   H204 2736   6.258   4.393   1.666 -1.1478  3.1748 -1.9080
    7MOL   H205 2737   6.219   4.479   2.086  2.9633  0.1049 -0.3177
    7MOL   H206 2738   6.140   4.300   2.226 -0.3727 -0.6380 -0.1024
    7MOL   H207 2739   6.167   4.059   2.165 -1.2379 -0.6994 -1.3311
    7MOL   H208 2740   6.262   3.997   1.947  1.1253  0.4632 -0.9696
    7MOL   H209 2741   6.337   4.165   1.792  1.1787 -1.1151  1.2014
    7MOL   H210 2742   6.405   4.885   1.733 -1.6761  1.3604  1.0954
    7MOL   H211 2743   6.299   4.817   1.610  2.2612  1.0055 -1.0470
    7MOL   C212 2744   6.216   4.793   1.810 -0.2622 -0.3483  0.7295
    7MOL   O213 2745   6.211   4.916   1.878 -0.1934  0.4173  0.7358
    7MOL   C214 2746   6.247   4.905   2.013 -0.1648 -0.7015  0.1762
    7MOL   O215 2747   6.383   4.872   2.029  0.4716 -0.0744 -0.0057
    7MOL   C216 2748   6.416   4.766   2.108  0.7866  1.2041 -0.2477
    7MOL   C217 2749   6.514   4.670   2.061  0.5673  1.1974 -0.9744
    7MOL   C218 2750   6.537   4.555   2.135  0.0803  0.2957  0.3571
    7MOL   C219 2751   6.473   4.530   2.254  0.5637  0.1455 -0.4099
    7MOL   C220 2752   6.376   4.615   2.294 -0.7091 -0.5890 -0.0066
    7MOL   C221 2753   6.351   4.736   2.229  0.2922  0.5461 -0.8174
    7MOL   C222 2754   6.084   4.768   1.741 -0.3915 -0.3977 -0.7919
    7MOL   H223 2755   6.237   4.708   1.875 -0.6836  0.0368  1.3763
    7MOL   H224 2756   6.179   4.836   2.064  0.5671 -1.0865  0.6357
    7MOL   H225 2757   6.234   5.004   2.056 -0.0558  0.2339 -1.8589
    7MOL   H226 2758   6.568   4.689   1.969  2.0508 -2.9050 -1.0466
    7MOL   H227 2759   6.602   4.476   2.100 -1.0402  0.4181 -2.1021
    7MOL   H228 2760   6.486   4.437   2.307  1.3095 -0.1275 -1.0607
    7MOL   H229 2761   6.313   4.590   2.378 -0.6379 -0.1665  0.1755
    7MOL   H230 2762   6.269   4.797   2.262  0.6232 -0.4563  1.9490
    7MOL   H231 2763   6.050   4.869   1.718  0.9936  0.5939  1.2443
    7MOL   H232 2764   6.101   4.724   1.643 -1.2920  0.5086 -1.3565
    7MOL   C233 2765   5.985   4.679   1.814  0.4515  0.2437 -0.0159
    7MOL   O234 2766   5.863   4.752   1.807 -0.1416  0.2989 -0.5028
    7MOL   C235 2767   5.789   4.781   1.927 -0.3795 -0.3753 -0.6212
    7MOL   O236 2768   5.755   4.665   2.004 -0.2095 -0.7537  0.4027
    7MOL   C237 2769   5.633   4.606   1.976  0.2377  0.8353 -0.1290
    7MOL   C238 2770   5.570   4.610   1.849  0.0722 -0.1089  0.1263
    7MOL   C239 2771   5.469   4.522   1.809 -0.4855 -0.3030 -0.2474
    7MOL   C240 2772   5.414   4.430   1.910  0.8867 -0.4297 -0.0306
    7MOL   C241 2773   5.466   4.445   2.046  0.3906 -0.3221 -0.2142
    7MOL   C242 2774   5.579   4.524   2.074  0.3847 -0.0027 -0.5724
    7MOL   C243 2775   5.963   4.528   1.780 -0.5591 -0.2954 -0.7976
    7MOL   H244 2776   6.015   4.689   1.919 -0.0615  0.7650  0.0875
    7MOL   H245 2777   5.697   4.835   1.903 -0.0722  0.7493  0.6914
    7MOL   H246 2778   5.848   4.837   1.999  0.0014  1.0985 -2.0475
    7MOL   H247 2779   5.617   4.671   1.774 -0.2901  0.3732  0.2933
    7MOL   H248 2780   5.431   4.516   1.708  1.6840  1.3898 -1.2233
    7MOL   H249 2781   5.340   4.355   1.888 -2.5293  2.4693  1.0902
    7MOL   H250 2782   5.432   4.375   2.121 -1.9730 -0.8002 -1.6566
    7MOL   H251 2783   5.622   4.525   2.174 -0.6680 -3.0663 -0.0338
    7MOL   H252 2784   6.049   4.469   1.812 -0.7882 -1.0533 -1.5605
    7MOL   H253 2785   5.889   4.491   1.851 -0.2398 -1.1197 -0.8899
    7MOL   C254 2786   5.943   4.496   1.633 -0.0728 -0.5907  0.0468
    7MOL   O255 2787   5.895   4.363   1.606 -0.3131 -0.0328 -0.1968
    7MOL   C256 2788   5.973   4.256   1.654  0.3317  0.4718 -0.2211
    7MOL   O257 2789   6.102   4.261   1.593 -0.5071 -0.7570 -0.0141
    7MOL   C258 2790   6.118   4.218   1.465  0.1732 -0.3589 -0.3030
    7MOL   C259 2791   6.011   4.191   1.378 -0.2166  0.0561 -0.1241
    7MOL   C260 2792   6.033   4.154   1.240 -0.4316 -0.5829  0.1390
    7MOL   C261 2793   6.168   4.139   1.198  0.0909  0.1956 -0.7627
    7MOL   C262 2794   6.272   4.177   1.284  0.3965  0.0573 -0.5672
    7MOL   C263 2795   6.247   4.212   1.415  0.0863 -0.4076 -0.1896
    7MOL   C264 2796   5.853   4.599   1.564  0.0677 -0.9207  0.4497
    7MOL   H265 2797   6.039   4.503   1.581  0.5534 -3.2569  0.7418
    7MOL   H266 2798   5.909   4.168   1.649  1.8579 -0.6086 -1.4166
    7MOL   H267 2799   5.990   4.269   1.761  2.1179 -2.5250 -0.0726
    7MOL   H268 2800   5.914   4.216   1.418  0.6257  0.1592  1.9392
    7MOL   H269 2801   5.960   4.125   1.166  1.2034 -0.2202 -1.6526
    7MOL   H270 2802   6.205   4.103   1.103 -0.0290  1.6877 -1.3819
    7MOL   H271 2803   6.376   4.169   1.257  0.5831 -0.1823  0.2138
    7MOL   H272 2804   6.319   4.225   1.495 -1.9587  0.9001  1.5117
    7MOL   H273 2805   5.768   4.592   1.631 -0.0876 -0.1646  0.3280
    7MOL   H274 2806   5.886   4.703   1.565 -0.3230 -0.8015  1.2054
    7MOL   C275 2807   5.811   4.587   1.418  0.0801 -0.3971 -0.4915
    7MOL   O276 2808   5.707   4.694   1.399  0.1870 -0.1350  0.0168
    7MOL   C277 2809   5.580   4.655   1.433  0.1894  0.1665 -0.0823
    7MOL   O278 2810   5.516   4.576   1.340 -0.2292  0.3578 -0.2847
    7MOL   C279 2811   5.477   4.631   1.221 -0.0317  0.0918 -0.1985
    7MOL   C280 2812   5.467   4.767   1.191  0.4030 -0.2647  0.0964
    7MOL   C281 2813   5.402   4.809   1.070 -0.1357  0.2085  0.3375
    7MOL   C282 2814   5.363   4.718   0.975  0.3878  0.7527  0.0378
    7MOL   C283 2815   5.384   4.578   1.003 -0.0852 -0.0947 -0.3233
    7MOL   C284 2816   5.444   4.540   1.118 -0.0929  0.1639  0.6114
    7MOL   C285 2817   5.924   4.599   1.315  0.2321 -1.5377 -0.0011
    7MOL   H286 2818   5.765   4.491   1.395  1.3646 -1.1893  0.2035
    7MOL   H287 2819   5.521   4.744   1.454  0.6699  0.5144 -0.2182
    7MOL   H288 2820   5.571   4.607   1.531  1.8030  0.5049  0.2426
    7MOL   H289 2821   5.491   4.840   1.266 -0.5951 -1.2613  1.3904
    7MOL   H290 2822   5.380   4.911   1.040  0.1168  0.8073  2.1561
    7MOL   H291 2823   5.314   4.741   0.882 -0.8019 -1.5617  0.0342
    7MOL   H292 2824   5.359   4.503   0.928  1.1612  1.1265 -2.0126
    7MOL   H293 2825   5.470   4.437   1.137 -1.0967 -0.5624 -1.7284
    7MOL   H294 2826   6.012   4.539   1.337  1.9267  1.3541  1.3781
    7MOL   H295 2827   5.954   4.704   1.312 -0.8012 -1.2781 -2.6491
    7MOL   C296 2828   5.866   4.566   1.174  0.1081 -0.0408 -0.7547
    7MOL   O297 2829   5.919   4.655   1.073 -0.1225  0.1430  0.4413
    7MOL   C298 2830   5.853   4.778   1.061 -0.3577  0.1522  0.2179
    7MOL   O299 2831   5.766   4.759   0.957 -0.0106  0.2128  0.0467
    7MOL   C300 2832   5.694   4.867   0.915 -0.0469 -0.3629 -0.2818
    7MOL   C301 2833   5.709   5.002   0.974  0.6510 -0.3699  0.4751
    7MOL   C302 2834   5.643   5.113   0.927  1.0130 -0.0023  0.1268
    7MOL   C303 2835   5.563   5.100   0.812 -0.0358  0.4545  0.8314
    7MOL   C304 2836   5.542   4.972   0.756 -0.3012 -0.3762 -0.6718
    7MOL   C305 2837   5.608   4.860   0.809  0.4504 -0.2738  0.0016
    7MOL   C306 2838   5.876   4.417   1.137 -0.0276  0.2796 -0.0922
    7MOL   H307 2839   5.759   4.582   1.185 -0.1513 -1.5363 -1.0297
    7MOL   H308 2840   5.926   4.854   1.030  2.0234 -1.4417  1.7734
    7MOL   H309 2841   5.805   4.812   1.152 -1.6454 -1.6261  0.2341
    7MOL   H310 2842   5.782   5.021   1.051 -1.2442 -0.4818  2.3690
    7MOL   H311 2843   5.650   5.215   0.960 -1.4900  0.4293 -0.5275
    7MOL   H312 2844   5.513   5.188   0.774 -0.5454  0.2935  1.1256
    7MOL   H313 2845   5.473   4.952   0.675  1.5032 -1.7597 -1.9378
    7MOL   H314 2846   5.586   4.759   0.776 -0.7175 -0.6944  1.9688
    7MOL   H315 2847   5.831   4.355   1.214 -0.7708  1.6086  0.5471
    7MOL   H316 2848   5.982   4.391   1.145 -0.2058 -0.7732 -0.9764
    7MOL   C317 2849   5.808   4.366   1.008 -0.5222 -0.1392 -0.8166
    7MOL   O318 2850   5.778   4.223   1.022  0.9672 -0.2271  0.0766
    7MOL   C319 2851   5.646   4.215   1.053  0.1313 -0.2733 -0.8204
    7MOL   O320 2852   5.617   4.275   1.175 -0.4145 -0.5259 -0.0493
    7MOL   C321 2853   5.634   4.203   1.291 -0.4521 -0.0984 -0.4032
    7MOL   C322 2854   5.606   4.260   1.416  0.2868  0.5671 -0.0507
    7MOL   C323 2855   5.616   4.186   1.536  0.1281  0.1389  0.4238
    7MOL   C324 2856   5.661   4.050   1.535  0.5270 -0.6250 -0.3844
    7MOL   C325 2857   5.689   3.993   1.413  0.2139 -0.6288  0.0161
    7MOL   C326 2858   5.682   4.067   1.294  0.2150 -0.2245  0.6556
    7MOL   C327 2859   5.895   4.392   0.881  0.0744 -0.0542  0.1914
    7MOL   H328 2860   5.721   4.428   0.990 -0.2021  0.5680  0.0257
    7MOL   H329 2861   5.623   4.110   1.040 -0.2643 -0.5562  1.9007
    7MOL   H330 2862   5.587   4.257   0.971 -2.7280 -1.2475  0.6705
    7MOL   H331 2863   5.565   4.360   1.420 -0.6797  0.1155  1.9172
    7MOL   H332 2864   5.588   4.243   1.624  1.2585  1.7492 -0.2196
    7MOL   H333 2865   5.651   3.995   1.628 -0.1932  2.3759  1.4230
    7MOL   H334 2866   5.728   3.893   1.409 -1.4117 -1.3462  1.4992
    7MOL   H335 2867   5.680   4.003   1.207  1.6454 -1.9537  1.8741
    7MOL   H336 2868   5.946   4.485   0.906 -1.3397  0.7782  0.0312
    7MOL   H337 2869   5.974   4.318   0.867 -0.3732 -0.7204  1.2431
    7MOL   C338 2870   5.814   4.409   0.749  0.5511 -0.0699  0.4176
    7MOL   O339 2871   5.897   4.459   0.642  0.0418  0.2023  0.0191
    7MOL   C340 2872   5.895   4.594   0.640  0.2736 -0.2540  0.1854
    7MOL   O341 2873   5.789   4.643   0.564  0.4626  0.0328 -0.0591
    7MOL   C342 2874   5.784   4.784   0.532 -0.0532 -0.4556  0.2568
    7MOL   C343 2875   5.897   4.866   0.563  0.1827 -0.1143 -0.1880
    7MOL   C344 2876   5.902   5.003   0.519  0.6371  0.3646  0.1637
    7MOL   C345 2877   5.795   5.056   0.446  0.2220  0.0116 -0.0061
    7MOL   C346 2878   5.684   4.974   0.403  0.2207 -0.1206  0.2641
    7MOL   C347 2879   5.683   4.842   0.451  0.2359 -0.0025 -0.6443
    7MOL   C348 2880   5.756   4.276   0.707  0.0246 -0.2016  0.0837
    7MOL   H349 2881   5.733   4.477   0.774  1.6361  1.5153 -0.3260
    7MOL   H350 2882   5.991   4.608   0.591  0.4779 -0.4190  0.5341
    7MOL   H351 2883   5.893   4.645   0.736 -0.8247 -1.2537  0.6983
    7MOL   H352 2884   5.987   4.828   0.611 -0.8949 -0.7773  1.3566
    7MOL   H353 2885   5.991   5.059   0.543  0.1170  0.7237  1.2787
    7MOL   H354 2886   5.809   5.159   0.415  0.3342 -0.6880 -2.4077
    7MOL   H355 2887   5.611   5.004   0.330  1.4781  0.4705 -0.7680
    7MOL   H356 2888   5.599   4.787   0.411  0.4632 -0.3150 -0.6884
    7MOL   H357 2889   5.704   4.224   0.788  0.8496 -2.2210 -0.6545
    7MOL   H358 2890   5.846   4.218   0.692  0.9539  0.9739  1.0406
    7MOL   C359 2891   5.665   4.288   0.587 -0.3549  0.7762  0.8486
    7MOL   O360 2892   5.540   4.336   0.651 -0.8300 -0.2560 -0.1322
    7MOL   C361 2893   5.500   4.460   0.607 -0.3553  0.3464 -0.3855
    7MOL   O362 2894   5.369   4.480   0.654 -0.0966 -0.2451  0.0639
    7MOL   C363 2895   5.304   4.594   0.602  0.1556  0.0233 -0.6190
    7MOL   C364 2896   5.363   4.718   0.555  0.2761  0.3952  0.1043
    7MOL   C365 2897   5.285   4.830   0.518 -0.0886  0.0230 -0.2692
    7MOL   C366 2898   5.145   4.811   0.524 -0.1488 -0.1511  0.2208
    7MOL   C367 2899   5.084   4.694   0.571 -0.7040  0.2583 -0.1727
    7MOL   C368 2900   5.164   4.582   0.606  1.0116 -0.1046 -0.1675
    7MOL   C369 2901   5.639   4.161   0.505 -0.0933  0.1458 -0.2948
    7MOL   H370 2902   5.707   4.365   0.522  0.3614 -0.7874 -0.5615
    7MOL   H371 2903   5.497   4.469   0.498  1.4474  0.0430 -0.4736
    7MOL   H372 2904   5.565   4.537   0.650 -0.1776 -0.9561  1.7043
    7MOL   H373 2905   5.470   4.731   0.550  0.3683 -0.9172 -1.9100
    7MOL   H374 2906   5.327   4.924   0.485 -1.3066  0.3752 -0.8077
    7MOL   H375 2907   5.088   4.899   0.497 -1.9605 -1.0356  1.0632
    7MOL   H376 2908   4.976   4.689   0.571 -0.6243 -1.6333 -1.2133
    7MOL   H377 2909   5.115   4.490   0.637  2.1789 -0.3703  0.9305
    7MOL   H378 2910   5.569   4.182   0.424  1.9011  1.3432 -1.7791
    7MOL   H379 2911   5.579   4.091   0.562  1.1241 -1.1571 -0.5891
    7MOL   C380 2912   5.766   4.096   0.443  0.4796 -0.3117  0.1754
    7MOL   O381 2913   5.816   4.194   0.365  0.6433 -0.6037 -0.1896
    7MOL   C382 2914   5.954   4.224   0.373 -0.0716  0.3186  0.0771
    7MOL   O383 2915   6.034   4.115   0.347 -0.0624  0.0827 -0.0303
    7MOL   C384 2916   6.052   4.081   0.216 -0.8073  0.2010  0.1429
    7MOL   C385 2917   6.156   3.991   0.181  0.0075 -0.2459  0.2921
    7MOL   C386 2918   6.181   3.951   0.051  0.0974  0.2488 -0.1210
    7MOL   C387 2919   6.113   4.005   7.920  0.0257 -0.1343  0.0461
    7MOL   C388 2920   6.003   4.089   7.947 -0.3525 -0.3210 -0.5436
    7MOL   C389 2921   5.969   4.123   0.106 -0.0062 -0.2260  0.2532
    7MOL   C390 2922   5.749   3.973   0.356  0.2375  0.4179 -0.6032
    7MOL   H391 2923   5.826   4.065   0.528  1.5631 -3.4027 -1.6572
    7MOL   H392 2924   5.971   4.307   0.305  0.8147  0.4806  0.4978
    7MOL   H393 2925   5.969   4.258   0.475  3.0493 -1.6898  0.3619
    7MOL   H394 2926   6.211   3.939   0.257  1.3802 -0.3078 -0.7196
    7MOL   H395 2927   6.261   3.884   0.020  0.3922  0.1096  0.9343
    7MOL   H396 2928   6.140   3.970   7.821 -0.6752 -0.3527 -0.0696
    7MOL   H397 2929   5.950   4.129   7.863  0.9344 -0.3246 -1.3717
    7MOL   H398 2930   5.880   4.182   0.122  0.7190  0.4890  1.8421
    7MOL   H399 2931   5.722   3.884   0.414  2.7775 -0.2246 -0.3199
    7MOL   H400 2932   5.851   3.945   0.329  0.5397  1.8975 -1.0133
    7MOL   C401 2933   5.660   3.983   0.229 -0.4941 -0.2244  0.4873
    7MOL   O402 2934   5.705   3.872   0.145  0.0970  0.4533 -0.3723
    7MOL   C403 2935   5.695   3.905   0.011 -0.8074  0.4801 -0.8332
    7MOL   O404 2936   5.571   3.885   7.934  0.5042 -0.2513  0.5536
    7MOL   C405 2937   5.510   3.765   7.916  0.1833 -0.6072 -0.3660
    7MOL   C406 2938   5.365   3.763   7.909  0.0650  0.2475  0.6235
    7MOL   C407 2939   5.295   3.642   7.893  0.0157 -0.9417  0.6669
    7MOL   C408 2940   5.369   3.517   7.884 -0.5470 -0.3383 -0.4024
    7MOL   C409 2941   5.507   3.520   7.894  0.2634  0.1633 -0.0928
    7MOL   C410 2942   5.580   3.640   7.910 -0.1849 -0.1341 -0.2924
    7MOL   C411 2943   5.509   3.952   0.252  0.2562  0.1286  0.0460
    7MOL   H412 2944   5.676   4.085   0.196 -2.6258  0.3979  1.3227
    7MOL   H413 2945   5.765   3.846   7.929  0.2599  1.3129 -0.4054
    7MOL   H414 2946   5.726   4.009   7.972  0.5797  0.1499 -0.2376
    7MOL   H415 2947   5.311   3.857   7.911 -0.2600  0.0905 -0.6260
    7MOL   H416 2948   5.188   3.642   7.877  0.0857 -3.0424  0.0731
    7MOL   H417 2949   5.322   3.427   7.846  0.6800 -1.1614  0.0305
    7MOL   H418 2950   5.561   3.427   7.894 -2.0057 -1.1838 -0.0372
    7MOL   H419 2951   5.686   3.639   7.927 -0.2435  0.6033  0.1675
    7MOL   H420 2952   5.458   3.935   0.157 -1.2395  0.5900  0.7456
    7MOL   H421 2953   5.460   4.040   0.294  0.4567 -0.4219  1.4897
    7MOL   H422 2954   5.489   3.868   0.319  1.3449 -0.9516 -0.9637
    8MOL     C1 2955   6.228   6.065   7.314 -0.0646 -0.3231 -0.5665
    8MOL     O2 2956   6.353   6.121   7.305  0.3159  0.1513 -0.1949
    8MOL     C3 2957   6.370   6.252   7.335 -0.0253 -0.4897  0.2915
    8MOL     O4 2958   6.342   6.278   7.471  0.2792  0.3548 -0.0668
    8MOL     C5 2959   6.239   6.355   7.506 -0.5116 -0.4329  0.2516
    8MOL     C6 2960   6.243   6.414   7.636 -0.2606  0.3301 -0.7639
    8MOL     C7 2961   6.142   6.503   7.675 -0.1334 -0.1389 -0.0435
    8MOL     C8 2962   6.039   6.540   7.589  0.2160 -0.2796 -0.0358
    8MOL     C9 2963   6.032   6.485   7.458  0.6387 -0.6897  0.0408
    8MOL    C10 2964   6.133   6.395   7.415  1.0925 -0.4097  0.4867
    8MOL    C11 2965   6.140   6.090   7.187 -0.8019  0.2949  0.2112
    8MOL    H12 2966   6.231   5.961   7.348  3.3964 -0.4713 -1.1515
    8MOL    H13 2967   6.478   6.263   7.320  0.2584  0.1484  2.6466
    8MOL    H14 2968   6.317   6.312   7.261  0.7899  0.4121  0.4252
    8MOL    H15 2969   6.333   6.411   7.696 -0.7012 -0.1664 -0.1334
    8MOL    H16 2970   6.154   6.550   7.771  1.1422  1.4128 -0.9324
    8MOL    H17 2971   5.974   6.619   7.624 -0.1845 -0.8064  0.4176
    8MOL    H18 2972   5.948   6.508   7.394  2.4373  0.4469 -1.9692
    8MOL    H19 2973   6.123   6.371   7.310 -1.8673  1.5757  0.2518
    8MOL    H20 2974   6.210   6.096   7.104 -1.4707 -1.3568 -0.4857
    8MOL    H21 2975   6.096   6.190   7.177  1.0298  0.9076 -1.8665
    8MOL    H22 2976   6.178   6.103   7.404  0.0630  0.9182 -1.0132
    8MOL    C23 2977   6.030   5.983   7.163  0.2436  0.9104  0.2927
    8MOL    O24 2978   6.088   5.856   7.166 -0.2545  0.1104 -0.0286
    8MOL    C25 2979   6.008   5.759   7.229  0.0524 -0.1492  0.3247
    8MOL    O26 2980   5.994   5.788   7.362 -0.4288 -0.2350  0.7355
    8MOL    C27 2981   5.941   5.697   7.445 -0.8571  0.2595 -0.1675
    8MOL    C28 2982   5.894   5.570   7.407  0.7158  0.1254  1.0307
    8MOL    C29 2983   5.835   5.476   7.493  0.2846 -0.5272 -0.3958
    8MOL    C30 2984   5.831   5.504   7.633  0.3493 -0.5956  0.4722
    8MOL    C31 2985   5.885   5.623   7.679 -0.5259 -0.4738  0.1430
    8MOL    C32 2986   5.935   5.717   7.583  0.4712 -0.7281  0.4638
    8MOL    C33 2987   5.972   5.997   7.025  0.2580 -0.1338  0.5733
    8MOL    H34 2988   5.951   5.990   7.238 -1.5669 -3.3033 -1.0946
    8MOL    H35 2989   6.055   5.662   7.214 -0.8329 -0.5189 -0.0999
    8MOL    H36 2990   5.916   5.762   7.170  0.0933  2.4968  0.3209
    8MOL    H37 2991   5.887   5.554   7.300  1.0961 -0.1342  1.0436
    8MOL    H38 2992   5.804   5.380   7.456  0.5924 -0.8115  0.0809
    8MOL    H39 2993   5.777   5.433   7.694 -1.0235  0.2664  0.2773
    8MOL    H40 2994   5.875   5.653   7.783  0.7031  0.0299  0.1221
    8MOL    H41 2995   5.956   5.817   7.617  2.3644 -1.3414  1.1671
    8MOL    H42 2996   5.899   5.921   6.999 -0.7538  0.5113  1.4892
    8MOL    H43 2997   6.058   5.985   6.959 -1.8056 -2.8630 -1.7217
    8MOL    C44 2998   5.893   6.129   6.994  0.1825 -0.7955 -0.0089
    8MOL    O45 2999   5.763   6.120   7.053  0.0019  0.0919  0.4825
    8MOL    C46 3000   5.698   6.237   7.097 -0.1310  1.0330 -0.4208
    8MOL    O47 3001   5.746   6.262   7.228 -0.0410  0.4736 -0.2864
    8MOL    C48 3002   5.716   6.174   7.326  0.3695 -0.0235  0.0553
    8MOL    C49 3003   5.631   6.062   7.309  0.2684 -0.0081  0.2953
    8MOL    C50 3004   5.605   5.981   7.418 -0.8700  0.0701 -0.5675
    8MOL    C51 3005   5.664   6.009   7.542 -0.0549 -0.6465 -0.1399
    8MOL    C52 3006   5.740   6.125   7.562 -0.2626 -0.4800  0.2297
    8MOL    C53 3007   5.773   6.209   7.453 -0.2088  0.1815 -0.2791
    8MOL    C54 3008   5.870   6.149   6.842  0.5885 -0.5398 -0.0653
    8MOL    H55 3009   5.944   6.217   7.034 -0.3261 -0.5151  0.0264
    8MOL    H56 3010   5.592   6.214   7.100 -0.2744  1.7447  0.4997
    8MOL    H57 3011   5.706   6.323   7.030 -0.9432  0.9644 -0.6129
    8MOL    H58 3012   5.586   6.037   7.214 -1.2129  0.4963  0.8525
    8MOL    H59 3013   5.530   5.903   7.412 -1.2717  0.3232  1.0680
    8MOL    H60 3014   5.661   5.941   7.626 -3.3059 -1.9064 -1.2077
    8MOL    H61 3015   5.793   6.141   7.655  0.7081  0.9131 -0.5394
    8MOL    H62 3016   5.832   6.295   7.482  0.8436 -0.3768 -0.7240
    8MOL    H63 3017   5.864   6.047   6.803  0.1108  0.1125 -1.7556
    8MOL    H64 3018   5.775   6.199   6.821 -0.2550 -2.4283 -0.9370
    8MOL    C65 3019   5.992   6.213   6.769 -0.7328 -0.0070  0.4480
    8MOL    O66 3020   6.013   6.147   6.643  0.4901  0.4311  0.6366
    8MOL    C67 3021   6.118   6.057   6.631 -0.2926 -0.4571 -0.3256
    8MOL    O68 3022   6.104   5.951   6.717 -0.0549  0.3290  0.2144
    8MOL    C69 3023   6.191   5.845   6.707  0.1408 -0.2049 -0.7139
    8MOL    C70 3024   6.188   5.751   6.811 -0.1185  0.0770  0.4094
    8MOL    C71 3025   6.290   5.654   6.820  0.1657  0.2186 -0.3450
    8MOL    C72 3026   6.392   5.652   6.723  0.2948 -0.8097  0.0428
    8MOL    C73 3027   6.399   5.747   6.617 -0.2270  0.2395  0.7764
    8MOL    C74 3028   6.292   5.842   6.611 -0.1792  0.1500 -0.3941
    8MOL    C75 3029   5.972   6.363   6.740  0.2434 -0.7751  0.3466
    8MOL    H76 3030   6.086   6.199   6.823 -1.3541  1.0796  1.8343
    8MOL    H77 3031   6.211   6.104   6.663  0.3403 -0.4002 -2.2175
    8MOL    H78 3032   6.131   6.026   6.527 -0.3656 -0.5099 -0.3189
    8MOL    H79 3033   6.112   5.750   6.887 -0.2430 -0.7423  0.2817
    8MOL    H80 3034   6.285   5.578   6.896 -1.2716 -0.2329 -0.8702
    8MOL    H81 3035   6.471   5.582   6.744  1.7393  1.3212  1.9746
    8MOL    H82 3036   6.475   5.750   6.541 -2.9536  0.0973 -2.0270
    8MOL    H83 3037   6.300   5.908   6.526 -0.7207  0.7073 -0.0126
    8MOL    H84 3038   5.883   6.366   6.676 -0.0028 -4.4327  0.4223
    8MOL    H85 3039   5.946   6.410   6.835 -0.5129  0.0986 -0.2810
    8MOL    C86 3040   6.082   6.445   6.665  0.2314  0.0343 -0.2463
    8MOL    O87 3041   6.028   6.570   6.639  0.0638 -0.2623  0.4758
    8MOL    C88 3042   6.010   6.598   6.502  0.6171  0.4508 -0.0839
    8MOL    O89 3043   5.937   6.712   6.483  0.1757 -0.3280 -0.2507
    8MOL    C90 3044   5.887   6.742   6.361 -0.4754  0.2697 -0.0736
    8MOL    C91 3045   5.769   6.822   6.366 -0.4215  0.7022 -0.4981
    8MOL    C92 3046   5.715   6.874   6.247  0.1867 -0.3730 -0.1385
    8MOL    C93 3047   5.760   6.827   6.120 -0.2991 -0.1079 -0.5262
    8MOL    C94 3048   5.865   6.727   6.120 -0.3603  0.3763 -0.0958
    8MOL    C95 3049   5.932   6.690   6.239 -0.4530 -0.8678 -0.2366
    8MOL    C96 3050   6.224   6.453   6.731  0.5971 -0.2230 -0.3626
    8MOL    H97 3051   6.100   6.392   6.572 -1.6407 -0.3351 -0.4279
    8MOL    H98 3052   5.968   6.507   6.457  2.8827 -0.7174  0.1084
    8MOL    H99 3053   6.110   6.602   6.459  0.8340  0.0869  0.3814
    8MOL   H100 3054   5.726   6.868   6.453 -1.8714  0.6759 -1.1804
    8MOL   H101 3055   5.635   6.947   6.248  3.5600  3.4540  2.4084
    8MOL   H102 3056   5.716   6.856   6.026  0.3646  2.2552 -0.1399
    8MOL   H103 3057   5.895   6.685   6.026  0.2289 -2.5187  1.3340
    8MOL   H104 3058   6.017   6.624   6.247 -0.7909 -1.4369 -1.3407
    8MOL   H105 3059   6.211   6.524   6.813 -0.2977  0.6441 -1.2447
    8MOL   H106 3060   6.244   6.362   6.787  0.3970 -0.3725 -0.5358
    8MOL   C107 3061   6.338   6.508   6.635  0.3546  0.6079  0.2062
    8MOL   O108 3062   6.431   6.583   6.715  0.6882  0.1703  0.2735
    8MOL   C109 3063   6.395   6.716   6.730  0.0121  0.5784 -0.7631
    8MOL   O110 3064   6.407   6.793   6.613 -0.4627 -0.1854  0.0276
    8MOL   C111 3065   6.529   6.828   6.582 -0.0481 -0.2855 -0.0891
    8MOL   C112 3066   6.648   6.772   6.630 -0.6943  0.0184  0.0663
    8MOL   C113 3067   6.774   6.818   6.589 -0.6895 -0.5933  0.0324
    8MOL   C114 3068   6.784   6.916   6.488  1.3357 -0.1551 -0.7068
    8MOL   C115 3069   6.666   6.966   6.426 -0.8459 -0.0221 -0.3528
    8MOL   C116 3070   6.539   6.919   6.480  0.4159 -0.5444 -0.0471
    8MOL   C117 3071   6.407   6.392   6.567  0.5396  0.0442  0.3307
    8MOL   H118 3072   6.302   6.573   6.555 -1.9084  0.5149  1.1158
    8MOL   H119 3073   6.456   6.760   6.809 -0.6732  0.4425 -0.1547
    8MOL   H120 3074   6.287   6.728   6.740  0.0479  0.5828 -0.3876
    8MOL   H121 3075   6.638   6.693   6.703 -1.6750  0.7078  0.6960
    8MOL   H122 3076   6.867   6.790   6.636  0.0698  0.1810 -0.9782
    8MOL   H123 3077   6.878   6.953   6.450  0.0682  1.7357 -2.1432
    8MOL   H124 3078   6.685   7.024   6.337  2.2220 -3.2509 -1.9053
    8MOL   H125 3079   6.447   6.939   6.428 -0.1851 -1.9203  0.4450
    8MOL   H126 3080   6.335   6.310   6.560 -0.8877  1.3592 -0.8392
    8MOL   H127 3081   6.485   6.364   6.638  0.1644  0.7771  1.0362
    8MOL   C128 3082   6.468   6.420   6.432  0.8113  0.0196 -0.9179
    8MOL   O129 3083   6.357   6.476   6.365  0.5531 -0.0097  0.4851
    8MOL   C130 3084   6.384   6.591   6.285 -0.4653 -1.0923 -0.3346
    8MOL   O131 3085   6.289   6.608   6.187 -0.0486 -0.2222 -0.1429
    8MOL   C132 3086   6.292   6.721   6.115  0.3905 -0.2048  0.9843
    8MOL   C133 3087   6.383   6.825   6.112 -0.1550  0.6432  1.1336
    8MOL   C134 3088   6.360   6.937   6.033 -0.2062 -0.1081 -0.4255
    8MOL   C135 3089   6.264   6.941   5.935 -0.3078  1.0933 -0.5001
    8MOL   C136 3090   6.174   6.837   5.931 -0.5322 -0.2378  0.0832
    8MOL   C137 3091   6.185   6.729   6.024  0.6759  0.0996  0.7091
    8MOL   C138 3092   6.504   6.308   6.342 -0.2531 -0.9128 -0.1759
    8MOL   H139 3093   6.552   6.490   6.440 -0.7749  1.8391  0.1790
    8MOL   H140 3094   6.486   6.600   6.247 -0.5288 -0.0577 -0.2741
    8MOL   H141 3095   6.374   6.678   6.349 -2.1025 -1.0845 -0.5792
    8MOL   H142 3096   6.473   6.832   6.171  1.1653  0.4010 -0.8070
    8MOL   H143 3097   6.421   7.024   6.051  0.8845 -1.0780  0.6521
    8MOL   H144 3098   6.240   7.027   5.874  0.7694  1.2002 -0.7888
    8MOL   H145 3099   6.097   6.839   5.855 -0.7544  1.4724  0.3254
    8MOL   H146 3100   6.118   6.645   6.031  1.0466 -0.1456  1.4146
    8MOL   H147 3101   6.424   6.273   6.277 -0.0374  0.4923 -1.2032
    8MOL   H148 3102   6.587   6.345   6.282 -0.0674 -2.3408 -0.8168
    8MOL   C149 3103   6.578   6.195   6.400  0.2591 -0.3046 -0.1729
    8MOL   O150 3104   6.602   6.122   6.277  0.6775  0.1130 -0.3642
    8MOL   C151 3105   6.542   5.996   6.284 -0.6086 -0.6335  0.0277
    8MOL   O152 3106   6.406   6.003   6.265 -0.1642 -0.2410 -0.4306
    8MOL   C153 3107   6.343   5.884   6.259 -0.0595 -0.7508 -0.0466
    8MOL   C154 3108   6.404   5.753   6.262 -0.3353  0.7601 -0.4588
    8MOL   C155 3109   6.331   5.633   6.251 -0.3068 -0.2354  0.7912
    8MOL   C156 3110   6.186   5.640   6.231  0.2843  0.1723  0.1416
    8MOL   C157 3111   6.122   5.766   6.227  0.1265  0.1379  0.2485
    8MOL   C158 3112   6.204   5.884   6.240 -0.0232  0.4725 -0.1490
    8MOL   C159 3113   6.707   6.231   6.474  0.1489  0.2470  0.0488
    8MOL   H160 3114   6.506   6.145   6.465 -0.2990  0.3197 -0.2934
    8MOL   H161 3115   6.585   5.934   6.205 -1.3216  0.4588 -1.2499
    8MOL   H162 3116   6.552   5.947   6.381 -3.2138 -0.9518  0.1667
    8MOL   H163 3117   6.511   5.742   6.267 -0.2404  1.1037 -1.5495
    8MOL   H164 3118   6.385   5.540   6.259 -2.2915 -1.2394  3.0848
    8MOL   H165 3119   6.126   5.552   6.215  1.3329 -0.2689 -1.4974
    8MOL   H166 3120   6.015   5.768   6.208  0.1510  1.1932  0.1917
    8MOL   H167 3121   6.155   5.980   6.233  1.3403  1.2025  0.2938
    8MOL   H168 3122   6.691   6.307   6.551  0.3177 -1.3128  1.6549
    8MOL   H169 3123   6.771   6.276   6.398 -1.9737  1.0363 -1.3143
    8MOL   C170 3124   6.764   6.114   6.555  0.1276 -0.1637 -0.5207
    8MOL   O171 3125   6.893   6.162   6.597  0.1647  0.2863 -1.2459
    8MOL   C172 3126   7.011   6.127   6.535  0.3818  0.2863 -0.0868
    8MOL   O173 3127   7.000   6.133   6.390  0.1163 -0.2246  0.3929
    8MOL   C174 3128   7.114   6.159   6.320  0.0067 -0.2447 -0.0582
    8MOL   C175 3129   7.099   6.197   6.187  0.5343  0.3019  0.6899
    8MOL   C176 3130   7.214   6.237   6.114 -0.2668  0.3685  0.0622
    8MOL   C177 3131   7.340   6.243   6.175 -0.0436  0.2010  0.9425
    8MOL   C178 3132   7.359   6.192   6.303  0.7863 -0.5180  0.7742
    8MOL   C179 3133   7.244   6.154   6.376 -0.4368  0.2586 -0.6124
    8MOL   C180 3134   6.672   6.058   6.663 -0.6331 -0.3810  0.2130
    8MOL   H181 3135   6.771   6.032   6.484 -3.5574 -1.2591  0.2766
    8MOL   H182 3136   7.041   6.024   6.553 -0.0752  0.5004  2.0037
    8MOL   H183 3137   7.087   6.195   6.575  1.5286 -1.7597  1.2660
    8MOL   H184 3138   7.000   6.196   6.143 -0.6966 -0.4359  3.4007
    8MOL   H185 3139   7.210   6.262   6.009 -2.2199 -1.9662 -0.4628
    8MOL   H186 3140   7.424   6.289   6.124  0.2325  0.1482  1.3459
    8MOL   H187 3141   7.456   6.192   6.351 -0.2131 -1.3251  2.8246
    8MOL   H188 3142   7.263   6.119   6.476 -2.8429 -0.8037 -0.4764
    8MOL   H189 3143   6.633   6.135   6.729 -0.1085  0.8427 -0.8822
    8MOL   H190 3144   6.582   6.024   6.610 -0.8560  3.0952 -1.7801
    8MOL   C191 3145   6.723   5.940   6.738 -0.3354  0.2475  1.0491
    8MOL   O192 3146   6.730   5.834   6.646  0.1701 -0.1281 -0.4881
    8MOL   C193 3147   6.846   5.755   6.640  0.3170 -0.2140  0.3537
    8MOL   O194 3148   6.827   5.642   6.568  0.7351 -0.5996 -0.1530
    8MOL   C195 3149   6.802   5.652   6.431  0.0564 -0.2781  0.2453
    8MOL   C196 3150   6.750   5.536   6.364 -0.0633  0.7539  0.1608
    8MOL   C197 3151   6.714   5.535   6.229 -0.2325 -0.8114  0.2967
    8MOL   C198 3152   6.742   5.654   6.153 -0.6990 -0.0191  0.7722
    8MOL   C199 3153   6.792   5.770   6.214  0.5151 -0.3266  0.5420
    8MOL   C200 3154   6.822   5.770   6.350  0.2823 -0.4696 -0.3281
    8MOL   C201 3155   6.634   5.888   6.856 -0.4093  0.1113 -0.9164
    8MOL   H202 3156   6.818   5.957   6.789 -0.1136 -0.3394  0.8344
    8MOL   H203 3157   6.870   5.712   6.737  0.9234  0.1692  0.3752
    8MOL   H204 3158   6.925   5.822   6.607 -0.2004  1.4359  2.3507
    8MOL   H205 3159   6.735   5.445   6.420  3.0369  0.3796  0.4666
    8MOL   H206 3160   6.674   5.450   6.176 -1.2168 -0.6835  0.8156
    8MOL   H207 3161   6.728   5.665   6.047  2.7693  1.2274  0.3663
    8MOL   H208 3162   6.816   5.863   6.164 -0.8190  0.0031  0.4983
    8MOL   H209 3163   6.850   5.861   6.400  0.7444 -0.8760  0.1659
    8MOL   H210 3164   6.535   5.880   6.811 -0.4805  3.2881 -1.3877
    8MOL   H211 3165   6.673   5.790   6.886 -2.0292 -0.3629 -0.2916
    8MOL   C212 3166   6.629   5.983   6.986  0.0548  0.0801 -0.3551
    8MOL   O213 3167   6.603   6.118   6.951 -0.0149 -0.3595  0.5139
    8MOL   C214 3168   6.653   6.207   7.041  0.3675  0.5126 -0.6030
    8MOL   O215 3169   6.790   6.221   7.020 -0.3864  0.5898 -0.5234
    8MOL   C216 3170   6.831   6.315   6.932  0.6548  0.5236  0.3600
    8MOL   C217 3171   6.752   6.362   6.824 -0.1181 -0.7085 -0.6725
    8MOL   C218 3172   6.802   6.457   6.732  0.1271  0.0673  0.6477
    8MOL   C219 3173   6.933   6.511   6.757  0.7037 -0.1742  0.4434
    8MOL   C220 3174   7.014   6.462   6.860  0.0249  0.4634 -0.7181
    8MOL   C221 3175   6.963   6.365   6.948  0.0570 -0.1830  0.3436
    8MOL   C222 3176   6.520   5.931   7.080  0.5408 -0.5192  0.5028
    8MOL   H223 3177   6.726   5.984   7.036 -1.0629 -1.2684  1.9025
    8MOL   H224 3178   6.643   6.181   7.146  1.3121  3.0098  0.1219
    8MOL   H225 3179   6.612   6.308   7.033 -0.0362  0.5078  1.2461
    8MOL   H226 3180   6.654   6.324   6.802 -0.7173 -1.0481  2.4440
    8MOL   H227 3181   6.754   6.483   6.639  0.5255 -1.0544  0.1219
    8MOL   H228 3182   6.980   6.576   6.685 -2.2111  0.6712 -0.7864
    8MOL   H229 3183   7.116   6.496   6.864  0.1387  0.4261 -2.7546
    8MOL   H230 3184   7.025   6.311   7.018  0.3287 -0.8301 -0.3873
    8MOL   H231 3185   6.516   5.992   7.171 -0.8249 -1.1252  0.8630
    8MOL   H232 3186   6.432   5.939   7.016 -0.6052 -3.8598  1.5798
    8MOL   C233 3187   6.525   5.784   7.141  0.2291 -0.2540  0.5723
    8MOL   O234 3188   6.597   5.786   7.266  0.0595  0.1889 -0.2980
    8MOL   C235 3189   6.731   5.755   7.254 -0.4234  0.2596  0.0799
    8MOL   O236 3190   6.820   5.860   7.211 -0.2691 -0.0036  0.1214
    8MOL   C237 3191   6.835   5.974   7.294  0.5555  0.4972  0.3585
    8MOL   C238 3192   6.723   6.025   7.365  0.2805  0.4160 -0.4723
    8MOL   C239 3193   6.741   6.140   7.446  0.1347 -0.3699 -0.0572
    8MOL   C240 3194   6.862   6.202   7.454 -1.0085  0.6855  0.0646
    8MOL   C241 3195   6.966   6.154   7.377  0.2423  0.0403  0.3841
    8MOL   C242 3196   6.956   6.043   7.296  0.0564 -0.4336  0.2861
    8MOL   C243 3197   6.387   5.745   7.195 -0.7910  0.2529 -0.4917
    8MOL   H244 3198   6.548   5.715   7.060 -1.2634  0.8336 -0.7806
    8MOL   H245 3199   6.743   5.673   7.184 -0.1034  0.0423  0.3866
    8MOL   H246 3200   6.760   5.713   7.351 -1.1070 -2.5941 -0.8962
    8MOL   H247 3201   6.624   5.985   7.379  0.7550  0.0932  2.3823
    8MOL   H248 3202   6.649   6.174   7.491 -0.6910  0.1876 -2.1313
    8MOL   H249 3203   6.871   6.294   7.510 -1.0282  1.1897 -0.7384
    8MOL   H250 3204   7.058   6.210   7.365  0.6373 -1.1802 -2.9218
    8MOL   H251 3205   7.045   6.013   7.243 -0.1551  0.3154 -0.4966
    8MOL   H252 3206   6.365   5.821   7.270  0.7595 -1.3529  1.6358
    8MOL   H253 3207   6.307   5.757   7.121 -2.5355 -0.9473  1.1345
    8MOL   C254 3208   6.385   5.608   7.263  0.6447  0.1868  0.3235
    8MOL   O255 3209   6.260   5.587   7.345 -0.0553  0.3103  0.6703
    8MOL   C256 3210   6.269   5.607   7.481 -0.4793  0.0512  0.3065
    8MOL   O257 3211   6.347   5.504   7.538 -0.1089 -0.2594  0.3383
    8MOL   C258 3212   6.347   5.492   7.674  0.5301 -0.2823  0.2827
    8MOL   C259 3213   6.267   5.570   7.762 -0.1236 -0.4043  0.4911
    8MOL   C260 3214   6.284   5.564   7.900 -0.3461  0.2017  0.2679
    8MOL   C261 3215   6.395   5.490   7.950 -0.4407  0.1006  0.4041
    8MOL   C262 3216   6.477   5.420   7.865  0.0625  0.5169 -0.4638
    8MOL   C263 3217   6.451   5.418   7.727  0.4279  0.1299 -0.4060
    8MOL   C264 3218   6.384   5.487   7.169 -0.4108  0.3906  0.2887
    8MOL   H265 3219   6.466   5.589   7.334  1.0664  1.7123  0.2592
    8MOL   H266 3220   6.168   5.603   7.521 -2.0902 -0.6267 -3.6935
    8MOL   H267 3221   6.314   5.703   7.503  1.4198 -1.1136  1.7251
    8MOL   H268 3222   6.178   5.616   7.721  0.2514  0.9653  1.1984
    8MOL   H269 3223   6.225   5.615   0.000  0.5392 -0.1480  1.2095
    8MOL   H270 3224   6.411   5.486   0.081 -0.4861  1.2753  0.4600
    8MOL   H271 3225   6.563   5.363   7.898 -0.5362  0.4550  1.0315
    8MOL   H272 3226   6.517   5.366   7.659 -2.0235 -1.5105 -1.6060
    8MOL   H273 3227   6.297   5.498   7.104  0.3424 -0.2904 -0.8595
    8MOL   H274 3228   6.466   5.500   7.098  0.9464  0.6694  1.8698
    8MOL   C275 3229   6.404   5.355   7.251  0.2004 -0.2475  0.7703
    8MOL   O276 3230   6.302   5.257   7.213  0.0937  0.3793  0.5484
    8MOL   C277 3231   6.171   5.269   7.260 -0.5714  0.0776 -0.2099
    8MOL   O278 3232   6.102   5.358   7.179 -0.0903  0.0918  0.1335
    8MOL   C279 3233   6.080   5.323   7.049  0.3813 -0.6262  1.0783
    8MOL   C280 3234   6.022   5.428   6.968 -0.0139 -0.5108  0.3832
    8MOL   C281 3235   6.009   5.402   6.832 -0.3071  0.0019  0.6049
    8MOL   C282 3236   6.025   5.278   6.770  0.0046 -0.4859 -1.5743
    8MOL   C283 3237   6.083   5.171   6.849 -0.1835 -0.4609  1.2397
    8MOL   C284 3238   6.100   5.197   6.989  0.6412 -0.5252 -0.0634
    8MOL   C285 3239   6.546   5.312   7.227 -0.3843  0.0184 -0.2513
    8MOL   H286 3240   6.392   5.371   7.358  0.6318 -0.2078  0.8131
    8MOL   H287 3241   6.177   5.313   7.359  3.9611 -0.3094 -0.2485
    8MOL   H288 3242   6.121   5.173   7.274 -0.0987 -0.4525 -2.0360
    8MOL   H289 3243   6.003   5.527   7.007 -2.8752 -0.9089  0.1044
    8MOL   H290 3244   5.966   5.481   6.772 -0.0290  0.3020  0.8060
    8MOL   H291 3245   6.001   5.262   6.666  2.4614  0.6583 -2.3601
    8MOL   H292 3246   6.098   5.071   6.811 -1.0550 -0.8146  1.8140
    8MOL   H293 3247   6.130   5.112   7.049 -2.3378 -1.0896  0.7161
    8MOL   H294 3248   6.618   5.393   7.238  0.3376 -0.6102 -0.3801
    8MOL   H295 3249   6.528   5.282   7.123 -3.5156  0.2768  0.1685
    8MOL   C296 3250   6.584   5.195   7.316  0.9362  0.2628 -0.0290
    8MOL   O297 3251   6.547   5.072   7.244  0.0916 -0.4020 -0.1735
    8MOL   C298 3252   6.464   4.984   7.314 -0.6755 -0.0323 -1.0272
    8MOL   O299 3253   6.525   4.936   7.427  0.1255  0.2463  0.2485
    8MOL   C300 3254   6.634   4.860   7.407  0.3705  0.4800 -0.4790
    8MOL   C301 3255   6.704   4.845   7.524  0.0850  0.0830 -0.0174
    8MOL   C302 3256   6.823   4.773   7.529  0.4079 -0.0957 -0.6022
    8MOL   C303 3257   6.868   4.713   7.410  0.6771 -0.0645  0.0959
    8MOL   C304 3258   6.796   4.734   7.289  0.6596  0.0733 -0.2500
    8MOL   C305 3259   6.676   4.806   7.289  0.0869 -0.7502 -0.1917
    8MOL   C306 3260   6.733   5.185   7.331  0.3325 -0.3734  0.0069
    8MOL   H307 3261   6.533   5.184   7.412  0.4313 -0.7649 -0.3997
    8MOL   H308 3262   6.445   4.899   7.250 -0.2942 -0.4560 -0.5863
    8MOL   H309 3263   6.367   5.028   7.337  0.1446  1.4617 -0.3006
    8MOL   H310 3264   6.665   4.898   7.610 -0.5322 -0.2427 -0.0965
    8MOL   H311 3265   6.870   4.778   7.626 -0.0993 -0.3904 -0.3374
    8MOL   H312 3266   6.959   4.656   7.416  0.1407 -1.3550 -2.9933
    8MOL   H313 3267   6.834   4.704   7.192  1.6706 -1.7321  0.6777
    8MOL   H314 3268   6.614   4.814   7.201  0.2291  1.0762 -0.1542
    8MOL   H315 3269   6.783   5.208   7.238 -1.3776  0.1584 -0.8145
    8MOL   H316 3270   6.756   5.084   7.363  0.1377 -0.5766 -0.4990
    8MOL   C317 3271   6.794   5.277   7.443  0.0286  0.6203 -0.7931
    8MOL   O318 3272   6.926   5.303   7.393 -0.2278 -0.0289  0.1010
    8MOL   C319 3273   6.936   5.414   7.312  0.6510  0.6297 -0.6650
    8MOL   O320 3274   6.954   5.534   7.380 -0.7094  0.1840 -0.3169
    8MOL   C321 3275   7.072   5.558   7.440  0.0434 -0.8640 -0.8646
    8MOL   C322 3276   7.071   5.681   7.506  0.0986  0.3202 -0.5487
    8MOL   C323 3277   7.172   5.711   7.600 -0.8590 -1.0161  0.2357
    8MOL   C324 3278   7.287   5.625   7.606 -0.0857 -0.6082 -0.2278
    8MOL   C325 3279   7.288   5.507   7.541  0.2515  0.0842 -0.2669
    8MOL   C326 3280   7.178   5.464   7.460  0.1171  0.3667  0.3671
    8MOL   C327 3281   6.807   5.206   7.580  0.6675 -0.6641  0.0274
    8MOL   H328 3282   6.732   5.364   7.463  1.3665  1.0581  1.6813
    8MOL   H329 3283   6.845   5.433   7.254  0.5789  0.2705 -0.6745
    8MOL   H330 3284   7.023   5.411   7.246  1.0331  0.7021 -0.1623
    8MOL   H331 3285   6.984   5.745   7.505  0.5816  1.0049  0.6575
    8MOL   H332 3286   7.175   5.802   7.658 -0.3537 -2.6727  2.9041
    8MOL   H333 3287   7.376   5.652   7.661  0.8274 -3.0606 -0.4410
    8MOL   H334 3288   7.374   5.446   7.568  1.6995  2.2237  0.0913
    8MOL   H335 3289   7.179   5.378   7.395 -2.5751  1.9396 -1.8790
    8MOL   H336 3290   6.702   5.184   7.601 -0.3131  1.8660 -1.9820
    8MOL   H337 3291   6.857   5.109   7.574 -1.0118 -1.5181 -0.6874
    8MOL   C338 3292   6.850   5.294   7.697  0.7823  0.8945 -1.1615
    8MOL   O339 3293   6.751   5.391   7.726 -0.0609  0.3543  0.5946
    8MOL   C340 3294   6.785   5.522   7.696 -0.7421  0.0371 -0.0172
    8MOL   O341 3295   6.910   5.552   7.754  0.2425 -0.6464  0.4983
    8MOL   C342 3296   6.917   5.586   7.883  1.1640 -0.8246 -0.0981
    8MOL   C343 3297   6.815   5.573   0.007  0.8976  0.2648  0.0062
    8MOL   C344 3298   6.840   5.619   0.140 -0.1177  0.5201 -0.7237
    8MOL   C345 3299   6.967   5.664   0.182 -0.3836 -0.7355 -0.6480
    8MOL   C346 3300   7.071   5.665   0.087 -0.8382  0.1460  0.3039
    8MOL   C347 3301   7.039   5.634   7.930  0.1813  0.2485  0.3017
    8MOL   C348 3302   6.897   5.217   7.827  0.1333  0.5298 -0.3311
    8MOL   H349 3303   6.940   5.346   7.666  0.4292  1.2301 -1.6350
    8MOL   H350 3304   6.700   5.579   7.733 -0.9406 -2.2789  3.3472
    8MOL   H351 3305   6.794   5.528   7.588  1.1799 -0.3141  0.0994
    8MOL   H352 3306   6.725   5.516   7.966 -1.0020  2.3178  2.8102
    8MOL   H353 3307   6.764   5.609   0.215 -0.4621  1.0992 -0.9954
    8MOL   H354 3308   6.982   5.690   0.286  0.8376 -1.9465 -0.5033
    8MOL   H355 3309   7.174   5.681   0.119 -0.3313 -3.2299  0.4685
    8MOL   H356 3310   7.117   5.632   7.854 -0.8368  1.3956 -0.7924
    8MOL   H357 3311   6.832   5.136   7.860 -1.1647  1.1166 -1.4263
    8MOL   H358 3312   6.890   5.295   7.903 -3.3463 -0.1824  0.1596
    8MOL   C359 3313   7.042   5.152   7.806  0.0003 -0.7744  0.6814
    8MOL   O360 3314   7.019   5.040   7.728 -0.1773  0.0034  0.1578
    8MOL   C361 3315   7.120   4.995   7.639 -0.2562  0.2091 -0.2412
    8MOL   O362 3316   7.246   4.986   7.700 -0.2756  0.3657  0.1866
    8MOL   C363 3317   7.359   4.932   7.639  0.0426 -0.2521 -0.0915
    8MOL   C364 3318   7.473   4.920   7.719  0.0098 -0.5427 -0.3893
    8MOL   C365 3319   7.591   4.864   7.668  0.1550 -0.0313 -0.4695
    8MOL   C366 3320   7.601   4.822   7.536  0.2551  0.0954 -0.9727
    8MOL   C367 3321   7.484   4.824   7.456  0.0242  0.2638  0.5889
    8MOL   C368 3322   7.360   4.877   7.508 -0.1484  0.3831  0.4222
    8MOL   C369 3323   7.101   5.111   7.934  0.2430 -0.4062 -0.2612
    8MOL   H370 3324   7.102   5.220   7.746  1.4041 -3.1107 -0.6133
    8MOL   H371 3325   7.124   5.062   7.553  0.4373  0.4503 -0.0209
    8MOL   H372 3326   7.096   4.893   7.607 -1.5949  0.0050  1.3562
    8MOL   H373 3327   7.460   4.957   7.820  1.7666 -3.0260  0.8146
    8MOL   H374 3328   7.667   4.836   7.738  0.0083 -0.2088 -0.3817
    8MOL   H375 3329   7.694   4.778   7.504  1.0666  0.6746  0.5652
    8MOL   H376 3330   7.487   4.787   7.354 -2.2651 -1.2957  1.0523
    8MOL   H377 3331   7.266   4.873   7.455 -1.5606  1.0435  2.8180
    8MOL   H378 3332   7.161   5.021   7.919 -2.8144 -2.5011 -0.3397
    8MOL   H379 3333   7.020   5.078   0.023 -0.0741 -1.1487 -1.0442
    8MOL   C380 3334   7.182   5.220   0.024 -0.2952  0.6418 -0.1276
    8MOL   O381 3335   7.296   5.250   7.918  0.0688  0.2416  0.3922
    8MOL   C382 3336   7.316   5.384   7.887 -0.0529 -0.1868 -0.1384
    8MOL   O383 3337   7.453   5.415   7.870 -0.3448  0.1013 -0.0238
    8MOL   C384 3338   7.523   5.365   7.764  0.2154 -0.0875  0.5535
    8MOL   C385 3339   7.489   5.253   7.685 -0.9422 -0.5281 -0.1877
    8MOL   C386 3340   7.575   5.211   7.585 -0.5497  0.9278  0.0151
    8MOL   C387 3341   7.692   5.277   7.558  0.0189 -0.3561 -0.3967
    8MOL   C388 3342   7.727   5.393   7.631 -0.4641 -0.4244 -0.1089
    8MOL   C389 3343   7.645   5.426   7.740  0.1794  0.1705 -0.2728
    8MOL   C390 3344   7.228   5.176   0.163 -1.1089  0.5340  0.5428
    8MOL   H391 3345   7.120   5.309   0.036 -0.5985  0.2929  0.9711
    8MOL   H392 3346   7.253   5.396   7.799  0.5052  0.1516 -0.4919
    8MOL   H393 3347   7.294   5.458   7.964  1.8936 -0.6124  0.8399
    8MOL   H394 3348   7.394   5.204   7.704 -0.8637 -0.6488 -0.1060
    8MOL   H395 3349   7.556   5.122   7.527 -2.5278  1.5054 -0.2590
    8MOL   H396 3350   7.757   5.231   7.485 -0.5488 -0.8663 -0.5873
    8MOL   H397 3351   7.817   5.450   7.613  0.5837 -1.8089  0.6442
    8MOL   H398 3352   7.670   5.510   7.803  2.6168 -0.1825 -0.7194
    8MOL   H399 3353   7.325   5.127   0.152 -1.9731 -1.4916  1.6832
    8MOL   H400 3354   7.159   5.104   0.207 -1.1341  1.0196  1.3050
    8MOL   C401 3355   7.228   5.298   0.257  0.0207 -0.3352 -0.2404
    8MOL   O402 3356   7.196   5.266   0.389 -0.0377 -0.0147 -0.1966
    8MOL   C403 3357   7.060   5.286   0.426 -0.1716 -0.0562 -0.5037
    8MOL   O404 3358   6.969   5.224   0.338  0.4105  0.5231 -0.3177
    8MOL   C405 3359   6.839   5.275   0.313  0.2973  0.4926 -0.4330
    8MOL   C406 3360   6.770   5.219   0.202  0.5502  0.3288  0.0744
    8MOL   C407 3361   6.633   5.259   0.185  0.3714  0.6848  0.1958
    8MOL   C408 3362   6.569   5.353   0.267 -0.2532 -0.1152 -0.2220
    8MOL   C409 3363   6.638   5.402   0.381  0.3516 -0.1664  0.0628
    8MOL   C410 3364   6.773   5.363   0.402  0.0117 -0.2709  0.1803
    8MOL   C411 3365   7.365   5.365   0.266  0.4902  0.6678  0.1093
    8MOL   H412 3366   7.156   5.373   0.225 -0.5766 -0.1428  1.5384
    8MOL   H413 3367   7.042   5.393   0.433 -0.3120 -0.0896 -0.3654
    8MOL   H414 3368   7.048   5.251   0.529  0.2548  1.1365 -0.0330
    8MOL   H415 3369   6.828   5.159   0.134  2.7908  0.1877  2.0492
    8MOL   H416 3370   6.583   5.222   0.097  0.5730  0.7430  0.0566
    8MOL   H417 3371   6.471   5.387   0.237  0.5240 -0.3789 -3.2262
    8MOL   H418 3372   6.588   5.471   0.447  1.5084  0.8909 -0.1446
    8MOL   H419 3373   6.832   5.404   0.482 -1.0083 -1.9008  1.7944
    8MOL   H420 3374   7.362   5.469   0.298 -0.8686  0.6139  0.1710
    8MOL   H421 3375   7.423   5.377   0.175  1.1712 -1.3740  0.2334
    8MOL   H422 3376   7.427   5.308   0.336  2.0107  1.0515 -0.9061
    9MOL     C1 3377   1.424   5.757   0.323  0.0823  0.2704 -0.0667
    9MOL     O2 3378   1.539   5.732   0.250  0.1632  0.0721  0.1633
    9MOL     C3 3379   1.524   5.738   0.115 -0.2301 -1.1996 -1.1661
    9MOL     O4 3380   1.652   5.723   0.060  0.6429 -0.1861 -0.2658
    9MOL     C5 3381   1.660   5.719   7.898 -0.0580 -0.1387 -0.2882
    9MOL     C6 3382   1.787   5.689   7.853 -0.0240  0.1797 -0.0784
    9MOL     C7 3383   1.817   5.694   7.720  0.6723 -0.4651  0.4914
    9MOL     C8 3384   1.722   5.742   7.627 -0.4342  0.0162 -0.3442
    9MOL     C9 3385   1.591   5.769   7.670 -0.4631 -0.2101 -0.5527
    9MOL    C10 3386   1.558   5.760   7.807  0.6466  0.4474 -0.3293
    9MOL    C11 3387   1.356   5.897   0.298  0.6929  0.4042 -0.5842
    9MOL    H12 3388   1.357   5.671   0.323  2.3495 -1.5521 -0.7775
    9MOL    H13 3389   1.456   5.659   0.086 -1.2846 -1.1313  0.9974
    9MOL    H14 3390   1.499   5.836   0.074  3.2745  0.6370  0.8126
    9MOL    H15 3391   1.858   5.657   7.928  0.4190  2.3256  0.4573
    9MOL    H16 3392   1.916   5.662   7.692 -0.4998 -2.1100 -1.8834
    9MOL    H17 3393   1.755   5.753   7.525  0.0432 -0.7930 -0.2831
    9MOL    H18 3394   1.516   5.816   7.609 -1.8803 -2.8572 -0.9050
    9MOL    H19 3395   1.457   5.782   7.840  0.1324 -0.3771 -1.3241
    9MOL    H20 3396   1.337   5.906   0.191  2.7578 -1.0890 -1.1168
    9MOL    H21 3397   1.422   5.979   0.325 -1.6920  2.1871 -0.0665
    9MOL    H22 3398   1.460   5.759   0.425  1.4313  1.6252 -0.5565
    9MOL    C23 3399   1.226   5.926   0.374 -0.5218 -0.2558 -0.0088
    9MOL    O24 3400   1.252   5.902   0.513  0.7887  1.1327 -0.2290
    9MOL    C25 3401   1.193   5.992   0.604 -0.2756 -0.3600  0.0438
    9MOL    O26 3402   1.058   5.995   0.596 -0.0612 -0.2615  0.2882
    9MOL    C27 3403   0.981   5.886   0.629  0.2447  0.7336  0.1627
    9MOL    C28 3404   1.029   5.764   0.669  0.1282 -0.4526 -0.2503
    9MOL    C29 3405   0.937   5.669   0.714 -0.3104 -0.2261 -0.0279
    9MOL    C30 3406   0.797   5.701   0.720 -0.2652  0.9125  0.0965
    9MOL    C31 3407   0.743   5.824   0.665  0.1166  0.4414  0.2551
    9MOL    C32 3408   0.843   5.917   0.623 -0.3969  0.3252  0.3340
    9MOL    C33 3409   1.107   5.839   0.322 -0.5386  0.1288  0.1285
    9MOL    H34 3410   1.198   6.030   0.358  0.8533  0.1372  0.0620
    9MOL    H35 3411   1.225   6.094   0.585 -1.0209  0.3827  2.5394
    9MOL    H36 3412   1.224   5.973   0.707  1.4960 -0.1448 -0.4488
    9MOL    H37 3413   1.135   5.753   0.687 -0.1799  0.3891  2.2663
    9MOL    H38 3414   0.978   5.573   0.741 -1.1975  0.0146  2.3376
    9MOL    H39 3415   0.735   5.629   0.771  0.9788 -1.3574 -1.4638
    9MOL    H40 3416   0.638   5.849   0.658  0.2619  0.5777 -1.7477
    9MOL    H41 3417   0.819   6.006   0.567 -0.8908 -0.6842 -1.0862
    9MOL    H42 3418   1.014   5.861   0.374 -1.4248 -1.5979 -0.6767
    9MOL    H43 3419   1.122   5.732   0.336 -1.1149  0.1651  1.0210
    9MOL    C44 3420   1.077   5.864   0.172  0.0390  0.2758  0.4656
    9MOL    O45 3421   0.936   5.872   0.151 -0.3671 -0.1457  0.4068
    9MOL    C46 3422   0.889   6.012   0.159  0.8859 -0.0329 -0.2238
    9MOL    O47 3423   0.883   6.069   0.287 -0.3976  0.2693 -0.8456
    9MOL    C48 3424   0.853   6.200   0.308 -0.0170 -0.5460 -0.8994
    9MOL    C49 3425   0.774   6.274   0.218 -0.6329 -0.1384 -0.3607
    9MOL    C50 3426   0.755   6.416   0.226  0.2012 -0.1107  0.2732
    9MOL    C51 3427   0.808   6.485   0.348 -0.0150  0.4823  0.0316
    9MOL    C52 3428   0.874   6.407   0.444  0.3152 -0.1011 -0.0030
    9MOL    C53 3429   0.900   6.266   0.423 -0.0545  0.0496  0.2631
    9MOL    C54 3430   1.138   5.759   0.079 -0.6723  0.4230 -0.0687
    9MOL    H55 3431   1.120   5.961   0.146  1.1106 -0.2277  0.3665
    9MOL    H56 3432   0.787   6.016   0.122  1.4064 -0.7296 -1.7758
    9MOL    H57 3433   0.950   6.072   0.092 -1.0123  0.7422 -1.2843
    9MOL    H58 3434   0.731   6.224   0.133  0.9839 -0.1457 -1.1953
    9MOL    H59 3435   0.699   6.465   0.148  0.8077  1.8147  1.0031
    9MOL    H60 3436   0.791   6.592   0.351 -3.2997 -0.0053  1.0333
    9MOL    H61 3437   0.907   6.454   0.536  0.7215  1.3515 -0.8834
    9MOL    H62 3438   0.959   6.217   0.499  0.4045 -1.2368 -0.9109
    9MOL    H63 3439   1.224   5.716   0.130 -0.7862 -0.2645 -0.4510
    9MOL    H64 3440   1.071   5.673   0.075  1.5054 -1.2789 -1.2709
    9MOL    C65 3441   1.161   5.805   7.907 -0.4661 -0.0914 -0.4906
    9MOL    O66 3442   1.257   5.908   7.928 -0.0683  0.4620  0.7360
    9MOL    C67 3443   1.279   6.006   7.824  0.2000 -0.9258  0.4298
    9MOL    O68 3444   1.176   6.105   7.827  0.6404 -0.3441  0.8789
    9MOL    C69 3445   1.171   6.197   7.929 -0.2321  0.3975 -0.0435
    9MOL    C70 3446   1.088   6.305   7.907  0.0154  0.4106  0.3366
    9MOL    C71 3447   1.083   6.410   0.029 -0.0029 -0.2119 -0.1472
    9MOL    C72 3448   1.145   6.401   0.155 -0.1118 -1.2526  0.2404
    9MOL    C73 3449   1.234   6.291   0.170  0.7658 -0.0443  0.5174
    9MOL    C74 3450   1.245   6.193   0.072 -0.4642 -0.1609 -0.4330
    9MOL    C75 3451   1.212   5.695   7.805 -0.9644 -0.1451 -0.4132
    9MOL    H76 3452   1.071   5.848   7.864  0.8544  0.7487 -2.4887
    9MOL    H77 3453   1.269   5.967   7.723  1.5825  3.3928 -1.5160
    9MOL    H78 3454   1.378   6.051   7.833  0.4814 -1.2271 -1.0659
    9MOL    H79 3455   1.028   6.311   7.817 -0.0068  0.2602  0.3423
    9MOL    H80 3456   1.012   6.487   0.002 -0.2264 -0.4532 -0.2439
    9MOL    H81 3457   1.122   6.469   0.236 -0.1872 -0.7747 -0.1801
    9MOL    H82 3458   1.289   6.285   0.263  3.5790  1.2955 -0.9880
    9MOL    H83 3459   1.314   6.111   0.081  0.2595  0.4218 -0.5568
    9MOL    H84 3460   1.283   5.733   7.731 -1.3643  0.2217 -0.6063
    9MOL    H85 3461   1.273   5.626   7.863  1.0176  1.0856 -0.9929
    9MOL    C86 3462   1.102   5.624   7.721  0.6522 -0.4470 -0.6684
    9MOL    O87 3463   1.034   5.729   7.656  0.6362  0.1086  0.2591
    9MOL    C88 3464   0.940   5.681   7.564 -0.1275 -0.0774 -0.0263
    9MOL    O89 3465   0.882   5.787   7.513  0.1347 -0.4010 -0.2102
    9MOL    C90 3466   0.761   5.775   7.451  0.2878  0.2567 -0.2303
    9MOL    C91 3467   0.676   5.891   7.440  0.0583 -0.4103 -0.1025
    9MOL    C92 3468   0.554   5.877   7.375  0.2012  0.0209 -0.4234
    9MOL    C93 3469   0.514   5.755   7.314  0.6443 -0.0786  0.9304
    9MOL    C94 3470   0.599   5.644   7.320  0.0397 -0.2698 -0.2684
    9MOL    C95 3471   0.718   5.650   7.394 -0.1762 -1.0002 -0.1091
    9MOL    C96 3472   1.164   5.505   7.644  0.0651 -0.6351 -0.1070
    9MOL    H97 3473   1.034   5.578   7.793 -0.0437  1.3781 -0.1369
    9MOL    H98 3474   0.866   5.620   7.615  0.3539 -0.1410  0.6090
    9MOL    H99 3475   1.002   5.634   7.489  0.9060  0.3625  0.5357
    9MOL   H100 3476   0.708   5.984   7.485 -2.9122  1.1296 -1.0430
    9MOL   H101 3477   0.487   5.961   7.369  0.1638  0.1933  1.9948
    9MOL   H102 3478   0.426   5.753   7.252  0.5302 -1.2690  1.1306
    9MOL   H103 3479   0.574   5.560   7.258 -0.7027  1.0086 -1.7480
    9MOL   H104 3480   0.786   5.567   7.385  1.9866  0.6786  0.3278
    9MOL   H105 3481   1.202   5.529   7.545  3.6227 -3.7889  0.3548
    9MOL   H106 3482   1.242   5.463   7.708  0.2184 -0.0750  0.0762
    9MOL   C107 3483   1.074   5.384   7.627  0.1421  0.3531  0.2928
    9MOL   O108 3484   1.092   5.337   7.497 -0.6857  0.1352  0.1485
    9MOL   C109 3485   1.003   5.232   7.466 -0.7026 -0.0097 -0.1865
    9MOL   O110 3486   0.872   5.272   7.464 -0.3200 -0.3967 -0.7832
    9MOL   C111 3487   0.771   5.185   7.428  1.1170  0.1002  0.1616
    9MOL   C112 3488   0.638   5.233   7.429  0.0868  0.0087  0.3691
    9MOL   C113 3489   0.527   5.154   7.381  0.1306  0.0527  0.3979
    9MOL   C114 3490   0.548   5.024   7.335  0.4006 -0.1808 -0.4559
    9MOL   C115 3491   0.681   4.974   7.336 -0.2072  0.3297  0.6567
    9MOL   C116 3492   0.789   5.051   7.379  0.0446 -0.8221  0.5435
    9MOL   C117 3493   1.087   5.280   7.750 -0.2491 -0.1626 -0.8979
    9MOL   H118 3494   0.974   5.429   7.632 -0.3409 -0.5993 -0.7316
    9MOL   H119 3495   1.014   5.146   7.532  0.1652 -1.6694 -2.4770
    9MOL   H120 3496   1.034   5.194   7.369  0.4738  0.8365 -0.1510
    9MOL   H121 3497   0.622   5.337   7.453 -0.0191 -0.0932  0.7449
    9MOL   H122 3498   0.431   5.203   7.372  0.1908 -0.1893 -1.6766
    9MOL   H123 3499   0.464   4.965   7.302 -0.6634  1.3880 -0.6168
    9MOL   H124 3500   0.702   4.872   7.308  2.0943  1.4972 -2.2695
    9MOL   H125 3501   0.890   5.015   7.376  1.0864  1.5670  3.9542
    9MOL   H126 3502   1.122   5.329   7.841 -1.2297  0.2213 -0.7312
    9MOL   H127 3503   1.174   5.220   7.720 -0.1713 -1.0043  0.9076
    9MOL   C128 3504   0.965   5.196   7.790 -0.1024  0.0120 -0.2761
    9MOL   O129 3505   0.878   5.276   7.882  0.4393  0.3295 -0.0353
    9MOL   C130 3506   0.745   5.249   7.882 -0.4374  0.5663 -0.5138
    9MOL   O131 3507   0.681   5.322   7.784  0.0214  0.1829 -0.0520
    9MOL   C132 3508   0.665   5.455   7.803  0.3388  0.2322  0.0596
    9MOL   C133 3509   0.582   5.523   7.709 -0.4472  0.0560 -0.3688
    9MOL   C134 3510   0.558   5.660   7.720 -0.0673 -0.4743 -0.6501
    9MOL   C135 3511   0.625   5.737   7.820 -0.0330 -0.3958 -0.2115
    9MOL   C136 3512   0.711   5.677   7.909  0.0242 -0.5841  0.0815
    9MOL   C137 3513   0.725   5.533   7.908  0.3258 -0.3742  1.0420
    9MOL   C138 3514   1.033   5.073   7.863 -0.5466 -0.2083  0.5646
    9MOL   H139 3515   0.900   5.164   7.708 -1.5021 -1.8768  1.5155
    9MOL   H140 3516   0.703   5.272   0.004 -0.6148  0.5781 -0.5940
    9MOL   H141 3517   0.721   5.144   7.864 -0.4404  0.1615  1.7800
    9MOL   H142 3518   0.536   5.457   7.637  1.9762 -2.3014  0.1423
    9MOL   H143 3519   0.496   5.705   7.644 -0.4196 -1.1558 -0.7697
    9MOL   H144 3520   0.619   5.845   7.823  3.3528 -0.1725  0.7044
    9MOL   H145 3521   0.769   5.733   0.005 -0.0013 -1.7238  0.9927
    9MOL   H146 3522   0.802   5.488   7.969  2.6930  1.3647 -0.5680
    9MOL   H147 3523   1.102   5.019   7.797 -2.1346 -1.1193 -0.3905
    9MOL   H148 3524   1.102   5.105   7.941  0.8108  1.1947 -1.1752
    9MOL   C149 3525   0.931   4.968   7.897 -0.7249  0.4475  0.4437
    9MOL   O150 3526   0.884   4.907   7.779 -0.1251  0.2874  0.0660
    9MOL   C151 3527   0.746   4.876   7.782  0.6249 -0.5710  0.3391
    9MOL   O152 3528   0.672   4.968   7.721  0.5075 -0.2894  0.0437
    9MOL   C153 3529   0.533   4.965   7.728  0.3154  0.0274  0.0955
    9MOL   C154 3530   0.473   5.083   7.686  0.1979  0.5356  0.3528
    9MOL   C155 3531   0.334   5.082   7.654  0.1330 -0.7589  0.3031
    9MOL   C156 3532   0.260   4.960   7.654  0.5653 -0.4064  0.3749
    9MOL   C157 3533   0.323   4.839   7.692 -0.4213 -0.4810 -0.3251
    9MOL   C158 3534   0.460   4.844   7.727 -0.0802 -0.0027 -0.2870
    9MOL   C159 3535   0.978   4.853   0.014  0.2786  0.3350 -0.5493
    9MOL   H160 3536   0.851   5.016   7.954 -0.4887  0.8857  0.4084
    9MOL   H161 3537   0.726   4.797   7.709 -1.7218 -0.1170  0.4695
    9MOL   H162 3538   0.709   4.820   7.868 -0.7681  0.1452  0.2223
    9MOL   H163 3539   0.536   5.169   7.668  1.3325  0.1049  2.1661
    9MOL   H164 3540   0.289   5.174   7.622  0.2316  0.0329  2.3619
    9MOL   H165 3541   0.154   4.957   7.630  1.2548 -2.0852 -2.7471
    9MOL   H166 3542   0.270   4.746   7.701 -0.0206 -0.6949 -0.1734
    9MOL   H167 3543   0.510   4.758   7.767  0.1740  0.8304  1.2527
    9MOL   H168 3544   1.057   4.793   7.945  0.2675 -0.1398  0.0677
    9MOL   H169 3545   0.891   4.788   0.021 -0.1078  0.6680 -2.0777
    9MOL   C170 3546   1.007   4.893   0.155  0.0055  0.1273  0.4900
    9MOL   O171 3547   0.875   4.912   0.205 -0.3233  0.1285 -0.1191
    9MOL   C172 3548   0.857   5.030   0.280 -0.0275  0.5043  0.0293
    9MOL   O173 3549   0.876   5.143   0.204 -0.1603 -0.4279 -0.3445
    9MOL   C174 3550   0.849   5.265   0.259 -0.4068  0.0788 -0.2191
    9MOL   C175 3551   0.755   5.281   0.361  0.2328 -0.2727  0.2844
    9MOL   C176 3552   0.732   5.416   0.413  0.0881  0.3378 -0.5562
    9MOL   C177 3553   0.816   5.526   0.376  0.2935  0.1432 -0.0108
    9MOL   C178 3554   0.912   5.500   0.273 -0.8313 -1.0443 -0.8062
    9MOL   C179 3555   0.925   5.376   0.209  0.1808 -0.1341  0.0392
    9MOL   C180 3556   1.070   4.791   0.241 -0.5358  0.2413 -0.0041
    9MOL   H181 3557   1.068   4.983   0.157  0.3237 -0.0690 -0.3179
    9MOL   H182 3558   0.915   5.021   0.372 -1.1870 -1.1228  0.6464
    9MOL   H183 3559   0.753   5.024   0.315 -0.3299  0.6942 -0.8362
    9MOL   H184 3560   0.691   5.196   0.378 -0.4151  0.7635  3.4337
    9MOL   H185 3561   0.649   5.436   0.480  0.1591  0.9206 -0.6402
    9MOL   H186 3562   0.797   5.625   0.412 -2.7710  0.0250 -1.1671
    9MOL   H187 3563   0.978   5.578   0.237 -0.2363 -0.8841  0.5811
    9MOL   H188 3564   1.003   5.364   0.135 -1.6338  0.3744 -2.0300
    9MOL   H189 3565   1.059   4.837   0.339 -1.3086  0.7505 -0.3213
    9MOL   H190 3566   1.016   4.697   0.231  2.0470 -1.4306  1.2688
    9MOL   C191 3567   1.219   4.752   0.223  0.1565 -0.3309  0.3706
    9MOL   O192 3568   1.250   4.656   0.322  0.7269 -0.1525 -0.1833
    9MOL   C193 3569   1.218   4.524   0.285 -0.0320  0.0072  0.4635
    9MOL   O194 3570   1.308   4.477   0.189  0.5019  0.2337  0.2408
    9MOL   C195 3571   1.433   4.442   0.229 -0.4462  0.4073  0.2594
    9MOL   C196 3572   1.504   4.343   0.161 -0.0576 -0.1117 -0.3051
    9MOL   C197 3573   1.639   4.319   0.189  0.0239 -0.3427 -0.8642
    9MOL   C198 3574   1.705   4.387   0.301 -0.3227  0.6864  0.5688
    9MOL   C199 3575   1.634   4.487   0.369  0.6587  0.0116 -0.3346
    9MOL   C200 3576   1.500   4.512   0.336  0.8625 -0.6193  0.7794
    9MOL   C201 3577   1.304   4.886   0.249 -0.6421  0.2882 -0.4479
    9MOL   H202 3578   1.239   4.716   0.122 -0.9533  0.6110 -0.1945
    9MOL   H203 3579   1.120   4.514   0.238  0.1285 -0.0756  0.1522
    9MOL   H204 3580   1.226   4.466   0.377 -0.2475 -1.5557 -0.4844
    9MOL   H205 3581   1.460   4.298   0.073 -1.2438 -2.4880  1.4443
    9MOL   H206 3582   1.698   4.258   0.123 -0.9288 -0.8482 -1.2626
    9MOL   H207 3583   1.803   4.357   0.334  0.5774  1.1342 -1.6592
    9MOL   H208 3584   1.681   4.537   0.453 -2.8877 -1.5194  2.7068
    9MOL   H209 3585   1.453   4.591   0.393  0.0099  0.4297 -1.2984
    9MOL   H210 3586   1.241   4.967   0.286  0.1329  0.5920  0.2372
    9MOL   H211 3587   1.367   4.859   0.334 -2.8294  0.2026  1.1725
    9MOL   C212 3588   1.400   4.918   0.133 -0.3306 -0.5167  0.1668
    9MOL   O213 3589   1.315   4.972   0.027  0.8457  0.0313 -0.4187
    9MOL   C214 3590   1.374   4.953   7.878 -0.9671  0.3919 -0.4153
    9MOL   O215 3591   1.372   4.822   7.834  0.1217  0.9131 -0.6286
    9MOL   C216 3592   1.490   4.759   7.804  0.7200  0.2662  0.3269
    9MOL   C217 3593   1.581   4.822   7.714 -0.6596  0.0288 -0.4244
    9MOL   C218 3594   1.709   4.755   7.696  0.4529 -0.7902 -0.5005
    9MOL   C219 3595   1.737   4.633   7.754  0.3283  0.3185  0.2464
    9MOL   C220 3596   1.643   4.567   7.836  0.1959  0.3980  0.1963
    9MOL   C221 3597   1.518   4.633   7.863 -0.3001  0.6694 -0.2654
    9MOL   C222 3598   1.508   5.020   0.171 -0.5825 -0.9420 -0.4539
    9MOL   H223 3599   1.444   4.823   0.101  0.5794 -0.3472  0.8916
    9MOL   H224 3600   1.477   4.989   7.881 -0.8786  0.0114  1.9910
    9MOL   H225 3601   1.322   5.018   7.807 -1.4759  2.4046  1.7390
    9MOL   H226 3602   1.561   4.915   7.663  0.0621  0.8003  0.6893
    9MOL   H227 3603   1.772   4.799   7.620  0.2304  0.0191 -0.2204
    9MOL   H228 3604   1.834   4.594   7.727  0.7648  1.9230 -0.5367
    9MOL   H229 3605   1.687   4.479   7.882 -0.1256  0.0130 -0.2290
    9MOL   H230 3606   1.447   4.598   7.937  1.3603 -1.1691  0.5050
    9MOL   H231 3607   1.531   5.084   0.086  0.1375 -0.7785 -0.1406
    9MOL   H232 3608   1.473   5.084   0.252  1.4444 -0.7932  0.3514
    9MOL   C233 3609   1.644   4.963   0.222 -0.0949 -0.1993 -0.3445
    9MOL   O234 3610   1.716   4.902   0.112 -0.1176  0.4995 -0.2855
    9MOL   C235 3611   1.742   4.769   0.137 -0.1212 -0.2770 -0.2189
    9MOL   O236 3612   1.808   4.755   0.259 -0.1404  0.0533  0.5654
    9MOL   C237 3613   1.934   4.806   0.272  0.6068  0.0302  0.2655
    9MOL   C238 3614   2.008   4.849   0.162  0.6194  0.7858  0.7743
    9MOL   C239 3615   2.139   4.906   0.183 -0.1448  0.6784  0.0235
    9MOL   C240 3616   2.183   4.921   0.315 -0.7364 -0.3972 -0.5852
    9MOL   C241 3617   2.110   4.876   0.425 -0.1089 -0.2758 -0.3392
    9MOL   C242 3618   1.983   4.811   0.405 -0.3434 -0.2700 -0.4511
    9MOL   C243 3619   1.725   5.061   0.307  0.3935  0.1127  0.7561
    9MOL   H244 3620   1.618   4.876   0.282 -0.7111  0.9623  1.0889
    9MOL   H245 3621   1.797   4.714   0.061 -0.7622  0.1432 -0.9818
    9MOL   H246 3622   1.653   4.707   0.144 -0.5576  0.4500  0.7267
    9MOL   H247 3623   1.982   4.857   0.057  0.7752  1.6608  0.8014
    9MOL   H248 3624   2.188   4.937   0.091 -1.3565 -0.9901 -1.2170
    9MOL   H249 3625   2.283   4.957   0.335 -1.4494  0.4861  1.5690
    9MOL   H250 3626   2.162   4.868   0.519 -1.7296  1.4168  0.7308
    9MOL   H251 3627   1.937   4.765   0.491  1.4312  2.9858  2.3482
    9MOL   H252 3628   1.828   5.026   0.312  0.0233 -0.7305  2.5696
    9MOL   H253 3629   1.736   5.159   0.259  0.4669 -0.2511  0.0191
    9MOL   C254 3630   1.693   5.084   0.451  0.0153  0.2067  0.4977
    9MOL   O255 3631   1.678   4.957   0.506 -0.1909 -0.2472 -0.3344
    9MOL   C256 3632   1.576   4.928   0.601 -0.1210  0.3336  0.4140
    9MOL   O257 3633   1.617   4.969   0.729 -0.1998 -0.3037 -0.3300
    9MOL   C258 3634   1.711   4.893   0.795 -0.3287  0.3815  0.4376
    9MOL   C259 3635   1.718   4.923   0.931  0.4436 -0.7871 -0.5291
    9MOL   C260 3636   1.810   4.854   1.010  0.2159 -0.3130 -0.4399
    9MOL   C261 3637   1.879   4.740   0.957 -0.0098  0.6473  0.4384
    9MOL   C262 3638   1.875   4.715   0.817 -0.2926  0.3558  0.0529
    9MOL   C263 3639   1.786   4.787   0.741 -0.4015 -0.2389  0.0711
    9MOL   C264 3640   1.813   5.153   0.525 -0.2502  0.3243  0.4821
    9MOL   H265 3641   1.606   5.149   0.462  0.4466  1.2551 -2.0742
    9MOL   H266 3642   1.563   4.820   0.602  1.1261  0.1824  1.8068
    9MOL   H267 3643   1.480   4.977   0.586 -0.4674 -0.0190  1.4532
    9MOL   H268 3644   1.672   5.013   0.970 -2.3235 -1.2885 -2.5201
    9MOL   H269 3645   1.823   4.883   1.113 -1.1072 -0.6456 -0.1715
    9MOL   H270 3646   1.935   4.673   1.021  0.9901  0.7892 -0.2650
    9MOL   H271 3647   1.934   4.631   0.782  0.7570  0.9951  0.2478
    9MOL   H272 3648   1.769   4.750   0.641  0.3998  1.2567 -0.6316
    9MOL   H273 3649   1.777   5.156   0.628 -1.6096 -1.3658  0.0926
    9MOL   H274 3650   1.900   5.088   0.518  0.7511  1.8904 -1.9882
    9MOL   C275 3651   1.860   5.293   0.475 -0.0091 -0.3580 -0.0361
    9MOL   O276 3652   1.740   5.367   0.481 -0.2610 -0.0368  0.4124
    9MOL   C277 3653   1.732   5.470   0.389 -0.0134  0.1626  0.4862
    9MOL   O278 3654   1.717   5.425   0.258 -0.4347 -0.5874  0.3441
    9MOL   C279 3655   1.584   5.396   0.218  0.3422 -0.5423  0.6742
    9MOL   C280 3656   1.562   5.387   0.080 -0.1022  0.3495  0.3396
    9MOL   C281 3657   1.428   5.367   0.029  0.2715 -0.4513 -0.2019
    9MOL   C282 3658   1.321   5.353   0.120 -0.0687  0.0885  0.3845
    9MOL   C283 3659   1.345   5.361   0.255 -0.5772 -0.7537 -0.4414
    9MOL   C284 3660   1.476   5.380   0.304 -0.2172  0.1947  0.8032
    9MOL   C285 3661   1.968   5.351   0.568 -1.1368 -0.1480  0.0575
    9MOL   H286 3662   1.904   5.281   0.376  1.2076 -0.5849  0.5236
    9MOL   H287 3663   1.823   5.528   0.377  0.5391 -0.5337  1.2945
    9MOL   H288 3664   1.647   5.528   0.425  1.0426  2.3912 -0.4929
    9MOL   H289 3665   1.644   5.411   0.013 -1.4864  0.9768 -1.1750
    9MOL   H290 3666   1.418   5.362   7.897 -0.3058  0.1272 -0.1699
    9MOL   H291 3667   1.219   5.347   0.087  0.1121 -0.4903 -0.0813
    9MOL   H292 3668   1.261   5.347   0.321 -0.2654  2.0978  0.6289
    9MOL   H293 3669   1.495   5.387   0.410 -1.1070  0.0345  0.9804
    9MOL   H294 3670   1.936   5.318   0.666 -0.5209 -0.0012  0.3097
    9MOL   H295 3671   1.974   5.460   0.560  2.5620 -0.4310 -2.7016
    9MOL   C296 3672   2.109   5.300   0.534 -0.1257 -0.0076 -0.0989
    9MOL   O297 3673   2.151   5.372   0.419  0.0156 -0.3844 -0.4667
    9MOL   C298 3674   2.208   5.297   0.316 -0.4183 -0.4002  0.4037
    9MOL   O299 3675   2.316   5.225   0.364 -0.5391  0.8245  0.1620
    9MOL   C300 3676   2.414   5.186   0.274 -0.2682  0.4669 -0.3351
    9MOL   C301 3677   2.533   5.125   0.321 -0.1620 -0.0308  0.5409
    9MOL   C302 3678   2.627   5.078   0.235 -0.3859  0.0854  0.0016
    9MOL   C303 3679   2.613   5.098   0.094  0.3437 -0.0819  0.4927
    9MOL   C304 3680   2.499   5.167   0.047 -0.3046  0.8406 -0.0571
    9MOL   C305 3681   2.398   5.203   0.133 -0.3615  0.3798 -0.1428
    9MOL   C306 3682   2.209   5.352   0.640 -0.0173  0.3474 -0.6602
    9MOL   H307 3683   2.114   5.192   0.518  0.7935  0.1604 -1.0073
    9MOL   H308 3684   2.239   5.371   0.243  0.9024 -2.2902 -1.0205
    9MOL   H309 3685   2.124   5.231   0.293  0.7001 -1.7757  0.2065
    9MOL   H310 3686   2.545   5.120   0.428  0.4933  0.2963  0.4813
    9MOL   H311 3687   2.719   5.035   0.271 -0.6479 -0.4308  0.0582
    9MOL   H312 3688   2.683   5.061   0.020  0.4113 -0.5136  0.7683
    9MOL   H313 3689   2.487   5.187   7.917  0.6543 -3.2872 -1.0334
    9MOL   H314 3690   2.309   5.248   0.092  0.5267  1.6644 -0.7091
    9MOL   H315 3691   2.187   5.449   0.685 -0.8556 -0.1756  0.1016
    9MOL   H316 3692   2.306   5.369   0.595  0.4297 -1.0469 -0.2578
    9MOL   C317 3693   2.232   5.246   0.754  0.0192 -0.1204 -0.1164
    9MOL   O318 3694   2.104   5.216   0.805  0.3118  0.2014 -0.3152
    9MOL   C319 3695   2.074   5.081   0.796 -0.1825  0.1419  0.1423
    9MOL   O320 3696   2.129   5.018   0.909  0.6700 -0.2733 -0.6285
    9MOL   C321 3697   2.106   5.067   1.042  0.3349 -0.5918  0.3731
    9MOL   C322 3698   2.010   5.166   1.075 -0.4280  0.2500 -1.1607
    9MOL   C323 3699   2.003   5.213   1.207 -0.2410  0.0819 -0.3487
    9MOL   C324 3700   2.087   5.161   1.305 -0.5607  0.2151 -0.4268
    9MOL   C325 3701   2.172   5.055   1.273  0.2051  0.0317 -0.4191
    9MOL   C326 3702   2.180   5.007   1.142  0.1605 -0.0051  0.2710
    9MOL   C327 3703   2.303   5.319   0.874 -0.9791  0.7593 -0.4912
    9MOL   H328 3704   2.285   5.163   0.709  0.7408  0.4581 -0.3407
    9MOL   H329 3705   2.103   5.038   0.700  1.4985  1.1686  0.1719
    9MOL   H330 3706   1.967   5.060   0.798  0.2758 -2.2562  1.2485
    9MOL   H331 3707   1.942   5.207   1.002 -3.7052 -1.1460  0.9768
    9MOL   H332 3708   1.935   5.294   1.232  2.7299  2.9231 -1.0840
    9MOL   H333 3709   2.084   5.212   1.400 -0.7777  2.4797 -1.6270
    9MOL   H334 3710   2.229   5.003   1.349  0.9342  0.1508 -0.8843
    9MOL   H335 3711   2.245   4.923   1.120 -1.4457 -0.8559 -1.4075
    9MOL   H336 3712   2.294   5.428   0.869  2.5112  1.0391 -2.2638
    9MOL   H337 3713   2.243   5.308   0.965 -1.5627  0.2973 -0.9279
    9MOL   C338 3714   2.449   5.289   0.876  1.1658  0.1769  0.0862
    9MOL   O339 3715   2.506   5.267   0.738  0.4127 -0.5639 -0.0271
    9MOL   C340 3716   2.622   5.189   0.731  0.5674  0.1644 -0.0958
    9MOL   O341 3717   2.744   5.258   0.740 -0.1763 -0.4281 -0.2662
    9MOL   C342 3718   2.788   5.342   0.639  0.0792 -0.1237  0.2105
    9MOL   C343 3719   2.909   5.409   0.669  0.4038  0.9848 -0.4854
    9MOL   C344 3720   2.966   5.499   0.572 -0.4156  0.2164 -0.0328
    9MOL   C345 3721   2.904   5.517   0.446  1.1272 -0.2866  0.4191
    9MOL   C346 3722   2.784   5.452   0.414  0.0173  0.6563 -0.1513
    9MOL   C347 3723   2.729   5.366   0.514  1.1068  0.0342  0.3005
    9MOL   C348 3724   2.536   5.393   0.947 -0.8997 -0.0063  0.3665
    9MOL   H349 3725   2.453   5.195   0.931  0.1726  0.9984  1.5863
    9MOL   H350 3726   2.612   5.132   0.638  1.2991  1.2798 -0.8721
    9MOL   H351 3727   2.630   5.118   0.813  1.0884  0.5249  0.1612
    9MOL   H352 3728   2.971   5.391   0.755 -1.4757  1.0731  0.9273
    9MOL   H353 3729   3.056   5.552   0.600 -0.8999  0.8019  0.4266
    9MOL   H354 3730   2.939   5.596   0.381  0.5310 -1.3045 -1.1750
    9MOL   H355 3731   2.730   5.475   0.322  2.0966  0.5492 -1.4273
    9MOL   H356 3732   2.637   5.314   0.493  0.1257  0.8215  2.4547
    9MOL   H357 3733   2.522   5.483   0.887  0.0943 -0.3841 -0.4548
    9MOL   H358 3734   2.639   5.359   0.936 -1.1787 -0.5632 -0.5856
    9MOL   C359 3735   2.506   5.414   1.104  0.4791  0.3456  0.2420
    9MOL   O360 3736   2.374   5.463   1.129 -0.4063  0.2327  0.3261
    9MOL   C361 3737   2.305   5.425   1.249  0.1323  0.0633  0.1774
    9MOL   O362 3738   2.361   5.493   1.360 -0.1441 -0.0547  0.1318
    9MOL   C363 3739   2.306   5.471   1.486 -0.0468 -0.0657 -0.0712
    9MOL   C364 3740   2.399   5.483   1.597  0.0554  0.1483  1.2625
    9MOL   C365 3741   2.354   5.443   1.724  0.6088  0.6648 -0.2168
    9MOL   C366 3742   2.228   5.389   1.742 -0.1471  0.2839 -0.0726
    9MOL   C367 3743   2.134   5.387   1.639 -0.8844  0.5405 -0.3514
    9MOL   C368 3744   2.177   5.424   1.513  0.0400 -0.9900 -0.3023
    9MOL   C369 3745   2.606   5.516   1.170  0.7565  0.9596 -0.0567
    9MOL   H370 3746   2.524   5.313   1.142 -0.2300  0.2618  0.3797
    9MOL   H371 3747   2.316   5.317   1.260 -0.1973 -0.1811 -1.7489
    9MOL   H372 3748   2.198   5.440   1.232  0.5904  0.9277 -2.1034
    9MOL   H373 3749   2.503   5.505   1.583  0.1884 -1.6837 -0.9010
    9MOL   H374 3750   2.414   5.447   1.814 -1.6740  1.1569  1.3278
    9MOL   H375 3751   2.201   5.356   1.842  0.3169  1.4527  0.4495
    9MOL   H376 3752   2.038   5.338   1.648 -0.5900  0.1572  0.8112
    9MOL   H377 3753   2.104   5.409   1.434 -1.0745  1.0619  0.2903
    9MOL   H378 3754   2.562   5.572   1.252 -0.2222  1.8853 -1.1975
    9MOL   H379 3755   2.620   5.592   1.093 -3.6007 -0.8348 -2.7943
    9MOL   C380 3756   2.745   5.461   1.219 -0.0119  0.4670  0.5362
    9MOL   O381 3757   2.717   5.362   1.312 -0.1892  0.2773 -0.7091
    9MOL   C382 3758   2.809   5.256   1.310  0.3562 -0.2731 -0.1993
    9MOL   O383 3759   2.796   5.175   1.198 -0.0965 -0.1548 -0.4843
    9MOL   C384 3760   2.897   5.087   1.166  0.7508 -0.1912  0.2950
    9MOL   C385 3761   2.935   5.090   1.028  0.3921 -0.9290 -0.3025
    9MOL   C386 3762   3.057   5.027   0.995 -0.5798  0.2695 -0.3360
    9MOL   C387 3763   3.133   4.957   1.090  0.3243 -0.3936 -0.2930
    9MOL   C388 3764   3.090   4.949   1.226 -0.8753 -0.2339 -0.2426
    9MOL   C389 3765   2.974   5.018   1.267 -0.1855 -0.0529 -0.0499
    9MOL   C390 3766   2.841   5.564   1.274 -0.5687 -0.3073  0.4187
    9MOL   H391 3767   2.789   5.407   1.135  0.6843  1.2662  0.3843
    9MOL   H392 3768   2.911   5.293   1.314  0.1503  0.1692  0.9652
    9MOL   H393 3769   2.781   5.191   1.392  0.8079  1.2028  1.1453
    9MOL   H394 3770   2.878   5.129   0.946 -1.1243 -2.1152  0.1724
    9MOL   H395 3771   3.100   5.047   0.898  1.2486 -1.6279  0.0318
    9MOL   H396 3772   3.220   4.899   1.061  1.4681  1.8971 -1.6029
    9MOL   H397 3773   3.149   4.911   1.307  1.0706  0.7056 -1.1884
    9MOL   H398 3774   2.948   5.023   1.371 -0.9409 -2.5002 -0.1039
    9MOL   H399 3775   2.919   5.514   1.331 -0.8652  0.2218  1.3029
    9MOL   H400 3776   2.791   5.615   1.357 -1.1345 -0.9544  0.4928
    9MOL   C401 3777   2.906   5.663   1.177 -0.5593  0.2641  0.2131
    9MOL   O402 3778   2.985   5.759   1.246 -0.1734 -0.0890  0.3535
    9MOL   C403 3779   3.063   5.852   1.171  0.0655 -0.4797 -0.5739
    9MOL   O404 3780   3.180   5.793   1.139 -0.3840  0.4792 -0.1530
    9MOL   C405 3781   3.275   5.859   1.062 -0.2090 -0.6455  0.3933
    9MOL   C406 3782   3.267   5.996   1.027 -0.1936 -0.1496 -0.2315
    9MOL   C407 3783   3.374   6.055   0.960  0.1112  0.0335 -0.2962
    9MOL   C408 3784   3.486   5.978   0.929 -0.6831 -0.3784  0.7439
    9MOL   C409 3785   3.496   5.844   0.960  0.2064  0.1185  0.2387
    9MOL   C410 3786   3.385   5.785   1.020 -0.4663  0.4600 -0.2585
    9MOL   C411 3787   2.999   5.590   1.078 -0.1945  0.2155  0.3758
    9MOL   H412 3788   2.838   5.707   1.104  2.7116  0.2783 -3.0082
    9MOL   H413 3789   3.087   5.925   1.249 -0.5911 -1.7272  0.8299
    9MOL   H414 3790   3.014   5.898   1.086  1.9613  1.2130 -0.8056
    9MOL   H415 3791   3.181   6.057   1.050  1.1046  1.9525 -0.7872
    9MOL   H416 3792   3.379   6.160   0.933 -1.5761 -0.1849 -1.5497
    9MOL   H417 3793   3.564   6.035   0.880 -0.6671 -0.1389  1.0477
    9MOL   H418 3794   3.583   5.785   0.932 -0.2360 -0.0600 -0.7840
    9MOL   H419 3795   3.397   5.680   1.046  1.2513  0.0585 -2.4814
    9MOL   H420 3796   2.946   5.508   1.028 -0.6143  1.8250 -1.9098
    9MOL   H421 3797   3.082   5.545   1.132 -0.2149  0.8077  0.8987
    9MOL   H422 3798   3.036   5.649   0.994  0.0909 -0.2389  0.1789
   10MOL     C1 3799   5.476   6.497   6.888  1.1572  0.4347 -0.2886
   10MOL     O2 3800   5.343   6.437   6.862  0.0937  0.2616  0.4595
   10MOL     C3 3801   5.265   6.407   6.972  0.1812  0.2352 -0.1681
   10MOL     O4 3802   5.310   6.306   7.054 -0.2792  0.0329 -0.3255
   10MOL     C5 3803   5.278   6.172   7.016  0.4763 -0.0119 -0.6382
   10MOL     C6 3804   5.244   6.137   6.880  0.2497 -0.1625 -0.1630
   10MOL     C7 3805   5.217   6.004   6.850  0.0657 -0.2915 -0.4337
   10MOL     C8 3806   5.225   5.907   6.950  0.2805 -0.2604  0.3486
   10MOL     C9 3807   5.258   5.937   7.080 -0.7442 -0.6090  0.7674
   10MOL    C10 3808   5.282   6.076   7.114  0.3845  0.5938 -0.1778
   10MOL    C11 3809   5.562   6.449   6.773 -0.2702  0.6069  0.0396
   10MOL    H12 3810   5.477   6.605   6.900 -3.1316  0.6559 -0.8985
   10MOL    H13 3811   5.277   6.498   7.031 -0.1924  0.2542 -0.1209
   10MOL    H14 3812   5.159   6.395   6.950 -0.2211  1.0450  1.3024
   10MOL    H15 3813   5.248   6.214   6.804  0.0447  1.7344  1.6809
   10MOL    H16 3814   5.209   5.971   6.748  3.4968  0.0175 -0.8721
   10MOL    H17 3815   5.197   5.805   6.927 -1.2661  0.0808  0.6359
   10MOL    H18 3816   5.230   5.880   7.167  1.0894  0.2961  1.9812
   10MOL    H19 3817   5.300   6.116   7.213  0.3147  2.0607 -0.7523
   10MOL    H20 3818   5.544   6.344   6.751  1.7190 -0.3579  2.6624
   10MOL    H21 3819   5.662   6.447   6.817  0.3980 -0.0516 -1.5118
   10MOL    H22 3820   5.522   6.460   6.979  2.6371  4.4806  0.7278
   10MOL    C23 3821   5.577   6.544   6.644  0.2000 -0.1340 -0.0037
   10MOL    O24 3822   5.599   6.682   6.674  0.2508 -0.1456 -0.1930
   10MOL    C25 3823   5.725   6.712   6.737  0.3191 -0.5454  0.8686
   10MOL    O26 3824   5.719   6.697   6.870 -0.6877  0.4981 -0.1614
   10MOL    C27 3825   5.830   6.736   6.941  0.6527 -0.2644 -0.5065
   10MOL    C28 3826   5.823   6.697   7.079  0.0402 -0.1536  0.2986
   10MOL    C29 3827   5.920   6.735   7.171  0.3295  0.1140  0.2930
   10MOL    C30 3828   6.025   6.817   7.127  0.0382  0.1872 -0.2940
   10MOL    C31 3829   6.030   6.857   6.996 -0.2605  0.6745  0.0042
   10MOL    C32 3830   5.934   6.819   6.896 -0.1350 -0.3613  0.5774
   10MOL    C33 3831   5.452   6.532   6.556  0.6077  0.4479  0.5107
   10MOL    H34 3832   5.660   6.505   6.585  0.6458 -0.9248  1.1230
   10MOL    H35 3833   5.745   6.818   6.717 -2.4677 -0.2335 -0.5712
   10MOL    H36 3834   5.802   6.650   6.692  0.3525  0.8133 -1.0457
   10MOL    H37 3835   5.736   6.642   7.111  0.8823 -0.8398  1.4505
   10MOL    H38 3836   5.929   6.696   7.271  0.8576 -2.4504 -0.7137
   10MOL    H39 3837   6.097   6.836   7.205  0.6258  0.4177 -0.8827
   10MOL    H40 3838   6.107   6.926   6.964 -0.7936  1.3659  0.1829
   10MOL    H41 3839   5.939   6.860   6.796 -2.2158  1.6886  1.2563
   10MOL    H42 3840   5.458   6.606   6.476  0.0600 -0.6853 -0.5922
   10MOL    H43 3841   5.375   6.572   6.622  1.6841  2.0838  0.8009
   10MOL    C44 3842   5.392   6.402   6.507 -0.6709 -0.4399  0.2590
   10MOL    O45 3843   5.452   6.349   6.391 -0.8487  0.0520  0.5629
   10MOL    C46 3844   5.550   6.256   6.403 -0.3171 -0.4456 -0.1879
   10MOL    O47 3845   5.503   6.133   6.446 -0.1343 -0.5477 -0.1119
   10MOL    C48 3846   5.431   6.050   6.363  0.0518  0.5838  0.1189
   10MOL    C49 3847   5.373   6.088   6.243 -0.9267  0.4239 -0.5504
   10MOL    C50 3848   5.290   5.998   6.170 -0.4297 -0.0793 -0.4725
   10MOL    C51 3849   5.269   5.870   6.211 -0.7811 -0.8107 -0.4313
   10MOL    C52 3850   5.331   5.830   6.329  0.2171  0.1764  0.2196
   10MOL    C53 3851   5.413   5.914   6.402  0.7636 -0.2150 -0.0786
   10MOL    C54 3852   5.249   6.411   6.447 -0.6901  0.0738 -0.0026
   10MOL    H55 3853   5.381   6.330   6.587  0.4965 -0.2043  0.6423
   10MOL    H56 3854   5.628   6.288   6.472 -1.1177 -2.1256  1.5450
   10MOL    H57 3855   5.593   6.238   6.304 -1.2987 -3.5896 -0.0775
   10MOL    H58 3856   5.385   6.187   6.201  1.9028  1.1805  1.8965
   10MOL    H59 3857   5.245   6.027   6.076 -2.2119 -1.7743 -0.1901
   10MOL    H60 3858   5.198   5.809   6.158 -0.8747 -0.1131 -1.1061
   10MOL    H61 3859   5.298   5.733   6.364  0.3391 -0.7910 -2.2074
   10MOL    H62 3860   5.446   5.880   6.499  3.8298 -0.0905 -1.0290
   10MOL    H63 3861   5.252   6.465   6.353  1.4908 -1.7594 -1.0317
   10MOL    H64 3862   5.231   6.309   6.415 -1.0310 -0.1331  0.8303
   10MOL    C65 3863   5.133   6.439   6.548  0.4492 -0.3642 -1.3305
   10MOL    O66 3864   5.128   6.577   6.549  0.0830 -0.4023  0.3264
   10MOL    C67 3865   5.098   6.635   6.673 -0.2300 -0.2726 -0.8871
   10MOL    O68 3866   4.970   6.600   6.711 -0.0365  0.0328 -0.0875
   10MOL    C69 3867   4.911   6.670   6.816  0.6355 -0.0115  0.1641
   10MOL    C70 3868   4.977   6.686   6.946 -0.5141 -0.0394 -0.3555
   10MOL    C71 3869   4.902   6.736   7.056 -0.5424  0.5038 -0.3045
   10MOL    C72 3870   4.762   6.771   7.032 -0.0943 -0.0756 -0.0548
   10MOL    C73 3871   4.697   6.754   6.906 -0.0549 -0.5256 -0.2172
   10MOL    C74 3872   4.776   6.709   6.804  0.3587  0.3195  0.2107
   10MOL    C75 3873   4.997   6.374   6.505 -0.0907  0.6364 -0.0946
   10MOL    H76 3874   5.155   6.408   6.650  0.1311  0.9896 -0.8439
   10MOL    H77 3875   5.088   6.741   6.646 -4.4521 -0.5955 -0.9881
   10MOL    H78 3876   5.180   6.625   6.744 -1.7945 -0.6683  0.8892
   10MOL    H79 3877   5.074   6.642   6.968  0.6630  1.9915 -1.3581
   10MOL    H80 3878   4.942   6.732   7.156  0.2568  0.7123 -0.6191
   10MOL    H81 3879   4.693   6.789   7.113 -0.8574  0.5122 -0.8358
   10MOL    H82 3880   4.591   6.773   6.901 -0.3759 -2.2322 -0.2687
   10MOL    H83 3881   4.730   6.695   6.707 -2.2865  1.1765  1.2930
   10MOL    H84 3882   4.916   6.447   6.508  2.4734  3.7081 -1.7883
   10MOL    H85 3883   5.007   6.348   6.400  0.9748  1.7939 -0.2999
   10MOL    C86 3884   4.954   6.244   6.582  0.0519  0.8046 -0.3757
   10MOL    O87 3885   5.063   6.158   6.564  0.1675 -0.4219  0.4925
   10MOL    C88 3886   5.032   6.034   6.516 -0.2905  0.6743  0.5964
   10MOL    O89 3887   4.977   5.952   6.612 -0.9261  0.1413 -0.2979
   10MOL    C90 3888   4.944   5.826   6.585 -0.5621  0.4663  0.2927
   10MOL    C91 3889   4.941   5.775   6.448 -0.5138 -0.0624  0.4423
   10MOL    C92 3890   4.923   5.635   6.429 -0.2189 -0.4787  0.0006
   10MOL    C93 3891   4.888   5.555   6.540 -0.8603  0.2306  0.1249
   10MOL    C94 3892   4.878   5.607   6.672  0.5212 -0.0288 -0.2749
   10MOL    C95 3893   4.921   5.740   6.694 -0.6179  0.0005  0.5462
   10MOL    C96 3894   4.915   6.268   6.728 -0.6128 -0.0379 -0.0286
   10MOL    H97 3895   4.866   6.205   6.530  0.8326 -0.8885 -0.4682
   10MOL    H98 3896   5.129   5.991   6.491 -1.0771 -1.5996  1.2815
   10MOL    H99 3897   4.983   6.045   6.420  1.9949  0.2521 -0.6590
   10MOL   H100 3898   4.960   5.826   6.355  1.0202 -1.2632  0.0693
   10MOL   H101 3899   4.936   5.594   6.330 -2.3942  1.9159 -1.3634
   10MOL   H102 3900   4.862   5.452   6.524 -1.6476  0.5150 -0.4528
   10MOL   H103 3901   4.852   5.546   6.757 -1.6249 -1.5604 -1.9650
   10MOL   H104 3902   4.928   5.778   6.795  1.6099  0.2522  0.3250
   10MOL   H105 3903   4.970   6.195   6.788  0.9216  0.8323 -0.3556
   10MOL   H106 3904   4.945   6.367   6.764  1.5215  0.1173 -2.1696
   10MOL   C107 3905   4.766   6.264   6.755 -0.3545  0.5170 -0.3783
   10MOL   O108 3906   4.751   6.273   6.898  0.2867  0.4936  0.3254
   10MOL   C109 3907   4.763   6.145   6.958 -0.4594  0.0540 -0.3295
   10MOL   O110 3908   4.653   6.061   6.951 -0.5128  0.1563 -0.0081
   10MOL   C111 3909   4.550   6.076   7.036 -0.4111 -0.1088 -0.8123
   10MOL   C112 3910   4.533   6.197   7.115 -0.1657 -0.1865 -0.0923
   10MOL   C113 3911   4.433   6.216   7.206  0.7235 -0.5189  0.5486
   10MOL   C114 3912   4.347   6.107   7.229  0.4243  0.1107 -0.5864
   10MOL   C115 3913   4.366   5.980   7.158  0.0419  0.3720  0.0806
   10MOL   C116 3914   4.468   5.964   7.065  0.1675 -0.5900  0.2467
   10MOL   C117 3915   4.678   6.380   6.703 -0.3117  0.4075  1.1107
   10MOL   H118 3916   4.725   6.170   6.717 -1.9870  1.0131  0.1097
   10MOL   H119 3917   4.796   6.164   7.060 -1.3618  0.8286 -0.1817
   10MOL   H120 3918   4.842   6.083   6.914  0.6391  1.7430 -0.7622
   10MOL   H121 3919   4.604   6.279   7.104 -1.9564  1.6048  1.3041
   10MOL   H122 3920   4.435   6.303   7.271  2.2397 -0.4745  0.4694
   10MOL   H123 3921   4.263   6.120   7.296  0.7440 -0.9243  0.0217
   10MOL   H124 3922   4.294   5.901   7.178  0.7533 -0.6387 -1.2525
   10MOL   H125 3923   4.488   5.872   7.013  1.5389 -1.3516  2.0697
   10MOL   H126 3924   4.727   6.413   6.611 -2.6482 -1.2031 -0.7813
   10MOL   H127 3925   4.689   6.467   6.768 -1.5399  0.6845  0.9538
   10MOL   C128 3926   4.527   6.345   6.690  0.1906  0.1486  0.3456
   10MOL   O129 3927   4.493   6.293   6.556 -0.2509 -0.6110 -1.0291
   10MOL   C130 3928   4.434   6.168   6.544 -0.8182 -0.1940 -0.5326
   10MOL   O131 3929   4.393   6.157   6.408  0.3453 -0.0717  0.0173
   10MOL   C132 3930   4.474   6.079   6.332 -0.0264 -0.7547  0.0226
   10MOL   C133 3931   4.410   6.001   6.240  0.5141  0.1982  0.2828
   10MOL   C134 3932   4.493   5.905   6.173 -0.4662 -0.3514  0.7966
   10MOL   C135 3933   4.634   5.902   6.193 -0.6916 -0.1844  0.6712
   10MOL   C136 3934   4.692   6.007   6.267 -0.0052  0.6678 -0.0761
   10MOL   C137 3935   4.610   6.085   6.346 -0.0621 -0.3933  0.4612
   10MOL   C138 3936   4.445   6.471   6.725  0.3946  0.2680 -0.1816
   10MOL   H139 3937   4.501   6.267   6.761 -0.3367 -0.2333 -0.2595
   10MOL   H140 3938   4.344   6.172   6.605 -2.2897 -2.3287 -2.4438
   10MOL   H141 3939   4.504   6.094   6.582 -1.5960 -0.5838  0.1516
   10MOL   H142 3940   4.303   5.990   6.231  0.8057 -1.7409 -1.4408
   10MOL   H143 3941   4.455   5.825   6.112  0.6748 -1.8366  1.9733
   10MOL   H144 3942   4.701   5.826   6.155  2.0775  2.6478 -0.3454
   10MOL   H145 3943   4.799   6.014   6.274  0.3238 -2.1665 -1.4624
   10MOL   H146 3944   4.663   6.148   6.416 -0.4872 -0.2390  0.6457
   10MOL   H147 3945   4.494   6.525   6.806  0.6359 -0.0048 -0.1454
   10MOL   H148 3946   4.454   6.535   6.637  1.6264  0.6783  0.2250
   10MOL   C149 3947   4.295   6.454   6.763 -0.1924 -0.0019  0.0920
   10MOL   O150 3948   4.216   6.399   6.662 -0.1760 -0.6346  0.0027
   10MOL   C151 3949   4.190   6.467   6.536 -0.0983 -0.2795 -0.1319
   10MOL   O152 3950   4.149   6.604   6.554  0.0686 -0.4584 -0.2939
   10MOL   C153 3951   4.022   6.630   6.595 -0.2412 -0.6212 -0.1689
   10MOL   C154 3952   3.919   6.538   6.632  0.4099  0.0675 -0.0052
   10MOL   C155 3953   3.790   6.587   6.683  0.6148 -0.5242  0.4098
   10MOL   C156 3954   3.761   6.725   6.669 -0.0137  0.8700  0.5274
   10MOL   C157 3955   3.859   6.809   6.629 -0.2587 -0.3205  0.4946
   10MOL   C158 3956   3.989   6.767   6.595 -0.5759 -0.0560 -0.2240
   10MOL   C159 3957   4.270   6.370   6.888  0.4691 -0.2143 -0.8610
   10MOL   H160 3958   4.260   6.557   6.763 -1.6211 -0.4817 -0.8200
   10MOL   H161 3959   4.286   6.461   6.486 -0.5609 -0.3986 -1.0092
   10MOL   H162 3960   4.116   6.409   6.481 -0.7488 -0.1780  0.6134
   10MOL   H163 3961   3.934   6.431   6.629  0.8248  0.1539 -1.2749
   10MOL   H164 3962   3.710   6.526   6.721 -0.4421  0.1535 -0.6830
   10MOL   H165 3963   3.664   6.765   6.694 -0.1669  0.9683 -0.2260
   10MOL   H166 3964   3.844   6.915   6.613 -2.0770 -0.6800 -0.3412
   10MOL   H167 3965   4.058   6.842   6.560  0.7614 -1.8368 -1.4861
   10MOL   H168 3966   4.357   6.379   6.954  3.2947 -0.1355 -4.4343
   10MOL   H169 3967   4.277   6.261   6.892  0.6736 -0.1544  1.1422
   10MOL   C170 3968   4.146   6.412   6.966 -0.2432 -0.5653 -0.6043
   10MOL   O171 3969   4.126   6.328   7.080  0.1179 -0.0844 -0.5045
   10MOL   C172 3970   4.068   6.210   7.048  0.1501 -0.1421  0.4227
   10MOL   O173 3971   3.925   6.210   7.027 -0.7488 -0.3365  0.2633
   10MOL   C174 3972   3.875   6.211   6.899  0.0723 -0.0925  0.9289
   10MOL   C175 3973   3.955   6.197   6.787 -0.3213 -0.4735 -0.1040
   10MOL   C176 3974   3.893   6.192   6.661 -0.0993  0.2014 -0.1629
   10MOL   C177 3975   3.756   6.217   6.647  0.1530  0.4527  0.6230
   10MOL   C178 3976   3.677   6.234   6.754  0.4881 -0.5027  0.4685
   10MOL   C179 3977   3.735   6.227   6.883  0.0434  0.2834  0.4039
   10MOL   C180 3978   4.162   6.551   7.031 -0.6385  0.3407  0.1775
   10MOL   H181 3979   4.062   6.407   6.897 -0.5166 -1.7577 -0.2011
   10MOL   H182 3980   4.068   6.156   7.142 -3.2615  2.1196  1.8323
   10MOL   H183 3981   4.136   6.156   6.982  0.1115  1.4685 -0.9632
   10MOL   H184 3982   4.063   6.203   6.781 -0.1761 -2.6947  0.0119
   10MOL   H185 3983   3.954   6.157   6.579 -0.0632 -0.5273  0.1630
   10MOL   H186 3984   3.713   6.222   6.548  2.1183 -2.0480 -0.4218
   10MOL   H187 3985   3.570   6.241   6.748  0.4448 -0.1838  1.5107
   10MOL   H188 3986   3.672   6.230   6.971 -0.3699  0.6434  0.0981
   10MOL   H189 3987   4.262   6.561   7.073  0.2634  1.4970 -2.1133
   10MOL   H190 3988   4.159   6.616   6.943 -0.2927 -1.5692 -1.2702
   10MOL   C191 3989   4.068   6.583   7.153  0.1376  0.2852  0.2000
   10MOL   O192 3990   4.063   6.725   7.142  0.2281 -0.1252 -0.0597
   10MOL   C193 3991   3.946   6.772   7.098  1.0375 -0.6302  0.4442
   10MOL   O194 3992   3.969   6.892   7.032 -0.3777  0.1304 -0.0845
   10MOL   C195 3993   3.858   6.944   6.964 -0.7749 -0.1495 -0.2458
   10MOL   C196 3994   3.884   7.040   6.869  0.8076  0.3634  0.2587
   10MOL   C197 3995   3.778   7.103   6.799 -0.0459 -1.1166  0.8888
   10MOL   C198 3996   3.647   7.060   6.821 -0.1211 -0.1771 -0.4189
   10MOL   C199 3997   3.624   6.962   6.917  0.8755  0.2004 -0.7541
   10MOL   C200 3998   3.723   6.915   6.999  0.1167 -0.2830  0.3927
   10MOL   C201 3999   4.114   6.550   7.300 -0.4306  0.2075  0.4885
   10MOL   H202 4000   3.980   6.525   7.127  1.1509 -0.4838 -1.6392
   10MOL   H203 4001   3.874   6.784   7.179 -0.4796  1.0908 -1.1130
   10MOL   H204 4002   3.906   6.715   7.014 -1.8573 -0.0390  1.3596
   10MOL   H205 4003   3.984   7.067   6.837 -0.3663  2.9190 -1.4761
   10MOL   H206 4004   3.786   7.186   6.729 -1.2652 -1.3108  0.5013
   10MOL   H207 4005   3.572   7.103   6.758  1.5379  0.5149 -1.9795
   10MOL   H208 4006   3.520   6.938   6.934  0.2980  2.0261 -1.5426
   10MOL   H209 4007   3.696   6.846   7.078  0.3563 -0.3155  0.4478
   10MOL   H210 4008   4.147   6.446   7.298  0.7862  0.5734  0.6484
   10MOL   H211 4009   4.200   6.611   7.328 -0.7531  0.7520  0.2953
   10MOL   C212 4010   4.006   6.569   7.411 -0.6749 -0.4906 -0.9286
   10MOL   O213 4011   3.900   6.489   7.362  0.2102 -0.3053 -0.1303
   10MOL   C214 4012   3.777   6.514   7.414  0.1140  0.0091  0.0975
   10MOL   O215 4013   3.721   6.634   7.364 -0.2775  0.6870  0.6119
   10MOL   C216 4014   3.640   6.629   7.247  0.4575 -0.2667 -0.2011
   10MOL   C217 4015   3.528   6.717   7.242 -0.0740 -0.0638 -0.9259
   10MOL   C218 4016   3.441   6.715   7.133  0.2212  0.1113 -0.5348
   10MOL   C219 4017   3.461   6.629   7.025  0.7017  0.4871  0.4617
   10MOL   C220 4018   3.569   6.541   7.028  0.7467 -0.4451  0.4305
   10MOL   C221 4019   3.655   6.539   7.141  0.1139  0.7863  0.3352
   10MOL   C222 4020   4.063   6.513   7.544 -0.1275  0.0850 -0.5531
   10MOL   H223 4021   3.981   6.675   7.416  1.8313  0.0472  1.9632
   10MOL   H224 4022   3.785   6.525   7.522  1.5820 -0.2453  0.0292
   10MOL   H225 4023   3.712   6.429   7.392  2.1074 -1.2722 -1.0208
   10MOL   H226 4024   3.507   6.784   7.324  0.8373 -1.4411  0.4433
   10MOL   H227 4025   3.350   6.773   7.133  0.1496 -0.0019  0.3184
   10MOL   H228 4026   3.387   6.628   6.946  1.2789 -0.6350 -0.0716
   10MOL   H229 4027   3.582   6.476   6.943 -2.1520 -0.3113 -0.1634
   10MOL   H230 4028   3.739   6.471   7.138  0.0549  0.6513  1.4619
   10MOL   H231 4029   3.981   6.488   7.611  0.5316  0.6946  0.4982
   10MOL   H232 4030   4.097   6.413   7.521 -1.3963  0.1213 -2.7644
   10MOL   C233 4031   4.158   6.612   7.625  0.0626  0.4698 -0.6561
   10MOL   O234 4032   4.073   6.726   7.657 -0.2537 -1.0026  0.3259
   10MOL   C235 4033   4.141   6.847   7.665  0.2387  0.4853 -0.3390
   10MOL   O236 4034   4.150   6.908   7.544 -0.2937 -0.1454 -0.2632
   10MOL   C237 4035   4.034   6.946   7.475 -0.5518 -0.3448  0.0268
   10MOL   C238 4036   3.898   6.920   7.509  0.3742  0.1652  0.1104
   10MOL   C239 4037   3.791   6.981   7.439  0.2937  0.1555  0.3377
   10MOL   C240 4038   3.819   7.054   7.323 -0.1519  0.2620  0.7306
   10MOL   C241 4039   3.951   7.078   7.286  0.4846 -0.8601  0.0987
   10MOL   C242 4040   4.059   7.022   7.357  0.4199 -0.0754 -0.5128
   10MOL   C243 4041   4.207   6.547   7.755  0.3614  0.3984  0.4849
   10MOL   H244 4042   4.244   6.641   7.564  0.6124  0.2784  0.0300
   10MOL   H245 4043   4.244   6.827   7.691 -0.1880 -1.1426  0.1581
   10MOL   H246 4044   4.112   6.920   7.741  1.0684 -1.1128  1.5247
   10MOL   H247 4045   3.883   6.864   7.600 -0.3510  1.4489  0.7866
   10MOL   H248 4046   3.692   6.953   7.470  0.7896 -0.8881  1.0003
   10MOL   H249 4047   3.736   7.078   7.259 -0.2645 -1.3309  0.2649
   10MOL   H250 4048   3.969   7.115   7.186 -2.1616  0.3084  0.0333
   10MOL   H251 4049   4.160   7.025   7.319 -1.1534 -0.1259 -5.0027
   10MOL   H252 4050   4.245   6.616   7.832 -1.6231 -0.7329  2.5204
   10MOL   H253 4051   4.130   6.507   7.821 -1.5219  2.0047 -0.6923
   10MOL   C254 4052   4.325   6.455   7.736  0.6781  0.5574 -0.0100
   10MOL   O255 4053   4.439   6.547   7.722  0.5321 -0.4051  0.1525
   10MOL   C256 4054   4.530   6.505   7.630 -0.5111  0.3137  0.6189
   10MOL   O257 4055   4.479   6.512   7.495 -0.1886  0.5921  0.2457
   10MOL   C258 4056   4.489   6.632   7.431 -0.2603  0.5723 -0.2371
   10MOL   C259 4057   4.511   6.751   7.498  0.1476 -0.6165 -0.3092
   10MOL   C260 4058   4.506   6.872   7.435  0.2294 -0.1406 -0.5059
   10MOL   C261 4059   4.474   6.882   7.302  0.1648 -0.2862 -0.0143
   10MOL   C262 4060   4.449   6.761   7.232 -0.2753  0.2283  0.1325
   10MOL   C263 4061   4.458   6.637   7.294 -0.3045  0.2435 -0.4144
   10MOL   C264 4062   4.365   6.356   7.855  0.0970 -0.2707  0.0238
   10MOL   H265 4063   4.301   6.393   7.649  1.2742  0.6566 -0.2549
   10MOL   H266 4064   4.555   6.399   7.640  0.9574  0.6098  0.1271
   10MOL   H267 4065   4.625   6.557   7.634  1.2562 -2.6847 -0.9590
   10MOL   H268 4066   4.529   6.754   7.605  1.3900  3.7646 -0.5443
   10MOL   H269 4067   4.528   6.958   7.497  2.0629 -1.0402  0.1154
   10MOL   H270 4068   4.456   6.978   7.257 -1.6599  1.0455  3.3848
   10MOL   H271 4069   4.418   6.760   7.129 -0.6515 -0.0397  0.2464
   10MOL   H272 4070   4.471   6.549   7.232  1.1092 -0.5289  0.9421
   10MOL   H273 4071   4.465   6.311   7.855 -0.0072 -0.5140 -1.1906
   10MOL   H274 4072   4.350   6.409   7.949  3.0776  0.7536 -0.0291
   10MOL   C275 4073   4.260   6.240   7.878 -0.1577  0.2387 -0.8310
   10MOL   O276 4074   4.284   6.150   7.772  0.1657 -0.1724  0.2860
   10MOL   C277 4075   4.178   6.075   7.722  0.1152  0.6018 -0.2405
   10MOL   O278 4076   4.172   6.092   7.587 -1.2746  0.0215  0.2714
   10MOL   C279 4077   4.052   6.060   7.531  0.1866  0.2535  0.6269
   10MOL   C280 4078   4.010   6.137   7.416 -0.2806  0.0367 -0.2322
   10MOL   C281 4079   3.889   6.110   7.351  0.2061  0.2766 -0.2423
   10MOL   C282 4080   3.800   6.017   7.411  0.8292 -0.0549  0.0078
   10MOL   C283 4081   3.837   5.943   7.521  0.8479  0.4886  0.2872
   10MOL   C284 4082   3.961   5.962   7.584  0.1562 -0.7926  0.5875
   10MOL   C285 4083   4.278   6.177   0.040  0.1842  0.4655  0.1041
   10MOL   H286 4084   4.162   6.289   7.878 -0.1017  0.3562 -0.4914
   10MOL   H287 4085   4.089   6.106   7.775  0.0086  0.9262 -0.6085
   10MOL   H288 4086   4.207   5.975   7.756  0.2091  0.7108 -0.0028
   10MOL   H289 4087   4.078   6.211   7.376 -1.8548  1.9874  0.6534
   10MOL   H290 4088   3.865   6.173   7.267 -0.4380  0.8174  0.3353
   10MOL   H291 4089   3.711   6.004   7.351  1.2357 -1.8355 -0.2598
   10MOL   H292 4090   3.767   5.873   7.562 -0.0465  0.5361 -1.1263
   10MOL   H293 4091   3.981   5.912   7.677  0.0344 -1.2479  0.3693
   10MOL   H294 4092   4.385   6.165   0.059 -0.0982 -0.8206  0.9253
   10MOL   H295 4093   4.229   6.081   0.053  0.5993  0.1733 -0.4198
   10MOL   C296 4094   4.221   6.256   0.167 -0.1299 -0.4003  0.2452
   10MOL   O297 4095   4.081   6.227   0.182 -0.7633 -0.2712 -0.2628
   10MOL   C298 4096   3.985   6.303   0.254  0.6495 -0.3533  0.3283
   10MOL   O299 4097   3.991   6.439   0.226 -0.0092 -0.6575  0.1412
   10MOL   C300 4098   3.952   6.483   0.104  0.7445  0.7300  0.3257
   10MOL   C301 4099   3.885   6.398   0.011  0.1627 -0.3623 -0.3283
   10MOL   C302 4100   3.849   6.451   7.859 -0.3435 -0.2411 -0.5534
   10MOL   C303 4101   3.880   6.585   7.829 -0.0117 -0.6225 -0.8470
   10MOL   C304 4102   3.939   6.665   7.924  0.8401  0.1960 -0.4611
   10MOL   C305 4103   3.972   6.617   0.074  0.5808 -0.6798 -0.1103
   10MOL   C306 4104   4.291   6.214   0.297 -0.1286  0.3595 -0.2524
   10MOL   H307 4105   4.223   6.365   0.158 -1.7617 -0.4490 -0.9917
   10MOL   H308 4106   4.022   6.299   0.356  2.7248 -1.3356 -0.4353
   10MOL   H309 4107   3.884   6.263   0.250  0.3840  0.3018  0.4939
   10MOL   H310 4108   3.873   6.292   0.028 -0.9727  0.0226  1.4289
   10MOL   H311 4109   3.811   6.389   7.780  0.1928  0.5321 -1.4254
   10MOL   H312 4110   3.844   6.625   7.735  1.5056  1.4459 -0.5760
   10MOL   H313 4111   3.964   6.769   7.911  1.9359 -0.0608 -0.4335
   10MOL   H314 4112   4.031   6.684   0.134 -0.0480 -0.2468  0.0348
   10MOL   H315 4113   4.281   6.106   0.307 -0.9304  0.4662  0.0965
   10MOL   H316 4114   4.233   6.251   0.382 -0.4757 -0.7698  0.0017
   10MOL   C317 4115   4.440   6.234   0.323  0.0146  0.3006  0.4249
   10MOL   O318 4116   4.463   6.247   0.467 -0.1234 -0.4974  0.5122
   10MOL   C319 4117   4.448   6.136   0.547 -0.4406 -0.4900 -0.4518
   10MOL   O320 4118   4.550   6.051   0.514  0.3866  0.1844 -0.1656
   10MOL   C321 4119   4.540   5.916   0.553 -0.2270  0.0499 -0.0010
   10MOL   C322 4120   4.635   5.825   0.507  0.6298  0.3743 -0.0553
   10MOL   C323 4121   4.637   5.695   0.550  0.5185 -0.4072  0.2033
   10MOL   C324 4122   4.550   5.656   0.655  0.4083  0.1795  1.1657
   10MOL   C325 4123   4.446   5.738   0.700  0.0960 -0.0002 -0.3201
   10MOL   C326 4124   4.448   5.870   0.651 -0.4865  0.4842 -0.1737
   10MOL   C327 4125   4.492   6.366   0.259 -0.3291  0.1925 -0.1125
   10MOL   H328 4126   4.500   6.159   0.272  3.3206  4.0169 -1.4941
   10MOL   H329 4127   4.349   6.095   0.528 -0.6632  0.2190 -0.8195
   10MOL   H330 4128   4.445   6.167   0.651 -3.0765  1.6845 -1.1363
   10MOL   H331 4129   4.699   5.863   0.429 -0.5542  1.2338 -0.6198
   10MOL   H332 4130   4.704   5.620   0.510  2.1761  0.5254  1.2163
   10MOL   H333 4131   4.556   5.550   0.675 -4.1853 -0.3772  0.1318
   10MOL   H334 4132   4.375   5.706   0.775 -1.8908 -0.7609 -2.4869
   10MOL   H335 4133   4.370   5.927   0.700  0.0501  0.8880  0.2189
   10MOL   H336 4134   4.482   6.378   0.151  3.9784  2.7342 -0.3371
   10MOL   H337 4135   4.428   6.447   0.295 -1.0101 -0.5833  0.4345
   10MOL   C338 4136   4.641   6.405   0.283 -0.6468 -0.2733  0.0370
   10MOL   O339 4137   4.723   6.327   0.198 -0.2221  0.2436 -0.3834
   10MOL   C340 4138   4.795   6.232   0.271 -0.2414  0.3284  0.4154
   10MOL   O341 4139   4.832   6.126   0.185 -0.6773 -0.2111  0.6256
   10MOL   C342 4140   4.955   6.130   0.120  0.4334 -0.5977  0.8124
   10MOL   C343 4141   5.029   6.020   0.078 -0.1569  0.2530 -0.0270
   10MOL   C344 4142   5.143   6.028   7.974 -0.1997 -0.0234  0.3355
   10MOL   C345 4143   5.196   6.158   7.954 -0.0347 -0.1503  0.2535
   10MOL   C346 4144   5.131   6.274   0.020  0.5707 -0.0771 -0.1175
   10MOL   C347 4145   5.006   6.256   0.080 -0.2592  0.3600 -0.4909
   10MOL   C348 4146   4.676   6.555   0.251  0.4214  0.4404  0.1292
   10MOL   H349 4147   4.672   6.388   0.386 -0.3709  0.4349  0.0730
   10MOL   H350 4148   4.742   6.179   0.350 -0.1841  2.7114  2.1226
   10MOL   H351 4149   4.879   6.279   0.322  0.9888 -1.8465  0.4321
   10MOL   H352 4150   4.979   5.927   0.096 -0.0011 -0.3368 -2.4433
   10MOL   H353 4151   5.199   5.943   7.936 -2.0392 -1.3801  0.6055
   10MOL   H354 4152   5.288   6.173   7.900  0.0781 -3.7040 -0.6671
   10MOL   H355 4153   5.167   6.369   7.959 -0.8548  0.4075 -0.3076
   10MOL   H356 4154   4.966   6.351   0.112  1.7233  0.9820  0.2739
   10MOL   H357 4155   4.650   6.591   0.151 -1.4022 -1.4305 -0.1076
   10MOL   H358 4156   4.783   6.534   0.246  0.3208 -0.3731  1.2329
   10MOL   C359 4157   4.648   6.657   0.364 -0.8416  0.0107 -0.6399
   10MOL   O360 4158   4.511   6.682   0.360 -0.5721 -0.0399  0.4888
   10MOL   C361 4159   4.454   6.680   0.485 -0.1108 -0.3061 -0.2792
   10MOL   O362 4160   4.454   6.557   0.560 -0.0027 -0.5045 -0.0305
   10MOL   C363 4161   4.505   6.562   0.690 -0.0323  0.5412 -0.5838
   10MOL   C364 4162   4.442   6.640   0.786  0.2079 -0.1215  0.3894
   10MOL   C365 4163   4.495   6.638   0.916  0.2887  0.0578  0.5071
   10MOL   C366 4164   4.599   6.554   0.954 -0.6950 -0.4860  0.3567
   10MOL   C367 4165   4.662   6.478   0.856  0.5401  0.0741 -0.5987
   10MOL   C368 4166   4.612   6.474   0.723  0.7278  0.0678  0.1979
   10MOL   C369 4167   4.715   6.795   0.348 -0.0771 -0.2742 -0.0338
   10MOL   H370 4168   4.672   6.611   0.460 -0.2685  1.8840  0.1452
   10MOL   H371 4169   4.350   6.709   0.468  0.3269  2.4374  1.3258
   10MOL   H372 4170   4.487   6.766   0.543  0.8508 -0.1548 -1.0460
   10MOL   H373 4171   4.361   6.709   0.769  0.5790 -0.1573 -1.5833
   10MOL   H374 4172   4.447   6.708   0.983 -1.1721  0.0864 -0.5584
   10MOL   H375 4173   4.644   6.564   1.052  0.5737 -1.2936 -0.1377
   10MOL   H376 4174   4.740   6.404   0.868  1.3318  1.1241  0.8485
   10MOL   H377 4175   4.646   6.400   0.652 -1.1737  0.2473 -0.9356
   10MOL   H378 4176   4.653   6.876   0.385  1.3424  0.4304  0.8270
   10MOL   H379 4177   4.731   6.828   0.245 -0.4961  0.4285  0.1326
   10MOL   C380 4178   4.850   6.817   0.419 -0.3618  0.0011 -0.0343
   10MOL   O381 4179   4.863   6.956   0.441 -0.6257 -0.7805  0.1485
   10MOL   C382 4180   4.957   6.985   0.545 -0.2100 -0.3895 -0.3349
   10MOL   O383 4181   5.084   7.001   0.488  0.0184  0.3485 -0.2600
   10MOL   C384 4182   5.115   7.112   0.411  0.4353  0.2891 -0.1770
   10MOL   C385 4183   5.248   7.123   0.367  0.3763  0.3432  0.3660
   10MOL   C386 4184   5.287   7.232   0.289  0.6167 -0.2854 -0.1125
   10MOL   C387 4185   5.190   7.316   0.240  0.1369 -0.3174 -0.1094
   10MOL   C388 4186   5.050   7.308   0.275 -0.7474 -0.2457  0.3541
   10MOL   C389 4187   5.018   7.204   0.360 -0.2072  0.3274  0.3954
   10MOL   C390 4188   4.976   6.768   0.332  0.1492  0.9856  0.0923
   10MOL   H391 4189   4.849   6.752   0.506 -0.1673  0.7615  0.5396
   10MOL   H392 4190   4.928   7.070   0.607  2.7553  0.2934  0.1857
   10MOL   H393 4191   4.971   6.915   0.628 -0.8419  0.5348  0.5605
   10MOL   H394 4192   5.311   7.040   0.395  2.0036  1.5164  0.2443
   10MOL   H395 4193   5.392   7.241   0.266  0.6551 -1.0629 -0.2762
   10MOL   H396 4194   5.221   7.396   0.174  1.0765 -0.7670 -0.2250
   10MOL   H397 4195   4.979   7.380   0.235 -0.1281 -1.2523 -2.7093
   10MOL   H398 4196   4.914   7.201   0.392 -1.4258  1.7550 -3.2238
   10MOL   H399 4197   5.034   6.851   0.291  2.2673 -0.8428 -0.6852
   10MOL   H400 4198   4.932   6.728   0.241 -0.8694  1.4655  0.3732
   10MOL   C401 4199   5.064   6.658   0.395  0.1580  0.1802 -0.1533
   10MOL   O402 4200   4.986   6.547   0.424  0.7752 -0.0261 -0.1361
   10MOL   C403 4201   5.025   6.467   0.528 -0.4739 -0.0771 -0.5878
   10MOL   O404 4202   4.924   6.376   0.560  0.2750  0.2658 -0.5701
   10MOL   C405 4203   4.929   6.302   0.676 -0.0905  0.1619  0.3942
   10MOL   C406 4204   4.824   6.212   0.700  0.5635  0.3274 -0.4400
   10MOL   C407 4205   4.829   6.127   0.812  0.0831  0.1401 -0.0398
   10MOL   C408 4206   4.930   6.131   0.911 -0.5370 -0.6220  0.8063
   10MOL   C409 4207   5.028   6.232   0.893 -0.1349  0.7409 -0.8596
   10MOL   C410 4208   5.029   6.308   0.777  0.9810  0.3707  0.1528
   10MOL   C411 4209   5.166   6.607   0.305 -0.3536 -0.3913  0.1130
   10MOL   H412 4210   5.105   6.695   0.488  0.9318  1.1618 -0.8710
   10MOL   H413 4211   5.029   6.528   0.618 -2.3387 -2.0698  0.9024
   10MOL   H414 4212   5.119   6.415   0.506 -0.0196 -0.0761  1.2615
   10MOL   H415 4213   4.751   6.199   0.622  0.1812 -0.7858  0.0963
   10MOL   H416 4214   4.741   6.064   0.821 -0.4074  0.9193  0.6785
   10MOL   H417 4215   4.933   6.073   1.002  1.1696  1.3233  2.0457
   10MOL   H418 4216   5.113   6.236   0.960 -1.8173  1.1272  1.3038
   10MOL   H419 4217   5.116   6.370   0.766  2.9975 -2.4072 -0.1770
   10MOL   H420 4218   5.127   6.551   0.219 -3.1593  2.2095 -0.3908
   10MOL   H421 4219   5.234   6.554   0.371  1.3858  2.2506  0.4976
   10MOL   H422 4220   5.224   6.685   0.256 -1.0235  0.7791  1.1611
   11MOL     C1 4221   5.249   2.360   5.886 -0.0918 -0.0323  0.7924
   11MOL     O2 4222   5.332   2.442   5.974  0.2510 -0.0548  0.5355
   11MOL     C3 4223   5.273   2.543   6.045  0.1639  0.5646 -0.3431
   11MOL     O4 4224   5.179   2.490   6.137 -0.2582 -0.5476  0.0012
   11MOL     C5 4225   5.063   2.563   6.154 -0.0823 -0.2678  0.2012
   11MOL     C6 4226   4.950   2.484   6.169 -0.1980  0.3437  0.2880
   11MOL     C7 4227   4.821   2.540   6.168 -0.2163 -0.4723 -0.1168
   11MOL     C8 4228   4.807   2.678   6.173  0.2901 -0.4655  0.2150
   11MOL     C9 4229   4.921   2.760   6.171 -0.3034 -0.1513  0.9594
   11MOL    C10 4230   5.046   2.707   6.146 -0.1783  0.3194 -0.1682
   11MOL    C11 4231   5.326   2.252   5.804  0.6254  0.3269 -0.3991
   11MOL    H12 4232   5.188   2.304   5.957  1.1339 -2.2180  0.1809
   11MOL    H13 4233   5.352   2.604   6.090 -1.3234  1.5954  0.8972
   11MOL    H14 4234   5.227   2.605   5.967  1.1086  2.5230  0.6021
   11MOL    H15 4235   4.973   2.379   6.174  2.7870  0.8641 -1.5917
   11MOL    H16 4236   4.736   2.473   6.174  0.8513 -1.7580  1.2206
   11MOL    H17 4237   4.708   2.721   6.179 -0.4040 -2.0357  0.2755
   11MOL    H18 4238   4.912   2.867   6.170  0.1514 -0.1074 -0.8783
   11MOL    H19 4239   5.132   2.772   6.136 -1.1008  1.3886 -1.2443
   11MOL    H20 4240   5.401   2.200   5.863  0.5763 -0.4143 -0.9742
   11MOL    H21 4241   5.374   2.310   5.725  1.4140 -0.2132 -0.3212
   11MOL    H22 4242   5.187   2.421   5.821 -0.3638 -0.2227  0.8741
   11MOL    C23 4243   5.234   2.138   5.757  0.3733  0.4772  0.3110
   11MOL    O24 4244   5.190   2.074   5.873  0.8492  0.0054 -0.1133
   11MOL    C25 4245   5.079   1.989   5.863 -0.0946  0.5211  0.6431
   11MOL    O26 4246   4.958   2.048   5.840  0.9019  0.6327  0.3238
   11MOL    C27 4247   4.885   2.088   5.950 -0.0635 -0.7359  0.0490
   11MOL    C28 4248   4.936   2.098   6.082  0.1293  0.2477  0.2009
   11MOL    C29 4249   4.850   2.137   6.188 -0.6489 -0.5421 -0.3562
   11MOL    C30 4250   4.723   2.183   6.163 -0.2697  0.8527 -1.0026
   11MOL    C31 4251   4.673   2.179   6.030 -0.2015 -0.8601  0.0291
   11MOL    C32 4252   4.754   2.134   5.924 -0.7451  0.1762 -0.2668
   11MOL    C33 4253   5.304   2.044   5.654  0.1552  0.0173  0.5171
   11MOL    H34 4254   5.144   2.180   5.712  1.5919  2.1609 -0.5899
   11MOL    H35 4255   5.069   1.923   5.950 -0.0229  1.4837  1.3847
   11MOL    H36 4256   5.091   1.930   5.772 -0.2179  1.4556  0.0133
   11MOL    H37 4257   5.036   2.065   6.108 -1.0789 -3.9479 -0.1768
   11MOL    H38 4258   4.887   2.150   6.289  1.2865  1.9769 -1.3333
   11MOL    H39 4259   4.661   2.220   6.244 -1.8381 -2.6699 -0.4634
   11MOL    H40 4260   4.571   2.203   6.004  0.6654  1.3733 -1.5003
   11MOL    H41 4261   4.721   2.131   5.821 -2.7378  1.1551  0.3351
   11MOL    H42 4262   5.265   1.942   5.653  1.0526 -0.3417  1.0626
   11MOL    H43 4263   5.403   2.037   5.701  0.7374 -0.6413 -0.7817
   11MOL    C44 4264   5.314   2.098   5.510 -0.2267 -0.6754 -1.0721
   11MOL    O45 4265   5.203   2.044   5.448  0.3300  0.1161 -0.1870
   11MOL    C46 4266   5.075   2.096   5.470  0.0482 -0.0489 -0.1764
   11MOL    O47 4267   5.001   2.006   5.550 -0.1484  0.7906 -0.1209
   11MOL    C48 4268   4.959   1.889   5.494  0.3031  0.6891  0.3448
   11MOL    C49 4269   4.993   1.841   5.364 -0.4430 -0.0545 -0.1543
   11MOL    C50 4270   4.948   1.716   5.325  0.6745 -0.3819 -0.0692
   11MOL    C51 4271   4.850   1.649   5.397 -0.3859  0.0982  0.7717
   11MOL    C52 4272   4.806   1.698   5.524  0.8466  0.4797  0.4177
   11MOL    C53 4273   4.865   1.814   5.576 -0.1821  0.6394  0.7727
   11MOL    C54 4274   5.445   2.066   5.434  0.3177  0.2967 -0.2248
   11MOL    H55 4275   5.300   2.206   5.507  1.5397 -0.4383 -1.5254
   11MOL    H56 4276   5.016   2.091   5.379  1.0122 -1.2191 -0.7527
   11MOL    H57 4277   5.071   2.192   5.521  1.6808  0.1488 -0.3821
   11MOL    H58 4278   5.056   1.900   5.299 -2.3418 -0.8649 -2.8238
   11MOL    H59 4279   4.973   1.680   5.226 -0.9923  1.1642 -1.0672
   11MOL    H60 4280   4.817   1.554   5.358  0.1233  0.7138 -1.2062
   11MOL    H61 4281   4.726   1.657   5.584  0.2987  1.8203  0.6296
   11MOL    H62 4282   4.839   1.852   5.674 -3.7369  0.5806 -0.0541
   11MOL    H63 4283   5.528   2.095   5.498 -0.6198 -0.5249  1.3862
   11MOL    H64 4284   5.451   1.958   5.417 -1.8654  0.3472 -1.4435
   11MOL    C65 4285   5.448   2.121   5.291  0.8043 -1.2477 -0.2776
   11MOL    O66 4286   5.486   2.260   5.301  0.2822  0.6445  0.3296
   11MOL    C67 4287   5.450   2.343   5.199  0.7737  0.2078  0.0137
   11MOL    O68 4288   5.317   2.361   5.203 -0.1458  0.3088 -0.1805
   11MOL    C69 4289   5.254   2.413   5.310  1.0168 -0.0563 -0.3482
   11MOL    C70 4290   5.310   2.478   5.421 -0.3698  0.1703  0.4983
   11MOL    C71 4291   5.235   2.528   5.525  0.5813 -0.4925  0.2118
   11MOL    C72 4292   5.099   2.510   5.529  0.7293 -1.4137  1.0423
   11MOL    C73 4293   5.035   2.443   5.417  0.4250  0.8122  0.1031
   11MOL    C74 4294   5.115   2.395   5.313 -0.8475  0.6042 -0.1521
   11MOL    C75 4295   5.539   2.033   5.204  0.8364 -0.2450  0.4763
   11MOL    H76 4296   5.354   2.126   5.235 -0.4433 -1.2752  1.7659
   11MOL    H77 4297   5.473   2.307   5.099 -0.2521 -0.3388 -0.0339
   11MOL    H78 4298   5.504   2.436   5.213  0.9445  0.2164 -0.6981
   11MOL    H79 4299   5.417   2.497   5.423 -0.4933  1.1564 -1.1640
   11MOL    H80 4300   5.283   2.573   5.611  0.7883  1.1700 -0.7494
   11MOL    H81 4301   5.039   2.560   5.604 -0.1144 -1.6309  0.5152
   11MOL    H82 4302   4.927   2.448   5.424  0.5107  1.1214  1.3215
   11MOL    H83 4303   5.076   2.346   5.224  0.8724  0.4003 -0.8043
   11MOL    H84 4304   5.559   2.089   5.112  0.1252 -2.6774 -1.1990
   11MOL    H85 4305   5.637   2.010   5.246  0.7181  0.1108  0.9614
   11MOL    C86 4306   5.474   1.893   5.157  0.1940 -0.6049 -0.2161
   11MOL    O87 4307   5.418   1.905   5.025 -0.1400  0.2134  0.6837
   11MOL    C88 4308   5.292   1.850   4.994  0.5783 -0.1801  0.0832
   11MOL    O89 4309   5.204   1.954   5.026 -0.1276 -0.1677  0.1912
   11MOL    C90 4310   5.073   1.925   5.012 -0.8026 -0.4420 -0.5596
   11MOL    C91 4311   4.989   2.019   5.067  0.6581 -0.2683  0.3242
   11MOL    C92 4312   4.852   2.008   5.067  0.1554  0.0337 -0.0717
   11MOL    C93 4313   4.794   1.891   5.015  0.3090 -0.8352 -0.0835
   11MOL    C94 4314   4.873   1.787   4.955 -0.5735 -0.8001 -0.1022
   11MOL    C95 4315   5.013   1.804   4.965 -0.0758 -0.2929 -0.0886
   11MOL    C96 4316   5.579   1.779   5.165  0.0817 -0.2588  0.3540
   11MOL    H97 4317   5.396   1.874   5.231  0.5124 -1.1504 -0.0069
   11MOL    H98 4318   5.271   1.769   5.063 -0.7405 -1.0424 -1.2860
   11MOL    H99 4319   5.278   1.803   4.897 -1.4952 -0.2796  0.4113
   11MOL   H100 4320   5.035   2.110   5.104  1.3100 -0.3926 -0.1761
   11MOL   H101 4321   4.801   2.085   5.123  0.4929  0.7373 -0.7187
   11MOL   H102 4322   4.687   1.886   5.028  0.3215 -0.2531  0.2462
   11MOL   H103 4323   4.841   1.694   4.911  0.0759 -0.0760 -2.1826
   11MOL   H104 4324   5.078   1.722   4.937 -1.4389 -0.7495 -2.1007
   11MOL   H105 4325   5.668   1.795   5.106 -1.0736  1.2353 -1.0402
   11MOL   H106 4326   5.611   1.788   5.269 -1.4487 -1.7796  0.9821
   11MOL   C107 4327   5.524   1.636   5.157  0.1869 -0.5061 -0.4432
   11MOL   O108 4328   5.639   1.547   5.146 -0.3604 -0.5396  0.5115
   11MOL   C109 4329   5.665   1.521   5.014  0.5754  0.2571 -0.5336
   11MOL   O110 4330   5.563   1.442   4.957 -0.0236  0.2526  0.3997
   11MOL   C111 4331   5.558   1.305   4.977 -0.0110 -0.0118  0.2552
   11MOL   C112 4332   5.476   1.234   4.887  0.1009 -0.8530  0.6323
   11MOL   C113 4333   5.482   1.095   4.902 -0.2745 -0.2639 -0.0051
   11MOL   C114 4334   5.551   1.028   5.003 -0.6533  0.0263  0.5186
   11MOL   C115 4335   5.629   1.102   5.092  0.1436 -0.6680 -0.0085
   11MOL   C116 4336   5.630   1.243   5.078 -0.2375  0.9588 -0.2287
   11MOL   C117 4337   5.436   1.581   5.271 -0.2489 -0.7366  0.3792
   11MOL   H118 4338   5.463   1.633   5.067  0.1236 -1.8925 -0.3589
   11MOL   H119 4339   5.762   1.474   5.026  0.3224  0.0439  0.6969
   11MOL   H120 4340   5.680   1.618   4.967  3.8821 -0.9770 -2.1581
   11MOL   H121 4341   5.440   1.290   4.802  0.3327 -1.6114  0.0299
   11MOL   H122 4342   5.437   1.031   4.827  0.2923 -1.9991  1.0924
   11MOL   H123 4343   5.548   0.920   4.997  0.1306 -0.0215  0.8614
   11MOL   H124 4344   5.694   1.062   5.169  0.3972  3.2695  1.9340
   11MOL   H125 4345   5.688   1.300   5.149 -0.1704  2.7404 -1.6785
   11MOL   H126 4346   5.388   1.662   5.326  1.1340 -0.3737  1.0682
   11MOL   H127 4347   5.504   1.549   5.349 -1.0470  0.5352  1.6251
   11MOL   C128 4348   5.337   1.469   5.231 -0.1761 -0.1266  0.2716
   11MOL   O129 4349   5.235   1.514   5.134  0.2978 -0.1305 -0.4074
   11MOL   C130 4350   5.229   1.440   5.012 -0.3550 -0.4168  0.5777
   11MOL   O131 4351   5.198   1.308   5.034  0.1844  0.1205 -0.0032
   11MOL   C132 4352   5.065   1.281   5.078 -1.1568 -0.8494  0.3607
   11MOL   C133 4353   5.028   1.146   5.108  0.1155  0.1045 -0.5834
   11MOL   C134 4354   4.905   1.116   5.172  0.4220 -0.4714  0.1654
   11MOL   C135 4355   4.812   1.224   5.188  0.0949  0.6345 -0.0602
   11MOL   C136 4356   4.842   1.359   5.150 -0.4786  0.6853 -0.0353
   11MOL   C137 4357   4.963   1.386   5.097 -0.7920  0.2298  1.0766
   11MOL   C138 4358   5.259   1.424   5.359  0.8234 -0.1014 -0.0791
   11MOL   H139 4359   5.394   1.381   5.200 -0.7604 -0.2779 -0.3947
   11MOL   H140 4360   5.324   1.455   4.960 -0.1206 -0.7363  0.9088
   11MOL   H141 4361   5.154   1.477   4.941 -0.3269 -0.9807  0.2513
   11MOL   H142 4362   5.093   1.061   5.093  0.0191 -0.4381  1.9163
   11MOL   H143 4363   4.874   1.016   5.202  0.5326  0.2350  2.7580
   11MOL   H144 4364   4.715   1.216   5.236  0.6193  1.8356  1.2302
   11MOL   H145 4365   4.771   1.434   5.183 -1.7686 -0.5680  0.0945
   11MOL   H146 4366   4.981   1.492   5.090  0.1403  0.0120 -0.0001
   11MOL   H147 4367   5.208   1.511   5.401  1.9112  1.2643 -1.4964
   11MOL   H148 4368   5.177   1.361   5.326  1.5712 -0.4288 -1.3762
   11MOL   C149 4369   5.342   1.351   5.461  0.3023 -0.0662  0.9655
   11MOL   O150 4370   5.386   1.450   5.544 -0.3269  0.0864 -0.0786
   11MOL   C151 4371   5.487   1.431   5.635  0.5775 -0.1810 -0.3373
   11MOL   O152 4372   5.438   1.430   5.768 -0.2400  0.0969  0.3662
   11MOL   C153 4373   5.420   1.542   5.843  0.9492  0.1020 -0.0986
   11MOL   C154 4374   5.397   1.517   5.983 -0.4229 -0.9239  0.3528
   11MOL   C155 4375   5.371   1.621   6.073  0.5668 -0.7586 -0.3601
   11MOL   C156 4376   5.366   1.755   6.020 -0.1915  0.3130 -0.2849
   11MOL   C157 4377   5.381   1.779   5.881 -0.0522  0.1368 -0.3029
   11MOL   C158 4378   5.418   1.674   5.795 -0.7795  0.2569 -0.3388
   11MOL   C159 4379   5.246   1.255   5.548  0.8683 -0.2189  0.7900
   11MOL   H160 4380   5.434   1.310   5.421 -1.8059 -2.4569 -1.5926
   11MOL   H161 4381   5.545   1.340   5.623 -1.5504 -1.7524  1.0101
   11MOL   H162 4382   5.560   1.510   5.619 -0.2524  0.5990 -0.3042
   11MOL   H163 4383   5.399   1.417   6.024  0.1382  0.2145  3.2514
   11MOL   H164 4384   5.372   1.603   6.180  0.9164 -3.0083 -0.7217
   11MOL   H165 4385   5.336   1.837   6.083 -0.7228  2.2859 -2.9885
   11MOL   H166 4386   5.364   1.881   5.852  0.2483  0.1507 -0.4285
   11MOL   H167 4387   5.431   1.701   5.691 -0.4380  1.2605 -0.0408
   11MOL   H168 4388   5.166   1.315   5.591 -1.1042 -0.7973 -1.9339
   11MOL   H169 4389   5.311   1.222   5.629  1.6903  3.0953  1.5607
   11MOL   C170 4390   5.203   1.122   5.479 -0.0841  1.1404 -0.1835
   11MOL   O171 4391   5.325   1.060   5.434 -0.1224  0.7759 -0.1559
   11MOL   C172 4392   5.328   1.041   5.301 -0.6686  0.2000  0.1201
   11MOL   O173 4393   5.237   0.946   5.257  0.7133  0.2659 -0.2981
   11MOL   C174 4394   5.265   0.816   5.290  0.2857  0.2072 -0.1315
   11MOL   C175 4395   5.159   0.720   5.268  0.0497 -0.5800 -0.5392
   11MOL   C176 4396   5.184   0.582   5.294 -0.8208 -0.5842  0.4364
   11MOL   C177 4397   5.317   0.539   5.328 -0.3823 -0.2922 -0.5208
   11MOL   C178 4398   5.416   0.635   5.347  0.3094 -0.3903 -0.3818
   11MOL   C179 4399   5.385   0.770   5.336  0.4117  0.2936  0.2884
   11MOL   C180 4400   5.130   1.020   5.571  0.2633  0.2222 -0.7189
   11MOL   H181 4401   5.144   1.140   5.389  1.4797  1.4985 -1.1657
   11MOL   H182 4402   5.428   1.016   5.266 -0.9574  0.5319 -0.9664
   11MOL   H183 4403   5.308   1.136   5.251 -0.3006  0.9399  1.3618
   11MOL   H184 4404   5.059   0.752   5.244 -0.3842  2.2483  4.2715
   11MOL   H185 4405   5.113   0.500   5.290 -0.0904 -1.2573  1.1142
   11MOL   H186 4406   5.336   0.436   5.355 -1.4341  0.0562  1.6997
   11MOL   H187 4407   5.510   0.596   5.384  1.1485  0.0202 -2.0553
   11MOL   H188 4408   5.468   0.837   5.354  0.5436  0.5961 -1.3394
   11MOL   H189 4409   5.117   0.927   5.518 -0.9128  0.7314 -1.3502
   11MOL   H190 4410   5.193   1.002   5.658 -0.0803  0.8040 -0.3446
   11MOL   C191 4411   4.996   1.079   5.633 -0.3229  0.2030 -0.3863
   11MOL   O192 4412   4.951   1.001   5.743 -0.2205  0.0427 -0.2741
   11MOL   C193 4413   5.022   1.008   5.859 -0.4571  0.1149 -0.4496
   11MOL   O194 4414   5.030   1.140   5.909  0.4879  0.1929  0.2246
   11MOL   C195 4415   5.111   1.170   6.015 -0.0877  0.2958 -0.0333
   11MOL   C196 4416   5.173   1.076   6.099  0.1586 -0.3457 -0.2864
   11MOL   C197 4417   5.239   1.117   6.215 -0.2843  0.8574 -0.3208
   11MOL   C198 4418   5.240   1.250   6.251  0.4545 -0.5878  0.2969
   11MOL   C199 4419   5.176   1.350   6.169 -0.0544  0.1509  0.2841
   11MOL   C200 4420   5.114   1.305   6.046  0.6233  0.1261 -0.0322
   11MOL   C201 4421   4.881   1.075   5.528 -0.7059 -0.1826 -0.0621
   11MOL   H202 4422   5.010   1.180   5.673  0.6767 -0.2221  0.3582
   11MOL   H203 4423   5.123   0.969   5.849 -0.3143  0.9726 -2.7433
   11MOL   H204 4424   4.962   0.944   5.923  0.6793  0.7191  1.2570
   11MOL   H205 4425   5.167   0.971   6.079  0.3863 -0.4311  0.0941
   11MOL   H206 4426   5.264   1.036   6.281 -0.2388  0.3789 -0.9205
   11MOL   H207 4427   5.291   1.276   6.343  0.9507 -1.3906  0.2509
   11MOL   H208 4428   5.178   1.455   6.192  2.5656 -0.2261  1.9275
   11MOL   H209 4429   5.062   1.375   5.982  1.0600 -0.7889 -1.4022
   11MOL   H210 4430   4.904   1.154   5.456  0.3828  0.6073  1.1139
   11MOL   H211 4431   4.881   0.978   5.478  2.6670  0.0197 -0.6211
   11MOL   C212 4432   4.734   1.096   5.579  0.1348 -0.0105 -0.0591
   11MOL   O213 4433   4.666   1.172   5.481  0.1068  0.1398  0.1575
   11MOL   C214 4434   4.628   1.301   5.498  0.1653  0.4477  0.1333
   11MOL   O215 4435   4.574   1.358   5.379 -0.1769 -0.6595  0.1968
   11MOL   C216 4436   4.515   1.481   5.389  0.1571  0.3616  0.5620
   11MOL   C217 4437   4.538   1.586   5.292 -0.3705  0.4671  0.4407
   11MOL   C218 4438   4.471   1.708   5.304 -0.5450  0.1825  0.0654
   11MOL   C219 4439   4.384   1.736   5.407  0.2422 -0.7290  0.5948
   11MOL   C220 4440   4.363   1.637   5.506 -0.0342  0.1665 -0.3740
   11MOL   C221 4441   4.432   1.512   5.498  0.2339 -0.0097 -0.5605
   11MOL   C222 4442   4.657   0.974   5.614  0.7539 -0.1981  0.3709
   11MOL   H223 4443   4.743   1.163   5.665  2.1601 -1.0938  0.6155
   11MOL   H224 4444   4.699   1.364   5.551  0.0899  0.8719 -0.2655
   11MOL   H225 4445   4.555   1.289   5.578  0.0729  0.6163  0.0745
   11MOL   H226 4446   4.596   1.561   5.205  0.3943  0.1530  1.0314
   11MOL   H227 4447   4.505   1.787   5.239 -0.7811  0.4685  0.2853
   11MOL   H228 4448   4.354   1.840   5.410 -1.7890 -1.1693 -2.0571
   11MOL   H229 4449   4.293   1.658   5.585 -3.2534 -1.2181 -2.7419
   11MOL   H230 4450   4.409   1.447   5.581 -1.1003  0.3558 -0.6335
   11MOL   H231 4451   4.624   0.930   5.519  0.5259 -0.6104  0.6378
   11MOL   H232 4452   4.711   0.906   5.680  0.2801 -1.5366 -0.5894
   11MOL   C233 4453   4.526   0.994   5.691 -0.3045  0.3720  0.1514
   11MOL   O234 4454   4.448   0.878   5.666 -0.3444  1.0303 -0.2992
   11MOL   C235 4455   4.340   0.888   5.569 -0.5955  0.4850  0.1860
   11MOL   O236 4456   4.229   0.944   5.617  0.4637 -0.7762 -0.1263
   11MOL   C237 4457   4.165   0.883   5.722  0.3320 -0.2888  0.0822
   11MOL   C238 4458   4.078   0.969   5.795  0.3157 -0.4937 -0.5701
   11MOL   C239 4459   3.999   0.921   5.902 -0.2462  0.1250  0.3343
   11MOL   C240 4460   4.021   0.792   5.946  0.7110  0.7151  0.3932
   11MOL   C241 4461   4.111   0.699   5.880 -0.4922  0.2633  0.1993
   11MOL   C242 4462   4.175   0.750   5.762 -0.2235 -0.1476 -0.2809
   11MOL   C243 4463   4.538   1.019   5.845 -0.2224  0.2290 -0.3270
   11MOL   H244 4464   4.483   1.078   5.637 -0.0780 -0.4186 -1.2874
   11MOL   H245 4465   4.306   0.789   5.537  0.0869  0.3839 -0.2327
   11MOL   H246 4466   4.375   0.938   5.479 -2.6743  1.1756 -0.2706
   11MOL   H247 4467   4.069   1.071   5.764 -0.9194  0.0720  1.5663
   11MOL   H248 4468   3.926   0.973   5.963  0.6570  0.6949  0.9372
   11MOL   H249 4469   3.963   0.758   6.030  0.4001 -1.1132 -0.5413
   11MOL   H250 4470   4.126   0.601   5.922 -2.3396 -0.8312 -1.6296
   11MOL   H251 4471   4.238   0.684   5.704  2.2317  2.0286 -0.2023
   11MOL   H252 4472   4.576   0.925   5.886 -1.3625  0.6900  1.8423
   11MOL   H253 4473   4.601   1.104   5.870  0.2040 -0.2458  0.2171
   11MOL   C254 4474   4.402   1.049   5.910  0.7514 -0.6399  0.9594
   11MOL   O255 4475   4.419   1.069   6.056  0.2763  0.3694 -0.4887
   11MOL   C256 4476   4.397   0.957   6.139  0.4277  0.3048  0.1514
   11MOL   O257 4477   4.500   0.859   6.123 -0.4434  0.3914 -1.1682
   11MOL   C258 4478   4.630   0.888   6.159  0.0903  0.4602 -0.3211
   11MOL   C259 4479   4.711   0.773   6.166 -0.6695  0.0402  0.1026
   11MOL   C260 4480   4.850   0.785   6.195  0.5320  0.1345 -0.0206
   11MOL   C261 4481   4.900   0.909   6.208  0.6728 -0.5580 -0.3797
   11MOL   C262 4482   4.823   1.025   6.199  1.0626  0.4946  0.4434
   11MOL   C263 4483   4.683   1.016   6.171  0.9716 -0.0715 -0.2383
   11MOL   C264 4484   4.327   1.179   5.859 -0.3514  0.7796 -0.6181
   11MOL   H265 4485   4.347   0.956   5.893 -0.5728  0.7420 -2.9754
   11MOL   H266 4486   4.296   0.919   6.123 -0.3034  1.3734  2.0676
   11MOL   H267 4487   4.389   1.007   6.236  0.7985  0.5871  0.0367
   11MOL   H268 4488   4.653   0.682   6.161  1.0577 -1.1761  1.5000
   11MOL   H269 4489   4.901   0.690   6.201 -0.7896 -0.6011 -0.0662
   11MOL   H270 4490   5.006   0.925   6.219  0.7515 -0.4962 -1.1778
   11MOL   H271 4491   4.864   1.123   6.213  1.2587  0.5522 -0.4908
   11MOL   H272 4492   4.615   1.100   6.173  0.1493 -0.6982 -1.9009
   11MOL   H273 4493   4.326   1.180   5.750 -0.2502 -0.6347 -0.6434
   11MOL   H274 4494   4.223   1.174   5.892 -0.3051 -0.8398 -0.6862
   11MOL   C275 4495   4.380   1.315   5.886  0.3072 -0.1507 -0.5512
   11MOL   O276 4496   4.496   1.334   5.802  0.3288  0.0185 -0.0804
   11MOL   C277 4497   4.607   1.396   5.864 -0.3943  0.6587 -0.3126
   11MOL   O278 4498   4.718   1.386   5.783 -0.4824 -0.2371 -0.3147
   11MOL   C279 4499   4.825   1.474   5.809  0.7151 -0.1332 -0.2208
   11MOL   C280 4500   4.932   1.480   5.723  0.2665  0.1918 -0.2988
   11MOL   C281 4501   5.051   1.549   5.751  0.7143  0.3723 -1.5958
   11MOL   C282 4502   5.063   1.620   5.869 -0.8448  0.5070 -0.3933
   11MOL   C283 4503   4.947   1.636   5.945  0.1243 -0.0668 -0.4253
   11MOL   C284 4504   4.832   1.561   5.922  0.3185 -0.5640  0.3788
   11MOL   C285 4505   4.296   1.438   5.855 -0.0737  0.4169  0.1863
   11MOL   H286 4506   4.402   1.312   5.993 -3.0201 -0.2623  0.1800
   11MOL   H287 4507   4.622   1.352   5.962 -0.7779  1.7643  0.2487
   11MOL   H288 4508   4.577   1.499   5.879  0.2594  0.9912 -1.2207
   11MOL   H289 4509   4.931   1.429   5.628  0.2511  1.4431 -0.9893
   11MOL   H290 4510   5.126   1.544   5.674  0.5739  1.6837 -1.8325
   11MOL   H291 4511   5.151   1.679   5.888  0.1113 -0.1794 -2.4832
   11MOL   H292 4512   4.947   1.697   6.034 -0.8507 -1.8508  0.8163
   11MOL   H293 4513   4.745   1.564   5.985  0.0402 -1.7459  0.0759
   11MOL   H294 4514   4.250   1.424   5.757 -0.4370 -1.0526  0.5646
   11MOL   H295 4515   4.355   1.530   5.861 -1.0060  1.0621 -0.4237
   11MOL   C296 4516   4.178   1.467   5.951 -0.0812 -1.3972  0.6058
   11MOL   O297 4517   4.235   1.551   6.054 -0.2178 -0.5748  0.1374
   11MOL   C298 4518   4.180   1.513   6.175 -0.0381 -0.1188  0.1232
   11MOL   O299 4519   4.215   1.384   6.221  0.9160 -0.7430 -0.0207
   11MOL   C300 4520   4.348   1.366   6.271 -0.3578 -0.8335  0.0540
   11MOL   C301 4521   4.367   1.262   6.366  0.0850 -0.0531  0.4112
   11MOL   C302 4522   4.498   1.222   6.401 -0.7261 -0.2023 -0.9031
   11MOL   C303 4523   4.597   1.303   6.357 -0.5270 -0.4116 -0.7126
   11MOL   C304 4524   4.585   1.412   6.271  0.4672 -0.0123 -0.7798
   11MOL   C305 4525   4.457   1.442   6.220  0.6773  0.2477  0.5248
   11MOL   C306 4526   4.077   1.560   5.877  0.1740  0.1072 -0.1040
   11MOL   H307 4527   4.140   1.376   5.996  1.3856 -2.2236  0.2123
   11MOL   H308 4528   4.073   1.531   6.175 -0.4605 -2.4624  1.1994
   11MOL   H309 4529   4.213   1.583   6.252 -0.0788 -1.0897  1.0436
   11MOL   H310 4530   4.286   1.204   6.408 -1.4728 -0.6902 -3.3343
   11MOL   H311 4531   4.521   1.138   6.465 -1.4076 -0.4309 -0.9611
   11MOL   H312 4532   4.698   1.276   6.387  0.1565  0.3452 -2.2622
   11MOL   H313 4533   4.667   1.469   6.232  0.8652 -0.0064  0.0576
   11MOL   H314 4534   4.449   1.529   6.156  1.9387  0.5644  0.7756
   11MOL   H315 4535   4.139   1.641   5.840  0.4403 -0.4620 -0.9178
   11MOL   H316 4536   4.014   1.617   5.945 -2.3872  0.5671 -2.7478
   11MOL   C317 4537   3.987   1.484   5.778  0.1441 -0.1578  0.1286
   11MOL   O318 4538   3.905   1.589   5.720  0.6169 -0.4196  0.3950
   11MOL   C319 4539   3.962   1.640   5.605  0.2204 -0.1769 -0.2494
   11MOL   O320 4540   4.035   1.760   5.640 -0.2340  0.2985  0.1470
   11MOL   C321 4541   3.979   1.877   5.675 -0.2800  0.8589  0.2184
   11MOL   C322 4542   4.064   1.986   5.699 -0.1307 -0.8850 -0.2709
   11MOL   C323 4543   4.004   2.109   5.736  0.0417 -0.3574  0.3240
   11MOL   C324 4544   3.864   2.117   5.754 -0.0119 -0.0686 -0.4700
   11MOL   C325 4545   3.785   2.006   5.719 -0.6070 -0.5439  0.2181
   11MOL   C326 4546   3.840   1.886   5.678  0.3876  1.0278 -0.4272
   11MOL   C327 4547   3.894   1.386   5.842  0.1459 -0.2722  0.6162
   11MOL   H328 4548   4.043   1.429   5.702  0.8998  0.8590 -0.0514
   11MOL   H329 4549   3.890   1.668   5.528 -1.2144 -1.2944  0.6542
   11MOL   H330 4550   4.023   1.575   5.543 -1.7014 -0.3097 -2.0742
   11MOL   H331 4551   4.167   1.978   5.668  0.3723  0.8150  0.9372
   11MOL   H332 4552   4.067   2.195   5.754 -0.9908  0.5305 -0.2302
   11MOL   H333 4553   3.822   2.205   5.801  1.6228 -1.0319  2.9302
   11MOL   H334 4554   3.678   2.022   5.724 -0.2347  1.7555  1.3884
   11MOL   H335 4555   3.768   1.807   5.660  0.4929  0.2238  2.5466
   11MOL   H336 4556   3.958   1.312   5.890  1.1308 -0.5536 -1.0981
   11MOL   H337 4557   3.842   1.447   5.916  0.0347  0.4188 -0.0299
   11MOL   C338 4558   3.795   1.321   5.745  0.1571 -0.1401  0.0166
   11MOL   O339 4559   3.876   1.239   5.660  0.4821 -0.1047 -0.6549
   11MOL   C340 4560   3.834   1.222   5.526 -0.7858  0.2877  0.1763
   11MOL   O341 4561   3.882   1.321   5.440  0.2909  0.3143  0.3869
   11MOL   C342 4562   4.008   1.316   5.384 -0.5511 -0.1728  0.0476
   11MOL   C343 4563   4.037   1.403   5.280  0.5900  0.4777 -0.5454
   11MOL   C344 4564   4.168   1.412   5.231 -0.2334 -0.5570  0.0315
   11MOL   C345 4565   4.267   1.326   5.285  0.5274 -0.6864  0.1139
   11MOL   C346 4566   4.241   1.250   5.406 -0.5466  0.4739  0.0714
   11MOL   C347 4567   4.108   1.240   5.448 -0.1939 -0.5900 -0.3574
   11MOL   C348 4568   3.695   1.237   5.826 -0.3769 -0.2222  0.3301
   11MOL   H349 4569   3.743   1.400   5.691 -0.7672 -0.7832 -0.0424
   11MOL   H350 4570   3.725   1.227   5.524 -0.9003 -1.8979  0.1875
   11MOL   H351 4571   3.864   1.126   5.486 -0.1115  1.6852 -2.7883
   11MOL   H352 4572   3.960   1.458   5.229  0.1253 -0.1718 -0.5550
   11MOL   H353 4573   4.199   1.471   5.146  1.5151 -0.6859  0.5627
   11MOL   H354 4574   4.363   1.334   5.236 -0.5213  3.8447 -1.3898
   11MOL   H355 4575   4.325   1.213   5.462 -1.6208 -0.1066  1.3194
   11MOL   H356 4576   4.090   1.178   5.535  0.2844  1.0790  0.9523
   11MOL   H357 4577   3.748   1.191   5.909  0.6077  2.6623  1.3504
   11MOL   H358 4578   3.682   1.151   5.760 -0.4499  0.5945 -0.7377
   11MOL   C359 4579   3.554   1.296   5.865  0.8432  0.3917 -0.2799
   11MOL   O360 4580   3.563   1.428   5.916  0.2180 -0.5971  0.0218
   11MOL   C361 4581   3.453   1.506   5.892  0.6062 -0.1297 -0.3604
   11MOL   O362 4582   3.344   1.477   5.968  0.8593 -0.1072  0.1444
   11MOL   C363 4583   3.368   1.477   6.102  0.5290  0.5590 -0.0372
   11MOL   C364 4584   3.294   1.387   6.184 -0.3414  0.4121 -0.3707
   11MOL   C365 4585   3.317   1.375   6.320 -0.4418 -0.2880  0.4218
   11MOL   C366 4586   3.413   1.454   6.387  0.3178 -0.4312  0.4399
   11MOL   C367 4587   3.478   1.550   6.308  0.1696 -0.5463 -0.2882
   11MOL   C368 4588   3.470   1.557   6.167 -0.8383 -0.1183  0.4567
   11MOL   C369 4589   3.486   1.197   5.957  0.4563  0.0834 -0.0173
   11MOL   H370 4590   3.494   1.303   5.774 -1.1263  1.1175  1.0264
   11MOL   H371 4591   3.427   1.503   5.786  0.2499  0.1942 -0.2800
   11MOL   H372 4592   3.478   1.611   5.906 -2.8429  0.4495  1.9284
   11MOL   H373 4593   3.244   1.308   6.129  3.2419 -1.0056 -1.7099
   11MOL   H374 4594   3.257   1.307   6.379  1.7333 -3.2432 -0.6523
   11MOL   H375 4595   3.439   1.440   6.491  2.5403  0.2676 -0.0038
   11MOL   H376 4596   3.544   1.622   6.355  1.0201 -1.2731 -0.3504
   11MOL   H377 4597   3.532   1.622   6.107 -2.0067 -1.3093 -2.1367
   11MOL   H378 4598   3.390   1.237   5.993 -1.1841 -2.6323 -1.2117
   11MOL   H379 4599   3.552   1.183   6.043 -0.3217  1.3613  0.8104
   11MOL   C380 4600   3.452   1.060   5.901 -0.2559  0.0465  0.0595
   11MOL   O381 4601   3.352   1.093   5.801  0.3592 -0.6034 -0.2626
   11MOL   C382 4602   3.357   1.012   5.689  0.1374 -0.5153 -0.1853
   11MOL   O383 4603   3.463   1.054   5.607  0.0332  0.0993  0.1018
   11MOL   C384 4604   3.461   1.002   5.475  0.5614 -0.2891 -0.3199
   11MOL   C385 4605   3.587   0.965   5.424  0.0305 -0.4598 -0.5778
   11MOL   C386 4606   3.595   0.917   5.289 -0.6992  0.0182 -0.7682
   11MOL   C387 4607   3.478   0.891   5.216 -0.4729 -0.3557 -0.2477
   11MOL   C388 4608   3.356   0.928   5.263  0.9969  0.0422  0.4320
   11MOL   C389 4609   3.345   0.982   5.391 -0.6008 -0.2850 -0.2131
   11MOL   C390 4610   3.396   0.956   5.998 -0.6187  0.2900  0.2890
   11MOL   H391 4611   3.541   1.020   5.854  1.0139  1.7204  1.0012
   11MOL   H392 4612   3.362   0.906   5.714  0.7104  0.1959  2.9181
   11MOL   H393 4613   3.268   1.038   5.631  1.1278  1.2830 -0.9533
   11MOL   H394 4614   3.671   0.983   5.489 -0.4876  0.5420 -0.1761
   11MOL   H395 4615   3.690   0.897   5.241 -1.3514 -0.8181 -1.7275
   11MOL   H396 4616   3.482   0.860   5.112  0.4053 -2.9627  0.5259
   11MOL   H397 4617   3.270   0.937   5.199  1.1082 -1.9035 -0.0222
   11MOL   H398 4618   3.244   1.013   5.415 -0.6811 -0.8297  0.1612
   11MOL   H399 4619   3.360   0.868   5.944 -0.2766 -0.5837  1.4718
   11MOL   H400 4620   3.303   0.998   6.035 -2.1461 -1.8066 -1.0291
   11MOL   C401 4621   3.485   0.904   6.103 -0.3650 -0.4757  0.1817
   11MOL   O402 4622   3.406   0.803   6.176 -0.0053  0.5911  0.4720
   11MOL   C403 4623   3.370   0.839   6.304  0.1611  0.1442  0.2593
   11MOL   O404 4624   3.480   0.854   6.388  0.1973  0.2343  0.4141
   11MOL   C405 4625   3.466   0.819   6.519  0.4014 -0.0943  0.3780
   11MOL   C406 4626   3.341   0.813   6.579  0.7643 -0.4050  0.0027
   11MOL   C407 4627   3.336   0.795   6.718 -0.0636  0.1293 -0.6399
   11MOL   C408 4628   3.448   0.762   6.791 -1.0022 -0.1873 -0.3911
   11MOL   C409 4629   3.571   0.756   6.723 -0.3391 -0.0036  0.1035
   11MOL   C410 4630   3.580   0.781   6.588 -0.4435  0.0320  0.4375
   11MOL   C411 4631   3.608   0.835   6.044  0.0393  0.2401  0.2422
   11MOL   H412 4632   3.527   0.986   6.161 -2.3316 -0.0666  1.0533
   11MOL   H413 4633   3.298   0.764   6.336  0.8469 -0.2167  0.9496
   11MOL   H414 4634   3.302   0.925   6.295  2.5455  2.0280 -0.3223
   11MOL   H415 4635   3.255   0.855   6.529  1.8368  0.5966 -0.9990
   11MOL   H416 4636   3.235   0.806   6.753 -0.3116 -0.3045 -1.2086
   11MOL   H417 4637   3.446   0.755   6.899  0.9404 -0.4418 -0.3591
   11MOL   H418 4638   3.656   0.715   6.775 -0.8268  0.1057  0.9820
   11MOL   H419 4639   3.670   0.770   6.529  0.3818  2.5132  1.1552
   11MOL   H420 4640   3.675   0.898   5.986 -2.6682  1.6826 -1.3914
   11MOL   H421 4641   3.583   0.750   5.981  1.2425  0.1917 -0.1863
   11MOL   H422 4642   3.663   0.786   6.125 -0.6236 -1.4989 -0.3402
   12MOL     C1 4643   4.598   5.969   7.873 -0.6974  0.1546 -0.2673
   12MOL     O2 4644   4.710   5.927   7.798 -0.1148 -0.1495 -0.1254
   12MOL     C3 4645   4.790   6.037   7.768  0.3343  1.5475 -0.2140
   12MOL     O4 4646   4.724   6.106   7.660 -0.1917 -0.0872  0.2781
   12MOL     C5 4647   4.798   6.212   7.596 -0.1104 -0.1540 -0.1937
   12MOL     C6 4648   4.735   6.254   7.474  0.1963  0.2489 -0.1052
   12MOL     C7 4649   4.813   6.337   7.384  0.3935 -0.1795  0.5628
   12MOL     C8 4650   4.941   6.381   7.423 -0.2705  0.3129 -0.0791
   12MOL     C9 4651   4.993   6.344   7.551  0.4836 -0.4232 -0.1446
   12MOL    C10 4652   4.923   6.256   7.635  0.1126  0.1078  0.3322
   12MOL    C11 4653   4.514   5.853   7.907 -0.0091  0.5247  0.5403
   12MOL    H12 4654   4.646   6.004   7.964 -1.4441 -0.0473  0.2022
   12MOL    H13 4655   4.813   6.094   7.858  0.9099 -0.6044  1.0315
   12MOL    H14 4656   4.886   6.001   7.731 -0.5056 -0.3815 -0.5971
   12MOL    H15 4657   4.643   6.216   7.434  1.5703  0.6678 -3.9053
   12MOL    H16 4658   4.767   6.361   7.289  0.9826  2.9329  1.0209
   12MOL    H17 4659   4.995   6.450   7.360  2.1530 -1.3446  0.1317
   12MOL    H18 4660   5.082   6.393   7.586 -0.2099  1.5224 -1.0343
   12MOL    H19 4661   4.975   6.232   7.726  0.8314  1.5559  0.3253
   12MOL    H20 4662   4.428   5.873   7.971  1.8524  1.5904  2.7969
   12MOL    H21 4663   4.580   5.792   7.969  1.6671  2.9144  1.1628
   12MOL    H22 4664   4.527   6.034   7.822 -0.4641 -0.1445 -0.9876
   12MOL    C23 4665   4.462   5.767   7.793  0.0349  0.9543  0.6371
   12MOL    O24 4666   4.376   5.827   7.688  0.2457  0.0973 -0.0639
   12MOL    C25 4667   4.442   5.887   7.575  0.0654 -0.3188 -0.2609
   12MOL    O26 4668   4.469   5.787   7.483 -0.0203  0.3232  0.4149
   12MOL    C27 4669   4.365   5.727   7.417  0.3488  0.6113 -0.1721
   12MOL    C28 4670   4.399   5.608   7.352  0.1164 -0.2667  0.5684
   12MOL    C29 4671   4.293   5.532   7.289  0.0275 -0.1095  0.1943
   12MOL    C30 4672   4.163   5.569   7.301 -0.3388  0.0609 -0.2828
   12MOL    C31 4673   4.129   5.685   7.373 -0.6355  0.0936  0.5232
   12MOL    C32 4674   4.231   5.763   7.427 -0.4661 -0.4050  0.2410
   12MOL    C33 4675   4.377   5.638   7.838  0.6740  0.1572 -0.2375
   12MOL    H34 4676   4.553   5.739   7.739  1.0983 -0.2683  2.9934
   12MOL    H35 4677   4.536   5.938   7.598  1.7902 -2.8261 -1.4725
   12MOL    H36 4678   4.371   5.963   7.542  0.1643  0.3185  0.9535
   12MOL    H37 4679   4.502   5.579   7.338 -0.3572 -1.5158 -0.5197
   12MOL    H38 4680   4.315   5.436   7.245  1.1782 -0.0082  0.5184
   12MOL    H39 4681   4.095   5.499   7.254 -0.6892  1.6716 -2.2833
   12MOL    H40 4682   4.025   5.708   7.387 -0.2716  0.9920  1.8811
   12MOL    H41 4683   4.194   5.848   7.482  0.7002 -0.0594  0.5023
   12MOL    H42 4684   4.273   5.658   7.863  1.0139 -0.8738  2.0487
   12MOL    H43 4685   4.418   5.596   7.929  0.0800 -0.3150 -0.1874
   12MOL    C44 4686   4.369   5.519   7.741 -0.5645 -0.1544 -0.4112
   12MOL    O45 4687   4.256   5.431   7.768 -0.4625 -0.3133  0.7546
   12MOL    C46 4688   4.215   5.370   7.654 -0.0369 -0.3262  0.8573
   12MOL    O47 4689   4.082   5.330   7.654 -0.3321  0.2286  0.1901
   12MOL    C48 4690   4.034   5.251   7.557  0.1951 -0.0500  0.3204
   12MOL    C49 4691   4.108   5.194   7.448  0.3376 -0.5934 -0.0291
   12MOL    C50 4692   4.048   5.088   7.373  0.4034  0.3969  0.3285
   12MOL    C51 4693   3.921   5.039   7.406 -0.1381  0.9491  0.5490
   12MOL    C52 4694   3.840   5.110   7.497 -0.1754 -0.1026  0.5339
   12MOL    C53 4695   3.900   5.208   7.574  0.1988 -0.3591 -0.2109
   12MOL    C54 4696   4.506   5.443   7.723 -0.0867 -0.0275 -0.9932
   12MOL    H55 4697   4.340   5.579   7.655 -0.2696 -0.6653 -0.8672
   12MOL    H56 4698   4.277   5.281   7.638 -0.7483 -1.2418  3.0002
   12MOL    H57 4699   4.220   5.430   7.563  0.9568 -1.4019  0.1745
   12MOL    H58 4700   4.204   5.239   7.428 -0.2202  1.7439  2.3047
   12MOL    H59 4701   4.098   5.038   7.291 -2.0822 -2.1594  0.3043
   12MOL    H60 4702   3.877   4.958   7.349 -0.6400  2.8289 -1.8276
   12MOL    H61 4703   3.744   5.066   7.520  0.3081 -1.2763  0.3262
   12MOL    H62 4704   3.841   5.246   7.656  1.3083 -2.3008  1.5372
   12MOL    H63 4705   4.524   5.415   7.619 -0.3453  1.2494 -1.3946
   12MOL    H64 4706   4.581   5.520   7.743  0.5110 -0.5603 -1.1790
   12MOL    C65 4707   4.530   5.330   7.824 -0.2390 -0.4342  0.1528
   12MOL    O66 4708   4.449   5.216   7.786  0.4958  0.3081  0.2696
   12MOL    C67 4709   4.416   5.125   7.892  0.1995  0.4846 -0.0416
   12MOL    O68 4710   4.503   5.020   7.907 -0.2631  0.0026 -0.4380
   12MOL    C69 4711   4.510   4.927   7.805 -0.5379  0.2131  0.4754
   12MOL    C70 4712   4.602   4.820   7.814  0.1265 -0.7827 -0.5847
   12MOL    C71 4713   4.620   4.724   7.713 -0.8933  0.3181  1.0013
   12MOL    C72 4714   4.538   4.726   7.599  0.5286 -0.1953  0.2032
   12MOL    C73 4715   4.447   4.835   7.577  0.1412 -0.1059 -0.2602
   12MOL    C74 4716   4.436   4.937   7.681 -0.3607 -0.4618 -0.4651
   12MOL    C75 4717   4.681   5.288   7.835  0.0248 -0.4375 -0.0351
   12MOL    H76 4718   4.509   5.362   7.926  1.2104 -2.3206  1.0671
   12MOL    H77 4719   4.318   5.085   7.865  0.2060  0.2377  0.3054
   12MOL    H78 4720   4.407   5.177   0.011 -0.0834 -1.5261  1.0681
   12MOL    H79 4721   4.662   4.812   7.903 -0.5472 -1.6783 -0.2073
   12MOL    H80 4722   4.687   4.640   7.727 -1.0506 -0.1996 -1.1772
   12MOL    H81 4723   4.551   4.652   7.521 -0.5821 -0.9845  0.7507
   12MOL    H82 4724   4.384   4.845   7.490  1.2760  2.3289 -0.8369
   12MOL    H83 4725   4.366   5.018   7.666 -1.6983 -1.3416  0.8923
   12MOL    H84 4726   4.685   5.187   7.874  1.8933 -0.5028 -0.3571
   12MOL    H85 4727   4.722   5.272   7.735 -1.4944  0.6046 -0.8408
   12MOL    C86 4728   4.772   5.379   7.924  0.0314 -0.0444  0.1758
   12MOL    O87 4729   4.772   5.327   0.077 -0.2805 -0.5368 -0.2966
   12MOL    C88 4730   4.702   5.397   0.177  0.3823 -0.2292  0.3772
   12MOL    O89 4731   4.734   5.358   0.302 -0.3751  0.1462 -0.6462
   12MOL    C90 4732   4.703   5.228   0.340 -0.4606  0.1789  0.3242
   12MOL    C91 4733   4.760   5.168   0.456  0.1114 -0.0865 -0.0304
   12MOL    C92 4734   4.734   5.040   0.499 -0.6412  0.3394  0.6194
   12MOL    C93 4735   4.642   4.963   0.414 -0.5920 -0.2099 -0.1626
   12MOL    C94 4736   4.592   5.016   0.293  1.0086 -0.3297 -0.1579
   12MOL    C95 4737   4.625   5.142   0.261 -0.5982 -0.2346  0.0553
   12MOL    C96 4738   4.920   5.366   7.889  0.2530  0.2929  0.0571
   12MOL    H97 4739   4.736   5.481   7.916 -0.5049 -0.4286 -2.8985
   12MOL    H98 4740   4.593   5.388   0.168  0.1185  1.2958  1.7110
   12MOL    H99 4741   4.722   5.504   0.168 -0.9376 -0.1774 -2.9047
   12MOL   H100 4742   4.825   5.228   0.517  1.9811 -0.4961 -1.5800
   12MOL   H101 4743   4.780   5.005   0.590  1.3482  0.6835 -0.2178
   12MOL   H102 4744   4.602   4.873   0.458  0.2225  0.5436  2.2250
   12MOL   H103 4745   4.522   4.959   0.235 -3.1270  3.2433  1.0834
   12MOL   H104 4746   4.582   5.183   0.171  1.4896  1.3016 -0.3047
   12MOL   H105 4747   4.979   5.399   7.975  1.1758  0.0337 -0.4650
   12MOL   H106 4748   4.932   5.263   7.857  0.0848  0.9352 -2.1469
   12MOL   C107 4749   4.953   5.460   7.770 -0.2832 -0.3908  0.2106
   12MOL   O108 4750   4.963   5.591   7.825  0.2069 -0.1335 -0.1282
   12MOL   C109 4751   4.976   5.689   7.726 -0.3809  0.0166 -0.3369
   12MOL   O110 4752   5.102   5.752   7.730 -0.3922  0.0561 -0.6010
   12MOL   C111 4753   5.134   5.850   7.636  0.0871  0.2503 -0.2072
   12MOL   C112 4754   5.253   5.928   7.659  0.3373  0.6874  0.4950
   12MOL   C113 4755   5.279   6.044   7.576  0.6507 -0.1666  0.3159
   12MOL   C114 4756   5.189   6.075   7.466 -0.4940 -0.0689 -0.1439
   12MOL   C115 4757   5.072   6.002   7.451  0.3206 -0.0611 -0.2155
   12MOL   C116 4758   5.044   5.894   7.536  0.5164 -0.3345  0.6599
   12MOL   C117 4759   5.083   5.416   7.693 -0.6436 -0.6038  0.4016
   12MOL   H118 4760   4.864   5.461   7.707 -0.0247 -0.7470 -0.1568
   12MOL   H119 4761   4.899   5.759   7.756 -0.4572  0.0847 -0.6949
   12MOL   H120 4762   4.956   5.644   7.629  2.9995 -1.8148 -0.2867
   12MOL   H121 4763   5.319   5.906   7.742  0.3161  1.1470  0.6301
   12MOL   H122 4764   5.372   6.098   7.586 -0.0054  0.8113  1.1868
   12MOL   H123 4765   5.207   6.160   7.402  0.9503  1.0233  1.6568
   12MOL   H124 4766   4.995   6.033   7.381 -0.8454  0.2446  1.1728
   12MOL   H125 4767   4.947   5.849   7.520  0.8576 -1.2284  1.0311
   12MOL   H126 4768   5.161   5.370   7.753 -1.8296 -2.8937  0.2338
   12MOL   H127 4769   5.130   5.508   7.658 -0.4261 -0.9713 -0.2811
   12MOL   C128 4770   5.062   5.326   7.566 -0.5531  0.2352 -0.3783
   12MOL   O129 4771   4.971   5.405   7.482  0.8405  0.1451 -0.1068
   12MOL   C130 4772   4.983   5.375   7.353 -0.1174 -0.4883  0.3307
   12MOL   O131 4773   5.039   5.478   7.281  0.4631  0.3996 -0.0289
   12MOL   C132 4774   4.955   5.588   7.253  0.3437 -0.0985  0.2172
   12MOL   C133 4775   5.015   5.690   7.173 -0.2240 -0.2558 -0.9065
   12MOL   C134 4776   4.944   5.803   7.138 -1.0863  0.1414  0.2450
   12MOL   C135 4777   4.822   5.830   7.187  0.2428 -0.2357  0.2097
   12MOL   C136 4778   4.757   5.733   7.270  0.1841  0.6070 -0.3129
   12MOL   C137 4779   4.824   5.610   7.301 -0.3720  0.0727 -0.3021
   12MOL   C138 4780   5.010   5.186   7.597 -0.4513 -0.1672  0.1947
   12MOL   H139 4781   5.160   5.331   7.520  0.2619  1.2335  1.4050
   12MOL   H140 4782   4.884   5.341   7.321 -1.3120 -0.6605  3.9300
   12MOL   H141 4783   5.038   5.281   7.351 -1.9128 -1.5962  1.1070
   12MOL   H142 4784   5.116   5.683   7.135  0.4135 -2.0590  0.9851
   12MOL   H143 4785   4.986   5.870   7.064 -1.2089  0.2083  0.2364
   12MOL   H144 4786   4.765   5.915   7.153 -0.8327 -1.2952 -0.7079
   12MOL   H145 4787   4.654   5.751   7.298 -0.5138 -2.1304 -0.9211
   12MOL   H146 4788   4.789   5.528   7.362 -2.4804  0.5764 -0.7881
   12MOL   H147 4789   4.914   5.193   7.649 -1.1482 -1.2122 -0.9101
   12MOL   H148 4790   4.995   5.142   7.499  3.3100 -0.6247 -0.2426
   12MOL   C149 4791   5.097   5.092   7.679 -0.0451  0.3452  0.0439
   12MOL   O150 4792   5.031   4.959   7.689  0.6618  0.0427 -0.0511
   12MOL   C151 4793   4.915   4.956   7.766  0.3187 -0.3320  0.1619
   12MOL   O152 4794   4.935   4.998   7.893 -0.1509  0.4338  0.0149
   12MOL   C153 4795   4.966   4.900   0.009  0.0816 -0.1312 -0.4969
   12MOL   C154 4796   5.030   4.783   7.950 -0.4398  0.1897 -0.3291
   12MOL   C155 4797   5.037   4.679   0.065 -0.3859 -0.2575 -0.2860
   12MOL   C156 4798   5.000   4.700   0.200 -0.6509  0.1159  0.3099
   12MOL   C157 4799   4.948   4.825   0.239  0.7090  0.7826  0.6836
   12MOL   C158 4800   4.924   4.923   0.142 -0.1086  0.3025  0.1811
   12MOL   C159 4801   5.230   5.051   7.618 -0.0550 -0.0115 -0.5863
   12MOL   H160 4802   5.123   5.143   7.771  1.0837  2.1912 -1.2641
   12MOL   H161 4803   4.839   5.024   7.728  0.6390  0.5652  1.1148
   12MOL   H162 4804   4.870   4.857   7.764  0.3571 -0.3415 -2.9881
   12MOL   H163 4805   5.059   4.758   7.849 -1.4090 -1.6341 -0.1915
   12MOL   H164 4806   5.062   4.578   0.038  1.4866  0.2597 -0.5741
   12MOL   H165 4807   5.008   4.622   0.274  2.8496  0.6402  0.5678
   12MOL   H166 4808   4.922   4.844   0.342 -1.0786 -2.3185  0.8765
   12MOL   H167 4809   4.884   5.019   0.172  0.5893  0.2083  1.4987
   12MOL   H168 4810   5.283   5.135   7.571 -0.2604 -0.5777 -1.8724
   12MOL   H169 4811   5.216   4.984   7.533  2.2618 -1.7124  0.3061
   12MOL   C170 4812   5.332   4.984   7.719 -0.5465  0.1723 -0.2967
   12MOL   O171 4813   5.445   4.928   7.639 -0.5463  0.1736  0.8193
   12MOL   C172 4814   5.438   4.795   7.615 -0.0256  0.3804 -0.2246
   12MOL   O173 4815   5.493   4.721   7.721  0.6715 -0.5434  0.6229
   12MOL   C174 4816   5.507   4.588   7.700  0.3756  0.2154 -0.2971
   12MOL   C175 4817   5.558   4.514   7.807  0.0254  0.0488 -0.2625
   12MOL   C176 4818   5.573   4.377   7.803 -0.5502  0.2543 -0.6143
   12MOL   C177 4819   5.523   4.306   7.688 -0.0054  0.1684 -0.5728
   12MOL   C178 4820   5.467   4.375   7.577  0.2256  0.4711  0.2272
   12MOL   C179 4821   5.454   4.513   7.588  0.3980 -0.4206  0.3298
   12MOL   C180 4822   5.402   5.086   7.812  0.2060 -0.1021 -0.3984
   12MOL   H181 4823   5.272   4.917   7.780  1.2013  0.8432  2.2694
   12MOL   H182 4824   5.499   4.769   7.529  0.6669  0.7883  0.1292
   12MOL   H183 4825   5.334   4.767   7.600 -0.0812  1.0219 -1.0474
   12MOL   H184 4826   5.593   4.574   7.890  0.0182 -0.0607 -0.1808
   12MOL   H185 4827   5.608   4.331   7.894  0.2899  3.7993  0.9500
   12MOL   H186 4828   5.510   4.199   7.675  0.5285 -0.0307  0.5084
   12MOL   H187 4829   5.443   4.319   7.487 -0.5184 -0.8237  1.2236
   12MOL   H188 4830   5.414   4.568   7.504  1.9137  1.3813  0.7416
   12MOL   H189 4831   5.454   5.158   7.749 -1.3892 -0.1773 -1.8537
   12MOL   H190 4832   5.334   5.161   7.853  0.5529 -0.6968  1.3081
   12MOL   C191 4833   5.483   5.029   7.939 -0.5735 -0.5424  0.2820
   12MOL   O192 4834   5.385   5.003   0.068 -0.7580  0.4374  0.1873
   12MOL   C193 4835   5.366   4.876   0.112  0.4882  0.5403  0.3126
   12MOL   O194 4836   5.480   4.825   0.175 -0.2773  0.0314  0.0435
   12MOL   C195 4837   5.478   4.686   0.188 -0.2034 -0.1007  0.2273
   12MOL   C196 4838   5.599   4.622   0.160 -0.0612 -0.2060 -0.0912
   12MOL   C197 4839   5.604   4.481   0.154 -0.6215 -1.1234  0.1664
   12MOL   C198 4840   5.492   4.404   0.179 -0.0674 -0.0974  0.6253
   12MOL   C199 4841   5.366   4.469   0.211 -0.0265  0.0390  0.0606
   12MOL   C200 4842   5.360   4.608   0.209  1.0738 -0.3266 -0.4910
   12MOL   C201 4843   5.591   5.116   0.025 -0.1021  0.0959 -0.4348
   12MOL   H202 4844   5.527   4.934   7.906  0.6091  0.2682 -0.5005
   12MOL   H203 4845   5.327   4.815   0.031 -0.2447  1.7121 -0.2347
   12MOL   H204 4846   5.289   4.873   0.189 -0.2784 -2.6556 -0.5107
   12MOL   H205 4847   5.687   4.683   0.144  0.2666 -1.6861 -4.4850
   12MOL   H206 4848   5.700   4.440   0.126  0.5370  1.5690  0.0262
   12MOL   H207 4849   5.494   4.297   0.167  2.0942 -0.1131  0.9365
   12MOL   H208 4850   5.278   4.408   0.219 -1.0301  1.4459 -0.0522
   12MOL   H209 4851   5.265   4.656   0.231  1.6401 -0.0039  1.3361
   12MOL   H210 4852   5.564   5.220   0.007  1.4939  0.8513  1.2294
   12MOL   H211 4853   5.593   5.096   0.132  0.5856 -0.9411 -0.6311
   12MOL   C212 4854   5.733   5.090   7.943 -0.1582 -0.0693  0.4983
   12MOL   O213 4855   5.734   5.132   7.806  0.1151 -0.0704 -0.2978
   12MOL   C214 4856   5.757   5.021   7.714  0.4047 -0.2025 -0.6459
   12MOL   O215 4857   5.884   4.963   7.720  0.1931 -0.2450  0.0997
   12MOL   C216 4858   5.990   5.027   7.659  0.3202  0.3840 -0.0540
   12MOL   C217 4859   6.100   4.946   7.623 -0.5164 -0.0124 -0.0957
   12MOL   C218 4860   6.221   4.997   7.569  0.1232  0.0980  0.3528
   12MOL   C219 4861   6.224   5.137   7.547  0.3991 -0.6792  0.6961
   12MOL   C220 4862   6.109   5.219   7.571 -0.2390 -0.2639  0.4210
   12MOL   C221 4863   5.991   5.167   7.630  0.0652  0.2374  0.4142
   12MOL   C222 4864   5.840   5.169   0.054  0.3929  0.5228  0.0608
   12MOL   H223 4865   5.752   4.983   7.954  0.2117 -0.3060 -2.1285
   12MOL   H224 4866   5.732   5.050   7.612 -1.3096 -0.1284 -0.2164
   12MOL   H225 4867   5.688   4.939   7.731  2.3578 -1.4366  1.6719
   12MOL   H226 4868   6.098   4.844   7.659 -1.9821  0.2750  0.6591
   12MOL   H227 4869   6.316   4.946   7.560 -0.4332 -0.5447 -2.7515
   12MOL   H228 4870   6.314   5.181   7.506 -1.9492  0.8687 -3.0732
   12MOL   H229 4871   6.102   5.327   7.568 -0.2857 -0.2423  1.2910
   12MOL   H230 4872   5.912   5.239   7.647 -2.1222 -1.7754 -0.7673
   12MOL   H231 4873   5.842   5.273   0.021 -0.1524  0.7094  0.6076
   12MOL   H232 4874   5.808   5.181   0.158 -0.3648  2.3567 -0.3651
   12MOL   C233 4875   5.988   5.118   0.053  0.2049  0.9733  0.7783
   12MOL   O234 4876   6.044   5.218   0.133  0.4190  0.0862 -0.0864
   12MOL   C235 4877   6.145   5.287   0.082 -0.1403 -0.2078 -0.0526
   12MOL   O236 4878   6.159   5.398   0.161  0.1063 -0.4897 -0.0198
   12MOL   C237 4879   6.209   5.381   0.292 -0.1820  0.2302 -0.1139
   12MOL   C238 4880   6.211   5.491   0.382  0.1793  0.1003  0.1568
   12MOL   C239 4881   6.242   5.484   0.519 -0.2499 -0.6102 -0.3774
   12MOL   C240 4882   6.283   5.359   0.571 -1.0854 -0.1488 -0.4471
   12MOL   C241 4883   6.289   5.253   0.482 -0.0181  0.2594  0.1615
   12MOL   C242 4884   6.248   5.258   0.347 -0.3020  0.5586 -0.5516
   12MOL   C243 4885   6.003   4.973   0.115 -0.1126  0.4174  0.4921
   12MOL   H244 4886   6.031   5.129   7.929  0.7332  0.0031  0.8908
   12MOL   H245 4887   6.117   5.315   7.956  0.4726 -2.0446 -0.7376
   12MOL   H246 4888   6.231   5.222   0.069 -2.0798 -2.4388 -2.3290
   12MOL   H247 4889   6.198   5.590   0.341 -2.1243 -0.6218 -0.9150
   12MOL   H248 4890   6.236   5.577   0.573 -1.5940 -0.6914 -0.3551
   12MOL   H249 4891   6.306   5.341   0.675  3.0568 -1.4377 -1.4844
   12MOL   H250 4892   6.312   5.159   0.529 -2.2715 -1.0670 -1.3356
   12MOL   H251 4893   6.254   5.179   0.274 -0.4840  0.3681 -0.3581
   12MOL   H252 4894   5.960   4.973   0.215 -0.0389 -1.6187  0.5486
   12MOL   H253 4895   5.952   4.898   0.054 -0.1920  0.5415  0.4062
   12MOL   C254 4896   6.145   4.916   0.116 -0.2725 -0.2322 -0.5487
   12MOL   O255 4897   6.139   4.781   0.165 -0.5093 -0.1340 -0.4662
   12MOL   C256 4898   6.079   4.748   0.286 -0.5291 -0.1986  0.3206
   12MOL   O257 4899   6.169   4.693   0.375 -0.3185 -0.1571 -0.4631
   12MOL   C258 4900   6.200   4.561   0.354 -0.2055  0.7960  0.1216
   12MOL   C259 4901   6.195   4.497   0.226  0.3201 -0.3898  0.2398
   12MOL   C260 4902   6.227   4.361   0.210 -0.1364  0.4581  0.2186
   12MOL   C261 4903   6.286   4.292   0.320  1.2829  0.0415  0.2241
   12MOL   C262 4904   6.310   4.361   0.439 -0.1494  0.6581 -0.3102
   12MOL   C263 4905   6.270   4.493   0.459  0.2689  0.0308 -0.4350
   12MOL   C264 4906   6.213   4.902   7.948 -0.3239  0.6848  0.8009
   12MOL   H265 4907   6.204   4.978   0.184  0.3619  1.0679 -2.2421
   12MOL   H266 4908   5.994   4.684   0.264 -0.4345 -0.0767 -0.4304
   12MOL   H267 4909   6.053   4.842   0.335  1.4484 -0.8128  2.6809
   12MOL   H268 4910   6.174   4.567   0.146  1.5971  0.4528  0.6342
   12MOL   H269 4911   6.224   4.305   0.118  0.6851 -0.6522  0.8608
   12MOL   H270 4912   6.329   4.194   0.310 -1.1973 -1.1993  1.2221
   12MOL   H271 4913   6.373   4.307   0.509 -0.5261 -0.9903 -1.2424
   12MOL   H272 4914   6.281   4.551   0.550  0.0610  1.3829 -1.2501
   12MOL   H273 4915   6.157   4.827   7.892 -0.2801  0.3267  1.2289
   12MOL   H274 4916   6.222   4.997   7.896 -0.9365  0.9292  1.1348
   12MOL   C275 4917   6.354   4.840   7.952  0.1729  0.0161 -0.1573
   12MOL   O276 4918   6.401   4.816   7.815 -0.0551  0.1323 -0.4388
   12MOL   C277 4919   6.378   4.687   7.760  0.4551  0.6103 -0.3388
   12MOL   O278 4920   6.466   4.589   7.813  0.1717  0.2444 -0.4227
   12MOL   C279 4921   6.447   4.456   7.783 -0.1430  0.0588  0.0033
   12MOL   C280 4922   6.355   4.412   7.684  0.5259 -0.2345  0.1277
   12MOL   C281 4923   6.345   4.277   7.650  0.2882  0.1306 -0.1362
   12MOL   C282 4924   6.407   4.177   7.727 -1.0441  0.5946 -0.0261
   12MOL   C283 4925   6.491   4.214   7.838  0.5767  0.0164 -0.3238
   12MOL   C284 4926   6.512   4.352   7.858  0.8095 -0.4895 -0.6039
   12MOL   C285 4927   6.463   4.937   0.032  0.1728 -0.2384  0.5439
   12MOL   H286 4928   6.347   4.742   0.023 -0.6565  0.1389 -0.0064
   12MOL   H287 4929   6.393   4.691   7.652 -0.3078 -2.6661 -0.6152
   12MOL   H288 4930   6.286   4.634   7.787  1.6014 -0.5183  1.4829
   12MOL   H289 4931   6.285   4.475   7.630  1.8209 -0.9474 -2.4634
   12MOL   H290 4932   6.274   4.246   7.575  0.5270 -1.1305  0.1483
   12MOL   H291 4933   6.396   4.071   7.707 -1.4146  0.4311  0.9970
   12MOL   H292 4934   6.542   4.136   7.892  0.6859 -0.2749 -0.8441
   12MOL   H293 4935   6.580   4.374   7.939 -2.0764 -2.1403  2.3804
   12MOL   H294 4936   6.420   5.018   0.092  0.6656  0.4814 -0.0729
   12MOL   H295 4937   6.508   4.995   7.927  0.7841 -0.5816  0.6402
   12MOL   C296 4938   6.578   4.861   0.102  0.1605 -0.7530  0.2017
   12MOL   O297 4939   6.528   4.764   0.188  0.5539 -0.0073  0.2730
   12MOL   C298 4940   6.476   4.804   0.309 -0.0956 -0.2472  0.4620
   12MOL   O299 4941   6.572   4.872   0.387  0.2865 -0.0261  0.9097
   12MOL   C300 4942   6.528   4.939   0.495 -0.3273 -0.5858 -0.1296
   12MOL   C301 4943   6.600   5.049   0.539 -0.3548 -0.0972 -0.1924
   12MOL   C302 4944   6.578   5.105   0.667 -0.1518 -0.5661  0.4675
   12MOL   C303 4945   6.476   5.053   0.747 -0.2016 -0.4448 -0.5128
   12MOL   C304 4946   6.391   4.954   0.696  0.0897  1.3623 -0.4802
   12MOL   C305 4947   6.413   4.901   0.565 -0.4997 -0.0782 -0.2410
   12MOL   C306 4948   6.673   4.791   7.974  0.5855 -0.1037 -0.1444
   12MOL   H307 4949   6.639   4.940   0.145 -0.2120  0.2573 -1.1022
   12MOL   H308 4950   6.443   4.716   0.364 -0.3703  0.1921  1.0106
   12MOL   H309 4951   6.386   4.864   0.296  0.6578  0.3559 -2.3814
   12MOL   H310 4952   6.684   5.083   0.480 -1.7065  2.0539 -0.9191
   12MOL   H311 4953   6.629   5.191   0.707 -1.0706 -0.3863  1.2390
   12MOL   H312 4954   6.459   5.095   0.845  1.6278  0.8192 -0.7239
   12MOL   H313 4955   6.319   4.904   0.759  1.7457 -0.3185  0.1233
   12MOL   H314 4956   6.349   4.821   0.529 -1.2783 -0.0756  1.1171
   12MOL   H315 4957   6.691   4.869   7.899 -1.1078  0.6575  0.2083
   12MOL   H316 4958   6.606   4.720   7.927  0.2106  0.5721 -0.6524
   12MOL   C317 4959   6.791   4.728   0.059  0.1942 -0.2223  1.1309
   12MOL   O318 4960   6.875   4.841   0.091 -0.3262 -0.0324 -0.3436
   12MOL   C319 4961   6.912   4.863   0.224 -0.1866 -0.5724 -0.5540
   12MOL   O320 4962   7.018   4.783   0.264 -0.5481 -0.0734  0.5356
   12MOL   C321 4963   7.066   4.810   0.388 -0.4900 -0.1378  0.1172
   12MOL   C322 4964   7.163   4.721   0.429 -0.3054  1.0742  0.1949
   12MOL   C323 4965   7.232   4.739   0.554  0.4861 -0.3335 -0.3609
   12MOL   C324 4966   7.194   4.855   0.629 -0.4042 -0.5504 -0.0407
   12MOL   C325 4967   7.092   4.939   0.592  0.6676 -0.0718  0.1941
   12MOL   C326 4968   7.030   4.921   0.474 -0.1211 -0.4284  0.1593
   12MOL   C327 4969   6.870   4.645   7.928  0.2003  0.1733  0.3347
   12MOL   H328 4970   6.760   4.670   0.146 -2.8152  1.8597  1.5307
   12MOL   H329 4971   6.821   4.856   0.284  0.1473  0.7377  0.1142
   12MOL   H330 4972   6.938   4.969   0.225  0.3691 -0.7097 -0.5603
   12MOL   H331 4973   7.185   4.634   0.368 -1.3528 -0.2084  1.6088
   12MOL   H332 4974   7.318   4.691   0.599  2.0801 -0.3767 -3.3737
   12MOL   H333 4975   7.239   4.881   0.724 -1.4047  4.2731 -0.7574
   12MOL   H334 4976   7.068   5.029   0.647 -2.5761  0.5390 -2.0741
   12MOL   H335 4977   6.953   4.992   0.448  0.5685  0.3790  0.3097
   12MOL   H336 4978   6.810   4.563   7.889 -1.4358  2.0232 -1.1306
   12MOL   H337 4979   6.878   4.700   7.834  0.0528 -2.4387 -1.2516
   12MOL   C338 4980   6.997   4.581   0.011 -0.7588  0.5867  0.3712
   12MOL   O339 4981   7.018   4.447   7.934 -0.0863 -0.3574 -0.0038
   12MOL   C340 4982   6.953   4.343   0.026  0.2627  0.3398  0.3895
   12MOL   O341 4983   7.027   4.289   0.133 -0.0961 -0.0711 -0.2170
   12MOL   C342 4984   7.114   4.182   0.114 -0.5696 -0.5542 -0.0942
   12MOL   C343 4985   7.165   4.152   7.961  0.1414 -0.5844 -0.7156
   12MOL   C344 4986   7.263   4.046   7.950  0.0884 -0.5644  0.4934
   12MOL   C345 4987   7.309   3.981   0.089  0.2141 -0.5021  0.0550
   12MOL   C346 4988   7.262   4.020   0.217 -0.0176 -0.6999  0.7598
   12MOL   C347 4989   7.166   4.121   0.230 -0.4593 -0.4173  0.0624
   12MOL   C348 4990   7.119   4.669   7.945  0.5921  0.3979 -0.1621
   12MOL   H349 4991   7.003   4.571   0.120  0.5620  1.1667  0.3607
   12MOL   H350 4992   6.943   4.260   7.931 -0.0699  0.0566  0.7731
   12MOL   H351 4993   6.853   4.379   0.050 -0.2819  0.0508 -1.3370
   12MOL   H352 4994   7.132   4.204   7.872 -3.5097  2.8962  2.4756
   12MOL   H353 4995   7.307   4.024   7.853 -0.9007  3.9974 -1.1246
   12MOL   H354 4996   7.381   3.902   0.080  0.1286 -0.6532  0.6684
   12MOL   H355 4997   7.295   3.963   0.302 -1.5993 -0.4039  1.5997
   12MOL   H356 4998   7.129   4.145   0.328  0.7088  1.1494  0.1516
   12MOL   H357 4999   7.100   4.767   0.013 -4.0961 -0.5048  0.1310
   12MOL   H358 5000   7.126   4.675   7.836  0.9303 -0.9883 -0.2236
   12MOL   C359 5001   7.257   4.624   0.019  0.0691 -0.6519  0.0625
   12MOL   O360 5002   7.349   4.731   7.972 -0.5221 -0.5186 -0.2336
   12MOL   C361 5003   7.361   4.813   0.105  0.8226 -0.6991 -0.3222
   12MOL   O362 5004   7.474   4.793   0.176 -0.0733  0.1636  0.5159
   12MOL   C363 5005   7.503   4.869   0.279 -0.2414 -0.3251  0.2181
   12MOL   C364 5006   7.638   4.881   0.324 -0.3559  0.5432  0.2093
   12MOL   C365 5007   7.675   4.971   0.426  0.4907  0.5707 -0.1312
   12MOL   C366 5008   7.579   5.050   0.488 -0.4855  0.1620 -0.0689
   12MOL   C367 5009   7.444   5.047   0.446  0.4996  0.0720  0.1237
   12MOL   C368 5010   7.407   4.945   0.351  0.2197 -0.4089  0.3177
   12MOL   C369 5011   7.312   4.503   7.923  0.0019 -0.1095 -0.9015
   12MOL   H370 5012   7.265   4.601   0.125  3.8168  3.4784  0.8347
   12MOL   H371 5013   7.267   4.811   0.161  1.2076 -1.5177  0.3032
   12MOL   H372 5014   7.365   4.913   0.064  0.8860 -1.3954 -2.0624
   12MOL   H373 5015   7.712   4.819   0.276 -2.5835 -1.3116 -0.9483
   12MOL   H374 5016   7.777   4.984   0.461  1.1307 -0.6809 -1.5021
   12MOL   H375 5017   7.606   5.116   0.569  0.9539  0.0359 -0.4306
   12MOL   H376 5018   7.363   5.112   0.477 -0.9168 -1.4648 -0.3261
   12MOL   H377 5019   7.304   4.942   0.320  0.3191 -1.1341  0.0643
   12MOL   H378 5020   7.296   4.503   7.815  1.3512  1.6702 -1.1196
   12MOL   H379 5021   7.252   4.421   7.962  1.3059 -0.2848  0.8095
   12MOL   C380 5022   7.459   4.454   7.966  0.1584  0.3269 -0.5810
   12MOL   O381 5023   7.535   4.425   7.847 -0.0305 -0.6761  0.0563
   12MOL   C382 5024   7.608   4.528   7.795  0.0364 -0.4700 -0.2616
   12MOL   O383 5025   7.716   4.581   7.871  0.4704  0.3227 -0.1872
   12MOL   C384 5026   7.839   4.539   7.827 -0.1628  0.0554 -0.1757
   12MOL   C385 5027   7.913   4.446   7.898  0.4571  0.2834 -0.7248
   12MOL   C386 5028   0.067   4.407   7.865 -0.0424 -0.4472  0.4751
   12MOL   C387 5029   0.128   4.473   7.759  0.5613 -0.1787 -0.2455
   12MOL   C388 5030   0.064   4.570   7.676  0.1266  0.0442 -0.2027
   12MOL   C389 5031   7.906   4.605   7.713  0.3851  0.1045 -0.2073
   12MOL   C390 5032   7.454   4.327   0.087  0.2298  0.2967 -0.1537
   12MOL   H391 5033   7.507   4.536   0.044  1.2022  1.0683 -2.5654
   12MOL   H392 5034   7.653   4.507   7.698  1.3282  0.7040  0.0596
   12MOL   H393 5035   7.543   4.612   7.770 -2.5491 -2.4687 -0.4137
   12MOL   H394 5036   7.872   4.397   0.009 -1.0619  0.0111 -1.5662
   12MOL   H395 5037   0.129   4.332   7.911 -0.7056 -3.0506 -2.6721
   12MOL   H396 5038   0.232   4.445   7.748  0.3976 -0.8270 -0.1581
   12MOL   H397 5039   0.115   4.605   7.587 -1.3483 -0.8988 -1.4502
   12MOL   H398 5040   7.847   4.673   7.653  1.7359  0.4850 -1.1124
   12MOL   H399 5041   7.428   4.238   0.031 -0.5817 -0.7807  1.8893
   12MOL   H400 5042   7.372   4.347   0.156  1.5191  1.0295  1.1938
   12MOL   C401 5043   7.576   4.293   0.175  0.2502 -0.4100  0.1665
   12MOL   O402 5044   7.599   4.396   0.265  0.1309  0.6023 -0.5523
   12MOL   C403 5045   7.696   4.488   0.235 -0.2974 -0.5198 -0.8470
   12MOL   O404 5046   7.819   4.458   0.292  0.6511  0.4031 -0.1522
   12MOL   C405 5047   7.927   4.540   0.275 -0.2276 -0.2233  0.7530
   12MOL   C406 5048   7.921   4.651   0.195  1.0436 -0.8679  0.1787
   12MOL   C407 5049   0.065   4.721   0.157 -0.3695  0.7576 -0.4724
   12MOL   C408 5050   0.193   4.685   0.214 -0.4340  0.2449  0.1005
   12MOL   C409 5051   0.199   4.565   0.289 -0.2930 -0.3127  0.2851
   12MOL   C410 5052   0.079   4.495   0.320 -0.9654 -0.3689 -0.0237
   12MOL   C411 5053   7.563   4.166   0.260  0.2402 -0.3492  0.6453
   12MOL   H412 5054   7.667   4.277   0.117  2.3056  2.6937  2.4103
   12MOL   H413 5055   7.671   4.584   0.280  3.1189  0.2250 -0.3745
   12MOL   H414 5056   7.707   4.510   0.129  1.8002 -2.0834 -0.9821
   12MOL   H415 5057   7.833   4.684   0.141  1.7521 -0.3154 -0.6290
   12MOL   H416 5058   0.064   4.811   0.097 -1.3169  1.6614  0.8838
   12MOL   H417 5059   0.284   4.735   0.185  0.7110 -1.4296  0.7174
   12MOL   H418 5060   0.289   4.525   0.332 -0.8185 -0.1764  1.5325
   12MOL   H419 5061   0.080   4.406   0.381  1.2248 -0.6125 -0.3683
   12MOL   H420 5062   7.565   4.070   0.209  0.0905  0.1373 -0.2829
   12MOL   H421 5063   7.466   4.174   0.308 -0.7377  0.2676 -1.3693
   12MOL   H422 5064   7.643   4.160   0.334  0.0914 -0.3415  0.8060
   13MOL     C1 5065   4.380   4.111   7.360 -0.0175 -0.5194  0.0031
   13MOL     O2 5066   4.306   4.037   7.456  0.2752 -0.2868 -0.1564
   13MOL     C3 5067   4.348   3.907   7.482 -0.2021  0.2367  0.5827
   13MOL     O4 5068   4.438   3.904   7.588 -0.6696  0.6917  0.7392
   13MOL     C5 5069   4.462   3.785   7.652 -0.3716 -0.1388 -0.6012
   13MOL     C6 5070   4.455   3.656   7.588 -0.5840 -0.1714  0.4326
   13MOL     C7 5071   4.466   3.538   7.662 -0.0531  0.7885  0.0119
   13MOL     C8 5072   4.506   3.553   7.795 -0.2850  0.3043  0.9692
   13MOL     C9 5073   4.525   3.681   7.855  0.0895  0.3036  0.2928
   13MOL    C10 5074   4.492   3.796   7.786  0.1277 -0.0673 -0.8417
   13MOL    C11 5075   4.527   4.129   7.397 -0.8984  0.4472  0.5169
   13MOL    H12 5076   4.372   4.074   7.258  1.0646 -1.4999  0.2591
   13MOL    H13 5077   4.253   3.862   7.510 -2.1778  4.7850  1.5792
   13MOL    H14 5078   4.384   3.852   7.395  0.9214  0.9516  0.5895
   13MOL    H15 5079   4.431   3.640   7.484  1.2996  0.9643 -0.1939
   13MOL    H16 5080   4.464   3.435   7.626 -2.0069  0.7252  0.2499
   13MOL    H17 5081   4.531   3.467   7.855  0.2704  0.7475  1.3853
   13MOL    H18 5082   4.550   3.673   7.959  0.7970 -0.3591  0.0761
   13MOL    H19 5083   4.499   3.890   7.840 -0.2174 -0.1961 -0.5669
   13MOL    H20 5084   4.580   4.044   7.354  1.8977  0.9494  2.8054
   13MOL    H21 5085   4.531   4.119   7.506  1.6772 -1.4636  0.2792
   13MOL    H22 5086   4.336   4.210   7.365 -0.8519 -0.9443  1.2529
   13MOL    C23 5087   4.594   4.266   7.380  0.7279  0.4112 -0.6876
   13MOL    O24 5088   4.626   4.285   7.243  0.6106 -0.5183  0.1938
   13MOL    C25 5089   4.548   4.386   7.190 -0.5070 -0.3199 -0.2268
   13MOL    O26 5090   4.560   4.509   7.258  0.0222  0.0264  0.3106
   13MOL    C27 5091   4.480   4.608   7.221  0.0617  0.1989 -0.9193
   13MOL    C28 5092   4.358   4.593   7.152  0.1519  0.1099  0.1061
   13MOL    C29 5093   4.279   4.712   7.119 -0.5440  0.7398  0.1072
   13MOL    C30 5094   4.317   4.840   7.168  0.6864 -0.0786 -0.1473
   13MOL    C31 5095   4.444   4.851   7.227  0.9165  0.2574  0.1890
   13MOL    C32 5096   4.527   4.732   7.259 -0.1935 -0.0612 -0.3675
   13MOL    C33 5097   4.727   4.292   7.463  0.5298 -0.3370 -0.8014
   13MOL    H34 5098   4.525   4.339   7.423 -0.7669 -1.7163  0.5837
   13MOL    H35 5099   4.443   4.356   7.192 -0.6102 -0.0067 -0.8308
   13MOL    H36 5100   4.570   4.393   7.083  0.3499 -1.9196 -0.1628
   13MOL    H37 5101   4.333   4.505   7.095  1.9308 -0.8569  0.7945
   13MOL    H38 5102   4.187   4.711   7.063 -0.2410  0.1454 -0.3910
   13MOL    H39 5103   4.253   4.925   7.149  2.2593  1.4240  1.0939
   13MOL    H40 5104   4.474   4.953   7.247 -3.7388  2.1900 -1.7601
   13MOL    H41 5105   4.623   4.739   7.307 -0.6956 -2.0028  0.9912
   13MOL    H42 5106   4.757   4.391   7.430 -2.1817  1.9851  3.2700
   13MOL    H43 5107   4.810   4.226   7.439  0.6067  0.1800 -2.0199
   13MOL    C44 5108   4.695   4.294   7.615  0.2114 -0.0113  0.6909
   13MOL    O45 5109   4.606   4.413   7.624  0.1691 -0.2513 -0.1179
   13MOL    C46 5110   4.512   4.405   7.718 -0.5285  0.6550 -0.0498
   13MOL    O47 5111   4.439   4.285   7.710 -0.2673  0.5381 -0.1762
   13MOL    C48 5112   4.338   4.262   7.801 -0.2170 -0.4761 -0.1246
   13MOL    C49 5113   4.283   4.356   7.890 -0.4253 -0.4998 -0.4479
   13MOL    C50 5114   4.194   4.317   0.016 -0.1427 -0.1209 -0.0662
   13MOL    C51 5115   4.142   4.190   0.020 -0.1034  0.3278  0.0400
   13MOL    C52 5116   4.193   4.092   7.905 -0.2174 -0.4838  0.1718
   13MOL    C53 5117   4.288   4.130   7.811  0.1955 -0.2503 -0.2462
   13MOL    C54 5118   4.816   4.334   7.698 -0.2241  0.7325  0.2251
   13MOL    H55 5119   4.650   4.204   7.657 -1.2675  0.3875 -0.0200
   13MOL    H56 5120   4.447   4.493   7.708  1.8129  2.2112 -2.0571
   13MOL    H57 5121   4.565   4.408   7.813  1.1609  0.3887 -0.9710
   13MOL    H58 5122   4.329   4.453   7.901 -0.5776 -0.4854  0.0954
   13MOL    H59 5123   4.162   4.394   0.084  2.2798 -0.4964  1.5400
   13MOL    H60 5124   4.055   4.173   0.081 -1.6178 -0.5229 -2.2807
   13MOL    H61 5125   4.153   3.992   7.902 -0.7619 -0.2593 -0.0351
   13MOL    H62 5126   4.327   4.057   7.741  1.0176  1.4682 -1.6286
   13MOL    H63 5127   4.865   4.416   7.646 -0.7415 -0.3053 -1.9359
   13MOL    H64 5128   4.785   4.365   7.798 -1.3250  0.9348 -0.1780
   13MOL    C65 5129   4.934   4.234   7.710  0.0373  0.1906 -0.6802
   13MOL    O66 5130   5.046   4.312   7.738  0.6573 -0.1500 -0.0207
   13MOL    C67 5131   5.157   4.278   7.668  0.2323  0.8765  0.1558
   13MOL    O68 5132   5.138   4.307   7.530 -0.1720  0.2573 -0.1354
   13MOL    C69 5133   5.105   4.438   7.489 -0.0776 -0.0193  0.7582
   13MOL    C70 5134   5.069   4.454   7.356  0.1359 -0.4691  0.3116
   13MOL    C71 5135   5.021   4.573   7.299 -0.1010  0.5143 -0.3323
   13MOL    C72 5136   5.008   4.682   7.383  0.0051 -0.5628 -0.3314
   13MOL    C73 5137   5.054   4.678   7.517 -0.3624 -0.2350 -0.2880
   13MOL    C74 5138   5.098   4.554   7.571 -0.4649 -0.0096  0.4009
   13MOL    C75 5139   4.912   4.128   7.825 -0.4049  0.0473 -0.0543
   13MOL    H76 5140   4.942   4.182   7.614  2.0361 -0.3296 -0.2619
   13MOL    H77 5141   5.161   4.170   7.679 -3.0550  0.4769 -1.6948
   13MOL    H78 5142   5.245   4.322   7.713  0.2406  2.5051 -1.3765
   13MOL    H79 5143   5.101   4.365   7.304 -1.1241  1.1043 -3.2905
   13MOL    H80 5144   4.998   4.587   7.194 -0.2359  0.1062 -0.3585
   13MOL    H81 5145   4.980   4.772   7.331 -1.1830 -0.2360  0.8673
   13MOL    H82 5146   5.050   4.758   7.589  1.2189  0.5516 -1.0485
   13MOL    H83 5147   5.131   4.560   7.674  1.7388 -2.4270 -0.1154
   13MOL    H84 5148   5.011   4.098   7.858  0.7268  2.9717 -0.6203
   13MOL    H85 5149   4.867   4.178   7.912  0.8093  0.7740  0.1659
   13MOL    C86 5150   4.829   4.003   7.790  0.4824  0.7603  0.8641
   13MOL    O87 5151   4.902   3.934   7.688 -0.3874 -0.2929 -0.0121
   13MOL    C88 5152   4.822   3.879   7.596  0.1461  0.0735 -0.2518
   13MOL    O89 5153   4.908   3.833   7.499  0.4490 -1.2044  0.0572
   13MOL    C90 5154   4.882   3.709   7.445  0.0011  0.3643 -0.5877
   13MOL    C91 5155   4.748   3.665   7.423  0.6436  0.2187  0.2109
   13MOL    C92 5156   4.726   3.536   7.367 -0.0708 -0.8083  0.0614
   13MOL    C93 5157   4.831   3.466   7.309 -0.3195 -0.1987  0.2801
   13MOL    C94 5158   4.960   3.515   7.323  0.4263  0.3861 -0.1052
   13MOL    C95 5159   4.987   3.632   7.393  0.7078 -0.4642  0.4737
   13MOL    C96 5160   4.806   3.912   7.913  0.2322 -0.0647 -0.2446
   13MOL    H97 5161   4.730   4.035   7.758 -0.0156  0.4172  2.0171
   13MOL    H98 5162   4.756   3.950   7.546  2.1131  2.3060  0.2062
   13MOL    H99 5163   4.766   3.794   7.636 -1.6634  1.6201  0.5745
   13MOL   H100 5164   4.666   3.728   7.456  2.0345  0.6034  3.1233
   13MOL   H101 5165   4.627   3.494   7.375 -0.8676  1.1708  1.1210
   13MOL   H102 5166   4.815   3.370   7.263  1.5745 -0.5797  0.3679
   13MOL   H103 5167   5.039   3.457   7.276  1.6191  0.9342  1.1740
   13MOL   H104 5168   5.089   3.666   7.395  1.4187 -2.5324  0.6311
   13MOL   H105 5169   4.745   3.830   7.877  0.6920 -0.5217  0.0124
   13MOL   H106 5170   4.905   3.880   7.944  0.1409  2.1455  2.4963
   13MOL   C107 5171   4.741   3.978   0.059  0.3697  0.4985 -0.4641
   13MOL   O108 5172   4.621   4.038   0.023  0.0219  0.4505 -0.4193
   13MOL   C109 5173   4.578   4.154   0.080  0.3498  0.6436  0.5040
   13MOL   O110 5174   4.669   4.260   0.064 -0.0593  0.6267 -0.1589
   13MOL   C111 5175   4.622   4.384   0.097 -0.2019  0.5675  0.3460
   13MOL   C112 5176   4.717   4.487   0.070  0.3532  0.3682 -0.4702
   13MOL   C113 5177   4.685   4.616   0.108  0.0340 -0.3834 -0.1418
   13MOL   C114 5178   4.567   4.644   0.173 -0.3543 -0.1700 -0.0768
   13MOL   C115 5179   4.465   4.540   0.193 -0.2696  0.3014  0.2724
   13MOL   C116 5180   4.500   4.409   0.162  0.4576 -0.0822 -0.2455
   13MOL   C117 5181   4.701   3.874   0.166  0.0239  0.0326  0.1416
   13MOL   H118 5182   4.812   4.048   0.105  1.5272 -0.7201 -0.3713
   13MOL   H119 5183   4.550   4.134   0.184  0.7481 -1.7522  0.1859
   13MOL   H120 5184   4.485   4.174   0.028  2.0029  3.3160 -1.5088
   13MOL   H121 5185   4.808   4.457   0.021  0.0065 -0.6144 -0.5152
   13MOL   H122 5186   4.758   4.693   0.092  1.4472 -1.1249  2.4617
   13MOL   H123 5187   4.559   4.744   0.213 -1.5340 -0.5177  0.5754
   13MOL   H124 5188   4.368   4.561   0.235 -0.5909 -1.2782  0.3369
   13MOL   H125 5189   4.427   4.333   0.186  2.2214 -1.6498  0.2972
   13MOL   H126 5190   4.670   3.791   0.102  1.1290  0.2644 -0.7096
   13MOL   H127 5191   4.621   3.909   0.231 -0.5345  0.2070 -0.6350
   13MOL   C128 5192   4.814   3.830   0.252 -0.1207  0.7167 -0.3588
   13MOL   O129 5193   4.851   3.704   0.197 -0.1849  0.7498  0.1005
   13MOL   C130 5194   4.987   3.678   0.204  0.2535  0.1495  0.1555
   13MOL   O131 5195   5.015   3.541   0.175 -0.2510  0.2620  0.2943
   13MOL   C132 5196   4.998   3.490   0.053  0.2506  0.4704 -0.1418
   13MOL   C133 5197   4.937   3.564   7.914  0.5159 -0.1325  0.3970
   13MOL   C134 5198   4.946   3.508   7.786 -0.1865 -0.5453  0.3677
   13MOL   C135 5199   4.995   3.379   7.764  0.4637 -0.1401  0.0785
   13MOL   C136 5200   5.046   3.316   7.876 -0.0455  0.5318 -0.5580
   13MOL   C137 5201   5.050   3.363   0.031 -0.8603 -0.1518  0.2470
   13MOL   C138 5202   4.786   3.821   0.408  0.4067 -0.4151 -0.2695
   13MOL   H139 5203   4.895   3.901   0.237  0.0893  0.5132 -0.1977
   13MOL   H140 5204   5.029   3.696   0.303  2.7914 -2.8312 -0.2681
   13MOL   H141 5205   5.056   3.732   0.139  2.4190 -2.2478  0.3585
   13MOL   H142 5206   4.900   3.663   7.933 -1.6556 -0.5459 -1.4560
   13MOL   H143 5207   4.909   3.559   7.698 -0.2565  0.3409  0.9038
   13MOL   H144 5208   4.988   3.338   7.665 -1.0809  0.1128  0.0590
   13MOL   H145 5209   5.098   3.223   7.858  0.0969  0.6637 -0.8353
   13MOL   H146 5210   5.095   3.303   0.109  0.9929 -1.6009 -1.8720
   13MOL   H147 5211   4.689   3.779   0.432  0.8988  0.0041  2.6540
   13MOL   H148 5212   4.869   3.761   0.445  0.3015  0.1103  0.8371
   13MOL   C149 5213   4.798   3.963   0.472 -0.0368 -0.0681 -0.2218
   13MOL   O150 5214   4.683   4.034   0.442 -0.2272  0.0140 -0.8721
   13MOL   C151 5215   4.695   4.168   0.436 -0.4785 -0.3168 -0.2029
   13MOL   O152 5216   4.694   4.231   0.563  0.7417 -0.7085  0.3009
   13MOL   C153 5217   4.701   4.370   0.574  0.2620 -0.1324  0.3937
   13MOL   C154 5218   4.669   4.414   0.706  0.1954 -0.0490  0.2232
   13MOL   C155 5219   4.657   4.554   0.725 -0.0238 -0.0861  1.6120
   13MOL   C156 5220   4.679   4.652   0.621  0.3122 -0.9456  0.1350
   13MOL   C157 5221   4.709   4.598   0.493  0.4958 -0.6698  0.3659
   13MOL   C158 5222   4.713   4.461   0.467 -0.1567  0.1339  0.0277
   13MOL   C159 5223   4.827   3.947   0.623  0.2528 -0.4773  0.2407
   13MOL   H160 5224   4.882   4.017   0.430 -0.1221  0.9615  0.8846
   13MOL   H161 5225   4.775   4.199   0.368  0.5223 -1.6592  0.3358
   13MOL   H162 5226   4.599   4.183   0.388  0.6289  0.4709 -2.2629
   13MOL   H163 5227   4.668   4.347   0.791  0.8565  2.3170  2.1414
   13MOL   H164 5228   4.640   4.581   0.828  1.6140  0.2436  1.8209
   13MOL   H165 5229   4.695   4.757   0.637 -0.1912 -1.2054  2.5811
   13MOL   H166 5230   4.713   4.652   0.400 -0.2175 -2.3333 -0.6402
   13MOL   H167 5231   4.720   4.420   0.368 -1.5430  0.6987 -0.3084
   13MOL   H168 5232   4.752   3.876   0.656  1.7021 -1.6572  1.0569
   13MOL   H169 5233   4.798   4.039   0.674  0.9443  0.2231 -0.6048
   13MOL   C170 5234   4.968   3.912   0.673 -0.2472 -0.0323 -0.5563
   13MOL   O171 5235   5.049   4.023   0.640 -0.0176 -0.0468 -0.4703
   13MOL   C172 5236   5.171   3.989   0.585 -0.7533  0.2564 -0.0725
   13MOL   O173 5237   5.158   3.935   0.460  0.5877 -0.0538 -0.6925
   13MOL   C174 5238   5.139   4.035   0.360  0.0195 -0.2090  1.4744
   13MOL   C175 5239   5.167   3.991   0.227 -0.0460 -0.3743 -0.1243
   13MOL   C176 5240   5.153   4.077   0.114  0.3917  0.4967 -0.3045
   13MOL   C177 5241   5.107   4.203   0.131  0.4089 -0.8038  0.4980
   13MOL   C178 5242   5.059   4.244   0.260  1.1149 -0.3478 -0.4945
   13MOL   C179 5243   5.087   4.161   0.375  0.3733 -0.2670 -0.1917
   13MOL   C180 5244   4.965   3.899   0.831  0.3731  0.8710  0.0291
   13MOL   H181 5245   5.005   3.820   0.628 -0.1326 -0.5071  0.4835
   13MOL   H182 5246   5.218   3.911   0.645 -0.3446  0.1350 -0.5511
   13MOL   H183 5247   5.237   4.075   0.583 -1.8760  1.1448  0.5387
   13MOL   H184 5248   5.205   3.890   0.215 -0.0342 -0.4409  0.4682
   13MOL   H185 5249   5.171   4.038   0.015 -0.7960 -0.1869 -0.2599
   13MOL   H186 5250   5.076   4.269   0.051 -0.7781 -1.4148  0.4279
   13MOL   H187 5251   5.012   4.341   0.267  1.7825 -0.0209 -0.4443
   13MOL   H188 5252   5.054   4.201   0.470  2.6700 -1.4245  1.1107
   13MOL   H189 5253   4.953   3.997   0.877 -0.7747  0.1741  1.2433
   13MOL   H190 5254   4.871   3.845   0.845  0.2660  0.3235 -2.5555
   13MOL   C191 5255   5.085   3.824   0.894 -0.4709 -0.9341 -0.1833
   13MOL   O192 5256   5.077   3.692   0.852  0.1726  0.1716  0.0358
   13MOL   C193 5257   5.195   3.629   0.855  0.2114  0.5858 -0.3975
   13MOL   O194 5258   5.282   3.667   0.759  0.1629 -0.2135  0.1460
   13MOL   C195 5259   5.256   3.632   0.627 -0.1908  0.5246  0.2700
   13MOL   C196 5260   5.359   3.677   0.542  0.0854 -0.5744 -0.1259
   13MOL   C197 5261   5.358   3.643   0.410 -0.9419 -0.2171 -0.4384
   13MOL   C198 5262   5.258   3.551   0.365  0.7294 -0.2298  0.2466
   13MOL   C199 5263   5.159   3.499   0.445  0.0461 -0.3396 -0.0160
   13MOL   C200 5264   5.151   3.547   0.578  0.1723 -0.1653 -0.0960
   13MOL   C201 5265   5.078   3.815   1.053  0.7863 -0.8329 -0.8538
   13MOL   H202 5266   5.168   3.880   0.851 -0.9805 -1.3698 -1.7545
   13MOL   H203 5267   5.169   3.523   0.853  1.3057  0.2911  0.2110
   13MOL   H204 5268   5.252   3.638   0.947  0.2228 -3.1328  0.0422
   13MOL   H205 5269   5.446   3.731   0.577 -0.2638  1.3210 -2.0912
   13MOL   H206 5270   5.441   3.675   0.349  0.3891  0.4632  1.6930
   13MOL   H207 5271   5.263   3.518   0.262  1.4534  1.1624 -0.1758
   13MOL   H208 5272   5.089   3.424   0.412 -1.1480  0.6466  0.2517
   13MOL   H209 5273   5.080   3.501   0.646  1.8947 -1.7826  0.6716
   13MOL   H210 5274   5.171   3.782   1.099  1.4224  1.2192 -0.6053
   13MOL   H211 5275   5.063   3.915   1.095 -0.1547 -1.0499 -0.6684
   13MOL   C212 5276   4.966   3.720   1.112  0.8162  0.5073  0.2259
   13MOL   O213 5277   5.018   3.584   1.130  0.1317  0.1329  0.2765
   13MOL   C214 5278   4.932   3.474   1.093 -0.1284  0.4928 -0.2623
   13MOL   O215 5279   5.009   3.365   1.052 -0.5862  0.0908 -0.3713
   13MOL   C216 5280   4.941   3.242   1.048  0.4850 -0.6037  0.0720
   13MOL   C217 5281   5.026   3.141   1.000 -0.1052  0.6416  0.0106
   13MOL   C218 5282   4.976   3.008   1.003 -0.5666 -0.2866 -0.2212
   13MOL   C219 5283   4.842   2.979   1.036 -0.3593  0.2861  0.7088
   13MOL   C220 5284   4.756   3.084   1.070 -0.4748  0.1490  0.3349
   13MOL   C221 5285   4.801   3.220   1.081  0.0944 -0.7037 -0.0599
   13MOL   C222 5286   4.916   3.767   1.246 -0.1390 -0.1894 -0.3657
   13MOL   H223 5287   4.892   3.727   1.032 -0.1607  3.6493  1.3217
   13MOL   H224 5288   4.871   3.505   1.008 -1.3307  1.2939  0.8749
   13MOL   H225 5289   4.867   3.466   1.180 -2.8330 -2.0996 -2.4027
   13MOL   H226 5290   5.126   3.165   0.968  0.5971 -0.5503  1.2732
   13MOL   H227 5291   5.045   2.932   0.971 -0.8682 -0.2128 -1.0658
   13MOL   H228 5292   4.803   2.878   1.041 -0.4362  0.2189 -0.9476
   13MOL   H229 5293   4.657   3.050   1.095  0.3664 -1.0204  2.1640
   13MOL   H230 5294   4.737   3.304   1.100  0.5751  0.0312 -1.5668
   13MOL   H231 5295   4.887   3.680   1.304 -1.3609 -1.5917 -3.0493
   13MOL   H232 5296   5.002   3.810   1.299  0.6270 -1.7264 -0.3508
   13MOL   C233 5297   4.802   3.870   1.251  0.1340  0.4831 -0.7243
   13MOL   O234 5298   4.702   3.800   1.181 -0.4323 -0.1370 -0.2526
   13MOL   C235 5299   4.630   3.879   1.090 -0.0267  0.3385  0.3979
   13MOL   O236 5300   4.575   3.989   1.151  0.7325  0.3049  0.0478
   13MOL   C237 5301   4.514   4.087   1.077  0.5655 -0.0862  0.0553
   13MOL   C238 5302   4.509   4.089   0.935 -0.1168  0.0841 -0.4166
   13MOL   C239 5303   4.451   4.190   0.860  0.8595  0.2454  0.2483
   13MOL   C240 5304   4.412   4.308   0.928  0.4888  0.3773  0.5722
   13MOL   C241 5305   4.421   4.314   1.066  0.0675  0.3926 -0.2350
   13MOL   C242 5306   4.466   4.201   1.138 -0.2322  0.5804  0.1115
   13MOL   C243 5307   4.750   3.900   1.399 -0.5215  0.2374 -0.2749
   13MOL   H244 5308   4.842   3.958   1.201  1.1825  0.0809 -0.5899
   13MOL   H245 5309   4.549   3.817   1.051  0.6180  0.4925 -1.2381
   13MOL   H246 5310   4.682   3.898   0.995 -1.8079 -2.8164 -1.2832
   13MOL   H247 5311   4.540   4.000   0.883  3.0280 -0.5766  2.4207
   13MOL   H248 5312   4.432   4.183   0.754  1.1157  0.8471  0.1650
   13MOL   H249 5313   4.381   4.394   0.872  2.4268  0.5455 -0.3010
   13MOL   H250 5314   4.398   4.407   1.117 -1.1665  1.3733 -2.4906
   13MOL   H251 5315   4.473   4.209   1.246  2.0257  0.1574  0.0250
   13MOL   H252 5316   4.654   3.950   1.385 -0.5957 -0.4009 -2.0657
   13MOL   H253 5317   4.725   3.804   1.445 -0.4208 -0.1395 -0.9984
   13MOL   C254 5318   4.839   3.985   1.491  0.5356 -1.0052 -1.0088
   13MOL   O255 5319   4.829   4.125   1.479 -0.4385  0.0782 -0.2065
   13MOL   C256 5320   4.892   4.195   1.379 -0.6496 -0.2899  0.3088
   13MOL   O257 5321   4.837   4.172   1.254 -0.4267  0.1849 -0.0451
   13MOL   C258 5322   4.891   4.249   1.149 -0.1700 -0.1339 -0.0045
   13MOL   C259 5323   4.985   4.360   1.160  0.9451  0.0507 -0.1691
   13MOL   C260 5324   5.024   4.430   1.043  0.0244  0.0743 -0.2582
   13MOL   C261 5325   4.987   4.378   0.920  0.2537 -0.3332  0.5859
   13MOL   C262 5326   4.899   4.261   0.911  0.2172 -0.9231  0.3004
   13MOL   C263 5327   4.844   4.209   1.023 -0.3183 -0.0679 -0.3875
   13MOL   C264 5328   4.809   3.962   1.647  0.1216 -0.1362 -0.1536
   13MOL   H265 5329   4.941   3.949   1.476  0.5312 -2.0366  1.3106
   13MOL   H266 5330   4.998   4.171   1.373 -0.1390  1.6721  1.1363
   13MOL   H267 5331   4.888   4.301   1.407 -1.5042 -0.4008  0.6192
   13MOL   H268 5332   5.011   4.397   1.258 -2.7363  0.2338  0.7881
   13MOL   H269 5333   5.099   4.505   1.061 -0.4653  0.3970  0.4785
   13MOL   H270 5334   5.031   4.414   0.828 -0.5702  2.4728  1.2332
   13MOL   H271 5335   4.857   4.230   0.817  0.9101 -0.4958 -0.1586
   13MOL   H272 5336   4.766   4.135   1.032 -0.7642  0.5913  1.2680
   13MOL   H273 5337   4.718   4.017   1.675  0.5908  0.4782  0.1814
   13MOL   H274 5338   4.767   3.863   1.663 -1.4969  0.4783 -0.3977
   13MOL   C275 5339   4.925   3.997   1.740 -0.5953 -0.1995  0.1590
   13MOL   O276 5340   4.872   3.993   1.877  0.5370 -0.2019  0.0634
   13MOL   C277 5341   4.890   4.115   1.949 -0.0137 -0.2034 -0.3970
   13MOL   O278 5342   5.025   4.131   1.985 -0.3938  0.2409 -0.2449
   13MOL   C279 5343   5.072   4.070   2.098 -0.1657 -0.8472  0.5317
   13MOL   C280 5344   5.205   4.093   2.133 -0.1680 -0.0482 -0.0467
   13MOL   C281 5345   5.258   4.045   2.254 -0.3213  0.4561 -0.1558
   13MOL   C282 5346   5.179   3.959   2.333  0.2352 -0.6172 -0.2422
   13MOL   C283 5347   5.053   3.921   2.288 -0.4247 -0.4941 -0.2754
   13MOL   C284 5348   4.998   3.975   2.176  0.0482 -0.2260  0.8031
   13MOL   C285 5349   5.037   3.890   1.743 -0.1042  0.1482 -0.5524
   13MOL   H286 5350   4.975   4.092   1.723  0.2678 -0.7774 -0.6109
   13MOL   H287 5351   4.823   4.116   2.036  0.3962  1.4028 -0.0729
   13MOL   H288 5352   4.868   4.207   1.894  0.6490 -0.3881 -0.9749
   13MOL   H289 5353   5.264   4.166   2.079 -1.4661  0.4961 -0.7465
   13MOL   H290 5354   5.359   4.075   2.281 -1.2702  3.5908  0.1157
   13MOL   H291 5355   5.218   3.930   2.430  2.1219  0.0312 -0.7975
   13MOL   H292 5356   4.991   3.850   2.341 -1.1267 -0.2310 -0.7424
   13MOL   H293 5357   4.899   3.946   2.143  0.2353 -0.8426  0.7741
   13MOL   H294 5358   4.988   3.803   1.699  2.9729 -1.2844 -1.2531
   13MOL   H295 5359   5.051   3.869   1.848 -4.9898 -2.2147 -0.2313
   13MOL   C296 5360   5.172   3.913   1.683 -0.1249 -0.0508 -1.0664
   13MOL   O297 5361   5.220   4.038   1.734  0.4455  0.0424 -0.9138
   13MOL   C298 5362   5.313   4.098   1.656  0.5964 -0.3787 -0.0099
   13MOL   O299 5363   5.264   4.168   1.541 -0.0602 -0.0754  0.4748
   13MOL   C300 5364   5.215   4.293   1.569  0.4180  0.9815 -0.4964
   13MOL   C301 5365   5.146   4.325   1.693  0.9048 -0.3163 -0.2704
   13MOL   C302 5366   5.100   4.456   1.712 -0.3753 -0.0167 -0.8629
   13MOL   C303 5367   5.106   4.542   1.607 -0.1940 -0.1589 -0.9341
   13MOL   C304 5368   5.175   4.519   1.488 -0.2693  0.4811 -0.3177
   13MOL   C305 5369   5.218   4.388   1.467 -0.9019  0.5906 -0.4445
   13MOL   C306 5370   5.280   3.799   1.700 -0.0506 -0.0592  0.1976
   13MOL   H307 5371   5.155   3.933   1.577  2.7423  4.2814 -0.8501
   13MOL   H308 5372   5.387   4.031   1.613  2.4550  0.0500  2.4169
   13MOL   H309 5373   5.361   4.168   1.725  1.7336 -1.8885  0.7754
   13MOL   H310 5374   5.127   4.248   1.767  1.4822  1.0589  1.3506
   13MOL   H311 5375   5.055   4.494   1.803  1.9564 -0.2805  0.4410
   13MOL   H312 5376   5.061   4.639   1.622 -1.6874 -0.8617 -0.7782
   13MOL   H313 5377   5.182   4.594   1.411 -0.1448 -1.5042 -2.2730
   13MOL   H314 5378   5.257   4.360   1.370 -0.4020  1.2184 -0.4251
   13MOL   H315 5379   5.297   3.769   1.803 -0.9539  0.2318  0.4289
   13MOL   H316 5380   5.381   3.833   1.676 -0.2178  0.9986  0.9856
   13MOL   C317 5381   5.257   3.659   1.622 -0.1162 -0.2049  0.6447
   13MOL   O318 5382   5.235   3.557   1.721  0.5795 -0.2548  0.0387
   13MOL   C319 5383   5.146   3.459   1.690  0.1978  1.1333  0.5203
   13MOL   O320 5384   5.023   3.503   1.655  0.4387 -0.0196 -0.4108
   13MOL   C321 5385   4.928   3.532   1.757 -1.0134 -0.0689  0.4422
   13MOL   C322 5386   4.943   3.515   1.896 -0.1527  0.6173 -0.0637
   13MOL   C323 5387   4.835   3.535   1.989 -0.9576 -0.3097  0.6457
   13MOL   C324 5388   4.709   3.561   1.937 -0.6240 -0.2653  0.4391
   13MOL   C325 5389   4.692   3.582   1.797 -0.2078  0.2150  0.3005
   13MOL   C326 5390   4.802   3.574   1.709 -0.6039  0.5696  0.3912
   13MOL   C327 5391   5.382   3.611   1.537 -0.2163 -0.2891 -0.2735
   13MOL   H328 5392   5.176   3.658   1.550  0.6949  0.6137 -0.2938
   13MOL   H329 5393   5.131   3.402   1.782  1.3700  1.0563  0.6613
   13MOL   H330 5394   5.185   3.387   1.618 -0.4064  1.9475 -0.6463
   13MOL   H331 5395   5.040   3.482   1.930  0.5772 -0.3778 -3.0061
   13MOL   H332 5396   4.842   3.520   2.096  1.3960  1.6733  0.8232
   13MOL   H333 5397   4.626   3.570   2.005  0.4008  1.5514  1.4883
   13MOL   H334 5398   4.596   3.613   1.760 -0.9822 -2.5595 -0.1041
   13MOL   H335 5399   4.789   3.577   1.601 -0.2407 -2.9365  0.1876
   13MOL   H336 5400   5.479   3.617   1.586  0.2889 -0.8197 -1.1864
   13MOL   H337 5401   5.364   3.505   1.518 -0.0698 -0.6013  1.2607
   13MOL   C338 5402   5.398   3.684   1.397  0.2539 -0.5239 -0.3199
   13MOL   O339 5403   5.413   3.825   1.423  0.7250  0.2856  0.2345
   13MOL   C340 5404   5.347   3.917   1.333 -0.7764  0.2395 -0.0117
   13MOL   O341 5405   5.387   3.897   1.193 -0.4833 -0.7395 -0.5180
   13MOL   C342 5406   5.371   3.989   1.096 -0.8926  0.0815  0.0733
   13MOL   C343 5407   5.417   3.955   0.969 -1.0275 -0.6457  0.2875
   13MOL   C344 5408   5.410   4.043   0.861  0.2033 -0.3216  0.0802
   13MOL   C345 5409   5.347   4.172   0.883  0.3202  0.4539 -0.1736
   13MOL   C346 5410   5.299   4.205   1.012 -0.3463 -0.4998  0.8992
   13MOL   C347 5411   5.314   4.116   1.118  0.3395 -0.4626 -0.4596
   13MOL   C348 5412   5.521   3.639   1.315  0.2110 -0.2824 -0.6538
   13MOL   H349 5413   5.307   3.667   1.339  0.7994 -5.1054 -0.0136
   13MOL   H350 5414   5.362   4.021   1.364 -2.2518  0.2641  0.6562
   13MOL   H351 5415   5.239   3.909   1.340 -0.8787  1.1906 -0.4163
   13MOL   H352 5416   5.439   3.852   0.947 -2.5760 -1.3880  2.0685
   13MOL   H353 5417   5.440   4.016   0.761  2.4969 -1.0434  0.9190
   13MOL   H354 5418   5.319   4.237   0.801 -1.1133  0.3143  0.1866
   13MOL   H355 5419   5.258   4.301   1.036  1.5734  0.3876  0.7477
   13MOL   H356 5420   5.289   4.154   1.216 -0.7603 -1.1427 -0.4642
   13MOL   H357 5421   5.607   3.616   1.378  0.7383 -1.7967 -1.9105
   13MOL   H358 5422   5.545   3.727   1.256  0.5659 -0.0501 -0.1667
   13MOL   C359 5423   5.489   3.529   1.212  0.8660 -0.4271  0.3872
   13MOL   O360 5424   5.441   3.413   1.278 -0.3079  0.2817  0.1337
   13MOL   C361 5425   5.375   3.319   1.193 -0.1626 -0.3038 -0.0366
   13MOL   O362 5426   5.332   3.211   1.268 -0.1441  0.8541  0.3160
   13MOL   C363 5427   5.206   3.212   1.326 -0.0141 -0.0890  0.5055
   13MOL   C364 5428   5.118   3.328   1.329 -0.3506  0.3824  0.2561
   13MOL   C365 5429   4.981   3.313   1.373  0.0374 -0.0175 -0.5508
   13MOL   C366 5430   4.934   3.186   1.415  0.8214 -0.9910  0.0357
   13MOL   C367 5431   5.022   3.077   1.421 -0.2948  0.5437 -1.1018
   13MOL   C368 5432   5.151   3.088   1.360 -0.8395 -0.2866 -0.1890
   13MOL   C369 5433   5.619   3.491   1.133  0.4559 -0.0793 -0.1142
   13MOL   H370 5434   5.414   3.577   1.149  1.7210 -0.9654 -1.0488
   13MOL   H371 5435   5.437   3.261   1.124  0.4584  2.4640 -1.8973
   13MOL   H372 5436   5.295   3.366   1.137 -1.7359 -3.0789 -0.2007
   13MOL   H373 5437   5.151   3.428   1.308  0.7947 -0.4298 -1.9406
   13MOL   H374 5438   4.918   3.400   1.378 -1.1330 -0.9401  1.5431
   13MOL   H375 5439   4.836   3.173   1.460  1.4070  1.2137  2.0874
   13MOL   H376 5440   4.990   2.979   1.452  0.5353  1.1589  1.8148
   13MOL   H377 5441   5.210   2.998   1.351  0.5449  0.5010  0.9264
   13MOL   H378 5442   5.625   3.386   1.104  0.3920 -0.3812  0.9376
   13MOL   H379 5443   5.700   3.486   1.206 -0.8314 -0.1958  1.3272
   13MOL   C380 5444   5.650   3.580   1.009 -0.2637 -0.3188  0.1519
   13MOL   O381 5445   5.554   3.566   0.902 -0.2364 -0.1316 -0.0623
   13MOL   C382 5446   5.538   3.445   0.830  0.1586  0.1804 -0.1259
   13MOL   O383 5447   5.476   3.343   0.907 -0.2365 -0.0209 -0.3931
   13MOL   C384 5448   5.393   3.250   0.845  0.1196 -0.8760  1.0934
   13MOL   C385 5449   5.315   3.272   0.725  0.2095  0.2409 -0.2766
   13MOL   C386 5450   5.245   3.161   0.663 -0.2057 -0.0944 -0.4961
   13MOL   C387 5451   5.254   3.033   0.713 -0.3429 -0.0538 -0.6904
   13MOL   C388 5452   5.336   3.009   0.830  0.0358  0.2499  0.1724
   13MOL   C389 5453   5.408   3.119   0.896 -0.0819 -0.6571 -0.4935
   13MOL   C390 5454   5.795   3.565   0.966  0.5881 -0.2337 -0.3289
   13MOL   H391 5455   5.651   3.687   1.031  1.1898 -0.4253  0.6939
   13MOL   H392 5456   5.468   3.473   0.752  1.3321  0.9407 -0.9062
   13MOL   H393 5457   5.633   3.420   0.783  0.3527  2.0893 -0.8039
   13MOL   H394 5458   5.307   3.374   0.691 -2.0630  0.1251 -0.1672
   13MOL   H395 5459   5.193   3.184   0.572  0.5847  0.8735 -0.7189
   13MOL   H396 5460   5.202   2.950   0.667 -0.6730  0.0062 -0.4254
   13MOL   H397 5461   5.343   2.909   0.871 -1.7049 -0.3452 -0.8887
   13MOL   H398 5462   5.475   3.111   0.980 -0.8071 -1.1316  0.0378
   13MOL   H399 5463   5.806   3.460   0.939  2.0336  0.7654 -3.9843
   13MOL   H400 5464   5.859   3.578   1.053  0.3261  0.4735 -0.2385
   13MOL   C401 5465   5.840   3.659   0.858  0.3227 -0.0453 -0.4252
   13MOL   O402 5466   5.859   3.778   0.929  0.1686  0.1810  0.4618
   13MOL   C403 5467   5.831   3.898   0.867 -0.1465 -0.6952 -0.6470
   13MOL   O404 5468   5.905   3.910   0.745  0.0284 -0.2963  0.1064
   13MOL   C405 5469   6.033   3.961   0.748  0.1598  0.8299  0.1105
   13MOL   C406 5470   6.086   3.990   0.622  0.3689 -0.0329  0.1825
   13MOL   C407 5471   6.211   4.055   0.604 -0.2519  0.8419  0.6281
   13MOL   C408 5472   6.281   4.097   0.717 -1.1414  0.7324  0.4899
   13MOL   C409 5473   6.233   4.061   0.843  0.7802 -0.6467 -0.0636
   13MOL   C410 5474   6.106   3.998   0.862  0.1543 -0.0736  0.1452
   13MOL   C411 5475   5.981   3.625   0.810  0.3243 -0.2677 -0.0947
   13MOL   H412 5476   5.771   3.668   0.774 -0.4347 -0.3090  0.1663
   13MOL   H413 5477   5.840   3.986   0.931  0.9856 -0.9508 -0.4399
   13MOL   H414 5478   5.728   3.902   0.831  0.0212  2.9726 -0.9291
   13MOL   H415 5479   6.037   3.969   0.528  1.0758 -1.8310  0.1927
   13MOL   H416 5480   6.246   4.079   0.504 -1.5363  3.6481  0.7818
   13MOL   H417 5481   6.377   4.145   0.711 -1.1956  1.0733  2.2363
   13MOL   H418 5482   6.296   4.087   0.927  0.4714 -0.7915  0.2151
   13MOL   H419 5483   6.068   3.963   0.957  0.6663  2.4810  1.3408
   13MOL   H420 5484   5.977   3.536   0.746 -0.8272 -1.1787  1.1965
   13MOL   H421 5485   6.048   3.608   0.894  1.1946  1.4566 -0.4347
   13MOL   H422 5486   6.039   3.683   0.739  1.4388 -2.6344 -1.1882
   14MOL     C1 5487   1.002   4.750   7.443 -0.6863 -0.1731 -0.7865
   14MOL     O2 5488   1.108   4.702   7.514 -0.2162  0.0598  0.2798
   14MOL     C3 5489   1.157   4.790   7.612 -0.2557  0.4993  0.9113
   14MOL     O4 5490   1.190   4.911   7.556 -0.3771 -0.1215 -0.2256
   14MOL     C5 5491   1.295   4.919   7.470 -0.4287  0.2407 -0.0588
   14MOL     C6 5492   1.365   4.808   7.411  0.0199  0.3066 -0.2286
   14MOL     C7 5493   1.464   4.836   7.310 -0.4892 -0.6805 -0.1336
   14MOL     C8 5494   1.492   4.965   7.268  0.0897 -0.1336  0.0956
   14MOL     C9 5495   1.430   5.072   7.332  0.0472 -0.4159 -0.2535
   14MOL    C10 5496   1.321   5.054   7.429 -0.1394  0.3804 -0.7740
   14MOL    C11 5497   0.932   4.628   7.387 -0.2102  0.0905  0.0644
   14MOL    H12 5498   0.932   4.791   7.516  1.2691 -0.1280  1.1082
   14MOL    H13 5499   1.080   4.807   7.688  0.0659  0.5542  1.2254
   14MOL    H14 5500   1.247   4.741   7.649 -0.5583 -0.6808  0.1104
   14MOL    H15 5501   1.342   4.705   7.433 -0.3787  0.5510  0.4999
   14MOL    H16 5502   1.522   4.759   7.261  0.5342  0.5302 -0.8665
   14MOL    H17 5503   1.562   4.996   7.192 -2.6648  2.9679 -1.2658
   14MOL    H18 5504   1.457   5.175   7.312  0.0954 -0.0901  1.3822
   14MOL    H19 5505   1.264   5.135   7.471  1.4663  0.4785  1.3357
   14MOL    H20 5506   0.825   4.645   7.374 -0.2539 -0.2915 -0.0968
   14MOL    H21 5507   0.943   4.553   7.465  0.8639  0.5031  0.3215
   14MOL    H22 5508   1.024   4.826   7.368  1.6582 -2.0629 -2.0691
   14MOL    C23 5509   0.977   4.581   7.251  0.1922  0.1718  0.3602
   14MOL    O24 5510   0.922   4.669   7.153 -0.1866 -0.1215  0.5534
   14MOL    C25 5511   1.006   4.712   7.052  0.0290  0.5293 -0.0732
   14MOL    O26 5512   1.044   4.602   6.973  0.1863  0.2280 -0.0224
   14MOL    C27 5513   0.951   4.563   6.875 -0.3702  0.4603  0.4909
   14MOL    C28 5514   0.811   4.571   6.900 -0.0673  0.8450  0.0506
   14MOL    C29 5515   0.724   4.514   6.809 -0.0899  0.5252 -0.1251
   14MOL    C30 5516   0.773   4.447   6.691 -0.3244 -0.7092 -0.2034
   14MOL    C31 5517   0.911   4.436   6.663 -0.5700  0.2321  0.3184
   14MOL    C32 5518   0.999   4.490   6.760  0.2122 -0.1674  0.0911
   14MOL    C33 5519   0.954   4.421   7.236 -0.6218 -0.0301  0.3238
   14MOL    H34 5520   1.085   4.600   7.254  0.2782 -0.1243 -0.6732
   14MOL    H35 5521   1.093   4.761   7.095  2.1640 -2.4271 -0.8899
   14MOL    H36 5522   0.953   4.770   6.977  1.6941  0.2557 -1.4687
   14MOL    H37 5523   0.772   4.618   6.989 -0.6709 -0.9204  0.7524
   14MOL    H38 5524   0.617   4.513   6.818 -0.0914 -0.4493 -0.1765
   14MOL    H39 5525   0.695   4.416   6.623 -2.9192 -0.7024  2.6944
   14MOL    H40 5526   0.945   4.384   6.575  2.0267  1.0766  0.7797
   14MOL    H41 5527   1.107   4.486   6.746  0.1474 -1.8030 -0.0765
   14MOL    H42 5528   0.924   4.399   7.134  0.3654 -0.7276  0.1780
   14MOL    H43 5529   0.873   4.384   7.299 -0.3612 -1.6849 -0.3168
   14MOL    C44 5530   1.079   4.335   7.249  0.2407 -0.1024 -0.3764
   14MOL    O45 5531   1.028   4.200   7.237  0.1796 -0.1797 -0.4199
   14MOL    C46 5532   1.063   4.119   7.124  0.1491  0.0958 -0.4817
   14MOL    O47 5533   1.196   4.086   7.112 -0.4766  0.4664 -0.0425
   14MOL    C48 5534   1.246   3.995   7.207 -0.6684  1.3935 -0.6637
   14MOL    C49 5535   1.173   3.946   7.317 -0.6351 -0.2459 -0.8964
   14MOL    C50 5536   1.230   3.865   7.419 -0.0797 -0.0088  0.0371
   14MOL    C51 5537   1.357   3.809   7.391  0.3247  1.1055 -0.3193
   14MOL    C52 5538   1.436   3.856   7.284 -0.1171 -0.3797  0.5121
   14MOL    C53 5539   1.375   3.946   7.192  0.4786  0.0495  0.4239
   14MOL    C54 5540   1.144   4.346   7.384 -0.2531 -0.1784  0.4745
   14MOL    H55 5541   1.141   4.364   7.164  2.5543 -0.0350  1.2909
   14MOL    H56 5542   1.038   4.178   7.036  0.0615 -2.8997 -2.5383
   14MOL    H57 5543   1.001   4.030   7.139 -1.2788  1.4500  2.1403
   14MOL    H58 5544   1.076   3.990   7.332  0.5329  2.4154 -0.7095
   14MOL    H59 5545   1.174   3.827   7.503 -0.2108 -1.2070 -0.5847
   14MOL    H60 5546   1.413   3.755   7.465 -1.3019 -0.1454  0.0232
   14MOL    H61 5547   1.530   3.810   7.261 -1.1226 -2.1808 -0.0817
   14MOL    H62 5548   1.439   3.977   7.111  0.9695 -1.5696  0.1704
   14MOL    H63 5549   1.136   4.444   7.431  0.3504 -0.3819  1.0058
   14MOL    H64 5550   1.100   4.275   7.454  0.6156 -1.1580  0.0526
   14MOL    C65 5551   1.292   4.309   7.381 -0.5651  0.0628  0.6313
   14MOL    O66 5552   1.356   4.408   7.302  0.1024 -0.0720 -0.4513
   14MOL    C67 5553   1.422   4.383   7.185  0.4857  0.0807 -0.1655
   14MOL    O68 5554   1.488   4.485   7.132 -0.2798 -0.4688  0.2525
   14MOL    C69 5555   1.619   4.501   7.179  0.6669  0.0230 -1.0837
   14MOL    C70 5556   1.730   4.482   7.096 -0.8046 -0.3414 -0.3066
   14MOL    C71 5557   1.861   4.502   7.140 -0.2803  0.3151 -0.8027
   14MOL    C72 5558   1.880   4.540   7.271  0.0822 -1.1388  0.0489
   14MOL    C73 5559   1.769   4.549   7.356 -0.0421  0.6190 -0.2228
   14MOL    C74 5560   1.633   4.533   7.317 -0.5805  0.1059 -0.4408
   14MOL    C75 5561   1.347   4.350   7.520 -0.8858 -0.5204  0.6026
   14MOL    H76 5562   1.318   4.207   7.355  1.2941  0.9627 -1.1626
   14MOL    H77 5563   1.353   4.344   7.111  0.0842  0.3860  0.0491
   14MOL    H78 5564   1.482   4.292   7.196  0.1804 -0.3893 -2.3059
   14MOL    H79 5565   1.716   4.446   6.995  0.2375  0.2236 -0.6602
   14MOL    H80 5566   1.942   4.495   7.069  1.2630 -0.9135  1.0247
   14MOL    H81 5567   1.977   4.569   7.308  0.1497 -2.7526  1.1850
   14MOL    H82 5568   1.785   4.575   7.460 -1.6746 -0.4607  0.3319
   14MOL    H83 5569   1.555   4.547   7.390 -1.4500 -1.3027 -1.0710
   14MOL    H84 5570   1.454   4.329   7.523 -0.5687  0.9163 -0.4293
   14MOL    H85 5571   1.352   4.459   7.520  2.6488 -0.6185  1.8573
   14MOL    C86 5572   1.300   4.266   7.653  0.0984  0.1423  0.4866
   14MOL    O87 5573   1.403   4.168   7.689 -0.4180 -0.8985 -0.0691
   14MOL    C88 5574   1.392   4.047   7.628  0.4483 -0.7807  0.3578
   14MOL    O89 5575   1.306   3.962   7.697  0.2141  0.4521  0.6189
   14MOL    C90 5576   1.352   3.889   7.810  0.8547 -0.0217  0.0087
   14MOL    C91 5577   1.283   3.772   7.845 -0.1816  0.8748 -0.2400
   14MOL    C92 5578   1.317   3.696   7.958  0.2144 -0.4315 -0.7981
   14MOL    C93 5579   1.419   3.742   0.062 -0.3017 -0.6973 -0.2561
   14MOL    C94 5580   1.494   3.861   0.025  0.9839  0.1016 -0.0741
   14MOL    C95 5581   1.458   3.941   7.894  0.5147  0.4817 -0.3256
   14MOL    C96 5582   1.288   4.356   7.772  0.1314 -0.8605 -0.1774
   14MOL    H97 5583   1.203   4.224   7.626 -0.2442  1.3361 -0.1738
   14MOL    H98 5584   1.485   3.991   7.623  1.4243  0.9263 -0.8287
   14MOL    H99 5585   1.353   4.072   7.529 -0.6841  2.5121  1.5881
   14MOL   H100 5586   1.207   3.729   7.781 -0.9713  1.7000  0.1281
   14MOL   H101 5587   1.247   3.615   0.000 -0.3486  0.0940 -0.5710
   14MOL   H102 5588   1.454   3.677   0.141 -0.1796  0.9115  1.0498
   14MOL   H103 5589   1.572   3.901   0.088 -0.1208  0.0815  1.3361
   14MOL   H104 5590   1.510   4.032   7.868  0.0957  0.6489 -0.5690
   14MOL   H105 5591   1.379   4.352   7.833  0.7239  0.8796 -0.9350
   14MOL   H106 5592   1.281   4.462   7.751 -0.2008 -0.4670  1.8464
   14MOL   C107 5593   1.172   4.315   7.869  0.0989  0.1637 -0.0810
   14MOL   O108 5594   1.049   4.322   7.796 -0.0906 -0.0932 -0.0334
   14MOL   C109 5595   1.016   4.446   7.729 -1.0075  0.4222 -0.4144
   14MOL   O110 5596   0.880   4.466   7.696  0.3200 -0.2933 -0.2882
   14MOL   C111 5597   0.783   4.484   7.795 -0.2218  0.6458  0.0978
   14MOL   C112 5598   0.803   4.503   7.933 -0.2804  0.4737 -0.0295
   14MOL   C113 5599   0.692   4.516   0.045 -0.2764  0.1145 -0.3373
   14MOL   C114 5600   0.562   4.510   7.968 -0.2687  0.2366 -0.7279
   14MOL   C115 5601   0.546   4.490   7.830  0.3150  0.6504  0.0164
   14MOL   C116 5602   0.653   4.478   7.749 -0.4690 -0.2381 -0.1188
   14MOL   C117 5603   1.184   4.175   7.935 -0.1033 -0.2955 -0.0823
   14MOL   H118 5604   1.168   4.389   7.948 -0.3430 -1.5651  1.5552
   14MOL   H119 5605   1.068   4.449   7.633  0.5192 -1.3697  0.3334
   14MOL   H120 5606   1.056   4.530   7.787 -0.3008  1.3902 -2.2662
   14MOL   H121 5607   0.903   4.517   7.971 -0.5632 -0.1160  0.9483
   14MOL   H122 5608   0.709   4.528   0.151 -0.0520  1.8336 -0.5658
   14MOL   H123 5609   0.466   4.525   0.040  0.3505 -2.4430  1.5424
   14MOL   H124 5610   0.449   4.474   7.785  0.0269  1.6412  0.2797
   14MOL   H125 5611   0.638   4.470   7.642  0.6517  0.9915 -0.3819
   14MOL   H126 5612   1.288   4.145   7.928  0.0948  0.3471  0.0267
   14MOL   H127 5613   1.136   4.103   7.869 -1.5231  1.7700 -1.3616
   14MOL   C128 5614   1.110   4.148   0.096  0.6101 -0.1039 -0.2174
   14MOL   O129 5615   1.146   4.030   0.158  0.0575 -0.1650 -0.0308
   14MOL   C130 5616   1.262   4.022   0.239 -0.2322  0.7350 -0.3451
   14MOL   O131 5617   1.238   4.078   0.370 -0.1719  0.0798  0.5044
   14MOL   C132 5618   1.147   4.025   0.453  0.3446 -0.2217  0.4389
   14MOL   C133 5619   1.056   3.923   0.421 -0.3620 -0.5152 -0.4472
   14MOL   C134 5620   0.969   3.868   0.521 -0.1938 -1.4960 -0.1998
   14MOL   C135 5621   0.964   3.928   0.648  0.4496  0.3143  0.0114
   14MOL   C136 5622   1.053   4.027   0.679  0.0213  0.4334 -0.0555
   14MOL   C137 5623   1.148   4.070   0.588 -0.1853  0.5797  0.4083
   14MOL   C138 5624   0.954   4.152   0.081  0.7408 -0.1717  0.0510
   14MOL   H139 5625   1.132   4.230   0.165  0.7110  0.9204 -1.4330
   14MOL   H140 5626   1.341   4.078   0.189  0.4813  1.5770  1.6609
   14MOL   H141 5627   1.289   3.917   0.240 -2.5687  0.1038 -0.5193
   14MOL   H142 5628   1.048   3.891   0.318 -0.2128  0.7305 -0.8510
   14MOL   H143 5629   0.897   3.792   0.492 -0.7441 -0.6340 -1.1360
   14MOL   H144 5630   0.892   3.882   0.713 -0.5831 -2.5495 -3.0227
   14MOL   H145 5631   1.052   4.069   0.778 -1.2580 -1.4788  0.7701
   14MOL   H146 5632   1.226   4.137   0.619  0.9123 -0.4137 -0.1569
   14MOL   H147 5633   0.932   4.237   0.016 -0.5155 -1.4708 -1.2572
   14MOL   H148 5634   0.910   4.073   0.020 -0.3844  0.7071 -0.3043
   14MOL   C149 5635   0.881   4.177   0.215  1.1081  0.1028  0.6735
   14MOL   O150 5636   0.902   4.313   0.259 -0.0046 -0.0853  0.6763
   14MOL   C151 5637   0.887   4.338   0.395 -0.3596  0.2920  0.6095
   14MOL   O152 5638   0.923   4.470   0.421 -0.3640 -0.4256 -0.2699
   14MOL   C153 5639   0.898   4.519   0.551  0.0602 -0.0964  1.1315
   14MOL   C154 5640   0.844   4.651   0.559 -0.1505 -0.9068  0.0370
   14MOL   C155 5641   0.820   4.709   0.686  0.0823 -0.1360 -0.5084
   14MOL   C156 5642   0.837   4.628   0.799 -0.1227  0.2864  0.1869
   14MOL   C157 5643   0.901   4.504   0.792  0.3597 -0.4434  0.5775
   14MOL   C158 5644   0.920   4.446   0.670 -0.4654 -0.0381 -0.1273
   14MOL   C159 5645   0.728   4.167   0.193 -0.2641 -0.8548  1.1625
   14MOL   H160 5646   0.917   4.103   0.287 -1.2394 -0.7601  1.0295
   14MOL   H161 5647   0.782   4.330   0.420 -0.5119  0.1767 -0.0637
   14MOL   H162 5648   0.949   4.269   0.451 -2.6266 -1.1917  1.3162
   14MOL   H163 5649   0.836   4.717   0.474 -0.5661 -0.6598  0.2714
   14MOL   H164 5650   0.776   4.807   0.690 -0.2424 -0.2517 -1.1965
   14MOL   H165 5651   0.799   4.673   0.890 -0.0803  1.0616 -0.1790
   14MOL   H166 5652   0.907   4.454   0.887 -0.0750 -0.8273  0.4037
   14MOL   H167 5653   0.963   4.347   0.660  1.1138  0.3380  2.4100
   14MOL   H168 5654   0.722   4.099   0.108  0.8510 -0.4350  0.7459
   14MOL   H169 5655   0.688   4.262   0.160 -0.6139 -1.7413 -1.0372
   14MOL   C170 5656   0.645   4.100   0.307  0.0028 -0.4201  0.0231
   14MOL   O171 5657   0.513   4.131   0.269  0.3344  0.4000  0.9280
   14MOL   C172 5658   0.432   4.180   0.366 -0.0280  0.3870  0.1799
   14MOL   O173 5659   0.444   4.314   0.371  0.2058 -0.3219 -0.2269
   14MOL   C174 5660   0.426   4.370   0.495 -0.1690  0.0173  0.4977
   14MOL   C175 5661   0.509   4.471   0.553 -0.3712 -0.6587 -0.2369
   14MOL   C176 5662   0.485   4.515   0.680  0.4818  0.7987  0.6258
   14MOL   C177 5663   0.365   4.474   0.755 -0.0857  0.4347 -0.5865
   14MOL   C178 5664   0.285   4.377   0.697  0.2274  0.6333  0.1545
   14MOL   C179 5665   0.313   4.330   0.565 -0.2078  0.7160 -0.5255
   14MOL   C180 5666   0.669   3.948   0.297  0.2198 -0.1977  0.3361
   14MOL   H181 5667   0.686   4.149   0.395  1.5491  1.3876 -1.6586
   14MOL   H182 5668   0.437   4.127   0.461 -3.7313 -0.3258  0.0258
   14MOL   H183 5669   0.329   4.174   0.331 -0.8740  0.2305  2.6276
   14MOL   H184 5670   0.604   4.493   0.507 -0.2941 -1.6451 -0.5603
   14MOL   H185 5671   0.556   4.587   0.719 -0.2027  1.0705  1.3709
   14MOL   H186 5672   0.347   4.520   0.851 -0.8229 -0.3195 -0.3580
   14MOL   H187 5673   0.198   4.335   0.745  1.2000 -1.9563 -0.2297
   14MOL   H188 5674   0.254   4.247   0.530  1.5754 -0.2875 -1.2084
   14MOL   H189 5675   0.640   3.916   0.197  0.9092 -0.4801  0.2255
   14MOL   H190 5676   0.776   3.934   0.312  0.3067  1.8601  1.8673
   14MOL   C191 5677   0.592   3.853   0.395 -0.4027 -0.0007  0.8267
   14MOL   O192 5678   0.661   3.854   0.513 -0.2164 -0.3204  0.0508
   14MOL   C193 5679   0.592   3.859   0.637 -0.7412  0.2057  0.5332
   14MOL   O194 5680   0.544   3.989   0.654 -0.3552 -0.1255 -0.0298
   14MOL   C195 5681   0.574   4.057   0.770  0.5068  0.7552  0.0878
   14MOL   C196 5682   0.574   3.985   0.896  0.2852  0.4772  0.0610
   14MOL   C197 5683   0.590   4.053   1.015 -0.3942  0.3852 -0.0251
   14MOL   C198 5684   0.615   4.188   1.008  0.6885  0.0861  0.0948
   14MOL   C199 5685   0.610   4.258   0.888  0.8839 -0.4004 -0.2169
   14MOL   C200 5686   0.588   4.197   0.764 -0.4554  0.7871  0.4876
   14MOL   C201 5687   0.602   3.708   0.349 -0.1213  0.0833 -0.3325
   14MOL   H202 5688   0.488   3.881   0.410 -1.5002 -3.1244 -0.4443
   14MOL   H203 5689   0.662   3.824   0.712 -0.4737 -0.9764 -0.2489
   14MOL   H204 5690   0.506   3.793   0.641 -1.0314  0.6509  1.7354
   14MOL   H205 5691   0.557   3.878   0.895  0.8600  0.3812  0.0250
   14MOL   H206 5692   0.599   4.000   1.109 -3.2247 -0.6991 -0.3124
   14MOL   H207 5693   0.641   4.245   1.095  1.0900  0.5470 -0.3218
   14MOL   H208 5694   0.634   4.363   0.892  1.6536 -0.5412 -1.0207
   14MOL   H209 5695   0.598   4.248   0.669  3.0860 -1.0733 -0.2087
   14MOL   H210 5696   0.605   3.691   0.242  0.7904 -2.4601  0.0579
   14MOL   H211 5697   0.699   3.662   0.370 -0.3742  0.2061  1.1837
   14MOL   C212 5698   0.488   3.621   0.400  0.4094 -0.1088 -0.0373
   14MOL   O213 5699   0.385   3.599   0.301  0.0276 -0.8130  0.5641
   14MOL   C214 5700   0.319   3.711   0.251 -0.1617 -0.1638  0.1508
   14MOL   O215 5701   0.228   3.770   0.335  0.0353  0.2514 -0.1129
   14MOL   C216 5702   0.152   3.879   0.290  0.2232  0.3755 -0.6138
   14MOL   C217 5703   0.201   3.970   0.189 -0.1669  0.6831 -0.4458
   14MOL   C218 5704   0.121   4.075   0.147  0.0204  0.4365 -0.9110
   14MOL   C219 5705   7.973   4.109   0.207  0.4589  0.0868 -0.9380
   14MOL   C220 5706   7.923   4.018   0.303 -0.6460  0.4852 -0.0733
   14MOL   C221 5707   0.026   3.912   0.350 -0.1411 -0.8082 -0.0843
   14MOL   C222 5708   0.524   3.474   0.457  0.5024 -0.1047 -0.0074
   14MOL   H223 5709   0.439   3.678   0.479 -3.1749 -1.5508 -1.1211
   14MOL   H224 5710   0.258   3.668   0.172 -0.7800 -0.0837  0.5797
   14MOL   H225 5711   0.395   3.773   0.204 -1.7108  0.1382 -2.0351
   14MOL   H226 5712   0.302   3.959   0.153  0.2001  1.5811  0.2868
   14MOL   H227 5713   0.166   4.143   0.075  1.0940 -0.7700 -1.3932
   14MOL   H228 5714   7.915   4.191   0.167 -0.1193  0.8549  1.3740
   14MOL   H229 5715   7.822   4.034   0.339 -0.1844  1.1323  0.9635
   14MOL   H230 5716   7.960   3.841   0.420  0.9529 -0.7034  0.6941
   14MOL   H231 5717   0.463   3.397   0.411  1.4215 -1.0832  0.4078
   14MOL   H232 5718   0.623   3.447   0.419 -0.2285 -0.4759 -1.6863
   14MOL   C233 5719   0.515   3.453   0.611 -0.3679  0.4283  0.0614
   14MOL   O234 5720   0.596   3.546   0.686  0.1036  0.3669 -0.2759
   14MOL   C235 5721   0.731   3.506   0.690  0.0895  0.3220  0.7394
   14MOL   O236 5722   0.809   3.602   0.765  0.0906  0.1353  0.0887
   14MOL   C237 5723   0.777   3.620   0.897  0.0846 -0.4820  0.0699
   14MOL   C238 5724   0.682   3.545   0.973 -0.0196 -0.7374 -0.0775
   14MOL   C239 5725   0.648   3.589   1.102  0.0144 -0.2268 -0.2075
   14MOL   C240 5726   0.718   3.695   1.166 -0.5713 -0.8130  0.0352
   14MOL   C241 5727   0.804   3.767   1.088 -0.2071 -0.6261 -0.4422
   14MOL   C242 5728   0.842   3.730   0.960 -0.0956  0.6317  0.4034
   14MOL   C243 5729   0.373   3.479   0.666  0.0543 -0.5878 -0.2081
   14MOL   H244 5730   0.527   3.348   0.635 -1.1966  0.4624  0.6571
   14MOL   H245 5731   0.764   3.503   0.586  2.7448  2.7778  1.4263
   14MOL   H246 5732   0.742   3.404   0.726 -3.5888  0.6181  2.9516
   14MOL   H247 5733   0.635   3.459   0.928  0.6697 -0.9421 -0.4184
   14MOL   H248 5734   0.574   3.532   1.157  0.1057 -1.2051 -1.0771
   14MOL   H249 5735   0.699   3.712   1.271 -0.5178  0.3583 -0.1427
   14MOL   H250 5736   0.849   3.849   1.141 -0.6505  0.0796 -1.1415
   14MOL   H251 5737   0.903   3.799   0.903  1.2342  1.0718  2.2989
   14MOL   H252 5738   0.347   3.583   0.644  0.7170 -0.2666  0.5187
   14MOL   H253 5739   0.306   3.424   0.600  1.8696 -2.4918 -0.5046
   14MOL   C254 5740   0.344   3.442   0.810 -0.0437 -0.3441  0.0829
   14MOL   O255 5741   0.205   3.465   0.835  0.1160 -0.2718  0.7580
   14MOL   C256 5742   0.178   3.588   0.902  0.2796 -0.6396 -0.1239
   14MOL   O257 5743   0.228   3.700   0.849 -0.7550 -0.0188 -0.1964
   14MOL   C258 5744   0.188   3.821   0.914 -0.5330 -0.8782  0.5353
   14MOL   C259 5745   0.097   3.830   1.024 -0.0215 -0.1588  0.0893
   14MOL   C260 5746   0.075   3.957   1.085  0.1157  0.6572 -0.1428
   14MOL   C261 5747   0.143   4.074   1.047  0.1941 -0.6166  0.6807
   14MOL   C262 5748   0.232   4.066   0.937  0.1334 -0.1268  0.5857
   14MOL   C263 5749   0.253   3.943   0.874 -0.3527  0.5491 -0.0853
   14MOL   C264 5750   0.381   3.301   0.857 -0.1336  0.7228  0.1642
   14MOL   H265 5751   0.397   3.505   0.882  2.3352 -0.3527 -1.6004
   14MOL   H266 5752   0.203   3.576   1.007 -2.7149  0.9287  0.8295
   14MOL   H267 5753   0.069   3.583   0.908  0.2856  0.5684  1.0399
   14MOL   H268 5754   0.043   3.741   1.054  2.1265 -1.5139  0.0662
   14MOL   H269 5755   0.003   3.968   1.165 -0.4837 -0.3930 -0.5280
   14MOL   H270 5756   0.129   4.166   1.102  0.5308 -0.1455 -0.0174
   14MOL   H271 5757   0.296   4.149   0.912  1.8648 -1.2037  1.2877
   14MOL   H272 5758   0.324   3.943   0.793 -0.4663 -1.1080 -0.1919
   14MOL   H273 5759   0.354   3.242   0.770 -0.1673  0.7783  0.1373
   14MOL   H274 5760   0.489   3.294   0.854 -0.1839  1.0546 -3.6349
   14MOL   C275 5761   0.320   3.253   0.992  0.2570 -0.2843  0.2690
   14MOL   O276 5762   0.220   3.149   0.987 -0.2449  0.1376 -0.7508
   14MOL   C277 5763   0.093   3.192   0.944  0.6439  0.0217  0.0794
   14MOL   O278 5764   0.008   3.241   1.039  0.1755  0.3711  0.2422
   14MOL   C279 5765   7.881   3.319   0.993  0.1879  0.7901  0.5224
   14MOL   C280 5766   7.813   3.280   0.872 -0.8022 -0.1573  0.1324
   14MOL   C281 5767   7.712   3.363   0.828 -0.0292 -1.3023 -0.4160
   14MOL   C282 5768   7.658   3.466   0.903  0.0167  0.0687 -0.3378
   14MOL   C283 5769   7.721   3.494   1.026 -0.3153  0.3078  0.0570
   14MOL   C284 5770   7.831   3.421   1.073 -0.1142 -0.3752  0.0279
   14MOL   C285 5771   0.434   3.195   1.078  0.5421  0.0291 -0.0500
   14MOL   H286 5772   0.273   3.335   1.046  1.1794  0.2122  0.3385
   14MOL   H287 5773   0.036   3.105   0.912  0.4576  0.7943 -1.7547
   14MOL   H288 5774   0.117   3.245   0.851 -0.4304 -2.9310 -1.9412
   14MOL   H289 5775   7.841   3.196   0.811 -0.4692 -0.0329  0.1146
   14MOL   H290 5776   7.672   3.338   0.731 -1.6436 -0.3619 -0.0085
   14MOL   H291 5777   7.569   3.522   0.877  0.4123  1.8229  1.9246
   14MOL   H292 5778   7.686   3.577   1.086 -1.2644 -0.3121  0.3681
   14MOL   H293 5779   7.874   3.431   1.172 -0.6174 -1.2087  0.3332
   14MOL   H294 5780   0.389   3.154   1.169  0.0346 -0.6121 -0.5912
   14MOL   H295 5781   0.496   3.278   1.112 -0.5001 -0.2948  2.8330
   14MOL   C296 5782   0.518   3.078   1.009 -0.1794 -0.0752 -0.0831
   14MOL   O297 5783   0.644   3.132   0.980  0.1708  0.2862 -0.1048
   14MOL   C298 5784   0.715   3.078   0.881  0.5883 -0.5528 -0.2396
   14MOL   O299 5785   0.678   3.120   0.753  0.2571  0.3975 -0.5862
   14MOL   C300 5786   0.745   3.075   0.644  0.1381 -0.4077  0.4987
   14MOL   C301 5787   0.686   3.122   0.521 -0.2498  1.2444 -0.7833
   14MOL   C302 5788   0.730   3.079   0.396  0.4020 -0.0315 -0.0445
   14MOL   C303 5789   0.842   2.991   0.394  0.2249  0.2422 -0.1707
   14MOL   C304 5790   0.901   2.942   0.514  0.2210  0.1164  0.4732
   14MOL   C305 5791   0.852   2.983   0.641 -1.0784  0.5668  0.4367
   14MOL   C306 5792   0.533   2.951   1.101  0.4271 -0.0324  0.3899
   14MOL   H307 5793   0.475   3.047   0.914  0.6649 -0.6142 -0.2964
   14MOL   H308 5794   0.713   2.970   0.897  0.4379 -0.6355 -0.8099
   14MOL   H309 5795   0.817   3.112   0.898  0.4447  0.1137 -0.7014
   14MOL   H310 5796   0.616   3.204   0.523  0.7577  2.0862  1.1830
   14MOL   H311 5797   0.693   3.130   0.308  2.5629 -0.0063 -0.9530
   14MOL   H312 5798   0.884   2.959   0.300 -1.0704 -2.4952  0.1364
   14MOL   H313 5799   0.977   2.866   0.505  1.5189  1.4939 -0.4755
   14MOL   H314 5800   0.895   2.946   0.733 -1.7801 -0.6980  0.2771
   14MOL   H315 5801   0.574   2.866   1.047  0.5419  0.8342 -0.9010
   14MOL   H316 5802   0.427   2.931   1.112 -0.0933  2.5334  0.2285
   14MOL   C317 5803   0.608   2.957   1.238  0.3044  0.6823  0.6037
   14MOL   O318 5804   0.747   2.966   1.202 -0.3790 -0.3059 -0.6234
   14MOL   C319 5805   0.832   3.031   1.287 -0.8983 -0.3673 -0.1964
   14MOL   O320 5806   0.809   3.173   1.277  0.0834  0.0139  0.8861
   14MOL   C321 5807   0.913   3.254   1.300 -0.8445  0.6803  0.0740
   14MOL   C322 5808   1.014   3.231   1.394  0.1329  0.4501  0.0570
   14MOL   C323 5809   1.123   3.319   1.415  0.2486  0.1218 -0.7076
   14MOL   C324 5810   1.117   3.439   1.346 -0.2321  0.5101 -0.1153
   14MOL   C325 5811   1.015   3.471   1.256  0.0971 -0.3774  0.3517
   14MOL   C326 5812   0.909   3.380   1.233  0.2102  0.3075 -0.0811
   14MOL   C327 5813   0.592   2.833   1.325  0.0341  0.4215 -0.0640
   14MOL   H328 5814   0.590   3.045   1.301 -0.0037  1.9740 -1.2514
   14MOL   H329 5815   0.935   3.001   1.269 -1.4687 -1.6081 -1.4207
   14MOL   H330 5816   0.805   2.993   1.386  0.4102 -1.9496 -0.4217
   14MOL   H331 5817   1.024   3.141   1.453  0.6216 -0.7247 -1.7687
   14MOL   H332 5818   1.183   3.303   1.504 -1.1787  0.0913  0.2613
   14MOL   H333 5819   1.189   3.519   1.351  1.0769 -0.5922 -0.8670
   14MOL   H334 5820   1.031   3.561   1.198 -1.5667  0.6900  1.5028
   14MOL   H335 5821   0.834   3.414   1.164 -0.8474  1.3491  1.5584
   14MOL   H336 5822   0.626   2.749   1.265 -1.4867 -0.1484 -0.1397
   14MOL   H337 5823   0.665   2.827   1.406 -0.4793 -2.0091  0.2418
   14MOL   C338 5824   0.450   2.816   1.391  0.3503 -0.0285 -0.4413
   14MOL   O339 5825   0.391   2.938   1.438 -0.4888 -0.2757 -0.1329
   14MOL   C340 5826   0.435   2.985   1.559  0.2161 -0.5857 -0.5155
   14MOL   O341 5827   0.552   3.057   1.543 -0.4719  0.8162  0.9394
   14MOL   C342 5828   0.601   3.119   1.657  0.4189 -0.4047 -0.1702
   14MOL   C343 5829   0.720   3.188   1.648 -0.0233 -0.4810 -0.5700
   14MOL   C344 5830   0.782   3.257   1.761  0.2946  0.7949 -0.4562
   14MOL   C345 5831   0.715   3.246   1.883 -0.4269 -0.8414 -0.8316
   14MOL   C346 5832   0.587   3.182   1.896 -0.4757  0.0591  0.5813
   14MOL   C347 5833   0.535   3.111   1.784  0.1229 -0.9535 -0.5113
   14MOL   C348 5834   0.336   2.766   1.296 -0.1806 -0.0854 -0.2558
   14MOL   H349 5835   0.462   2.749   1.477  0.0542  0.7173  0.1951
   14MOL   H350 5836   0.429   2.913   1.641 -1.6077  1.5325  1.2553
   14MOL   H351 5837   0.349   3.047   1.581 -0.6015 -3.0792  3.7781
   14MOL   H352 5838   0.763   3.205   1.550 -3.3728 -2.5297 -2.5190
   14MOL   H353 5839   0.882   3.292   1.745  0.7706 -0.2659  0.1496
   14MOL   H354 5840   0.755   3.298   1.970 -0.6952 -0.2460 -1.0613
   14MOL   H355 5841   0.533   3.185   1.990 -0.8568 -0.9659  0.3873
   14MOL   H356 5842   0.438   3.063   1.793 -0.2437 -0.0279  0.6213
   14MOL   H357 5843   0.391   2.709   1.222  0.4710  2.4214 -1.7530
   14MOL   H358 5844   0.281   2.848   1.250  1.1851  0.9638 -0.0440
   14MOL   C359 5845   0.223   2.676   1.356 -0.5925 -0.3013 -0.8038
   14MOL   O360 5846   0.273   2.568   1.438 -0.4572 -0.2054  0.3885
   14MOL   C361 5847   0.197   2.542   1.552  0.4175 -0.4481 -0.5250
   14MOL   O362 5848   0.188   2.646   1.644  0.3241 -0.2045  0.0248
   14MOL   C363 5849   0.304   2.683   1.712 -0.0327  0.3075 -0.1706
   14MOL   C364 5850   0.283   2.774   1.816 -0.5230  0.3738 -0.2209
   14MOL   C365 5851   0.389   2.818   1.888 -0.5851 -0.6064  0.4986
   14MOL   C366 5852   0.518   2.774   1.866  0.0458  0.5236 -0.4090
   14MOL   C367 5853   0.536   2.679   1.766 -0.1546  0.7749  0.1480
   14MOL   C368 5854   0.430   2.632   1.689 -0.7004  0.0212 -0.0739
   14MOL   C369 5855   0.138   2.612   1.250  0.0243 -0.2009  0.3435
   14MOL   H370 5856   0.167   2.742   1.422  1.4229  0.4317  0.2073
   14MOL   H371 5857   0.257   2.460   1.592 -3.1681 -2.2848  1.3249
   14MOL   H372 5858   0.099   2.496   1.536  0.8689 -0.5241 -3.2819
   14MOL   H373 5859   0.184   2.815   1.830  0.6920  3.0380  0.9580
   14MOL   H374 5860   0.378   2.889   1.969  2.8831 -0.3582  0.8278
   14MOL   H375 5861   0.598   2.811   1.928 -0.2253 -1.1420  0.9394
   14MOL   H376 5862   0.633   2.634   1.753 -0.4793 -0.3399  1.5207
   14MOL   H377 5863   0.445   2.562   1.608 -2.2044  3.0364 -3.0640
   14MOL   H378 5864   0.069   2.557   1.314 -0.9954 -1.0443 -1.4199
   14MOL   H379 5865   0.184   2.527   1.200 -0.1361  0.0487 -0.2348
   14MOL   C380 5866   0.051   2.699   1.144  0.1114  0.8594  0.0347
   14MOL   O381 5867   0.140   2.772   1.060  0.0117  0.2510 -0.4076
   14MOL   C382 5868   0.152   2.724   0.931 -0.3887 -0.0779  0.4034
   14MOL   O383 5869   0.272   2.775   0.882  0.2881  0.1926  0.9574
   14MOL   C384 5870   0.327   2.726   0.769 -0.3251 -0.9873  0.0551
   14MOL   C385 5871   0.273   2.620   0.691 -0.2495  0.7187 -0.1949
   14MOL   C386 5872   0.351   2.571   0.581 -0.0767  0.0424  0.1249
   14MOL   C387 5873   0.470   2.643   0.540  0.2361 -0.0440 -0.3866
   14MOL   C388 5874   0.521   2.746   0.619 -0.1635  0.5572 -0.0921
   14MOL   C389 5875   0.450   2.784   0.735 -0.5202  1.1338 -0.6170
   14MOL   C390 5876   7.920   2.785   1.214 -0.2053  0.1614  0.7414
   14MOL   H391 5877   7.961   2.637   1.084 -1.4590  1.5932  0.9584
   14MOL   H392 5878   0.147   2.615   0.940  0.1484 -0.0913  0.5777
   14MOL   H393 5879   0.076   2.775   0.871 -1.2700 -1.1181  0.6299
   14MOL   H394 5880   0.187   2.565   0.724 -1.4152  1.9673 -1.1077
   14MOL   H395 5881   0.323   2.480   0.531 -0.2638  0.0625  0.1932
   14MOL   H396 5882   0.523   2.606   0.453  1.2986  1.5188 -0.4319
   14MOL   H397 5883   0.610   2.797   0.585  0.0272 -0.7833 -1.6536
   14MOL   H398 5884   0.496   2.863   0.793 -1.7888  0.7949  0.8812
   14MOL   H399 5885   0.000   2.836   1.293  0.2187  0.0956  0.4889
   14MOL   H400 5886   7.852   2.716   1.263  1.1530 -1.3675  0.5486
   14MOL   C401 5887   7.840   2.885   1.117  0.4152  0.3459 -0.3641
   14MOL   O402 5888   7.751   2.812   1.031 -0.1960  0.4184  0.3873
   14MOL   C403 5889   7.678   2.883   0.932  0.1764  0.4477 -0.2321
   14MOL   O404 5890   7.559   2.935   0.973 -0.1234 -0.0744  0.3165
   14MOL   C405 5891   7.456   2.853   1.006  0.4687  1.1526 -0.4394
   14MOL   C406 5892   7.459   2.711   1.015  0.8016 -0.5669  0.2508
   14MOL   C407 5893   7.339   2.639   1.045  0.3031  0.3633 -0.6946
   14MOL   C408 5894   7.220   2.704   1.076  0.3531  0.1896 -0.0162
   14MOL   C409 5895   7.215   2.842   1.063 -0.6299 -0.0598 -0.1562
   14MOL   C410 5896   7.325   2.913   1.019  0.0645 -0.8614 -0.7136
   14MOL   C411 5897   7.766   2.994   1.192  0.2663  0.2954 -0.2927
   14MOL   H412 5898   7.916   2.942   1.062  0.5113  0.2421 -0.3374
   14MOL   H413 5899   7.666   2.803   0.860 -1.3525  0.7092 -0.2979
   14MOL   H414 5900   7.735   2.952   0.869  0.8188  1.1915  1.1350
   14MOL   H415 5901   7.550   2.658   0.989 -0.0111 -1.2912 -1.1795
   14MOL   H416 5902   7.343   2.533   1.063 -2.4181  0.2615 -0.4806
   14MOL   H417 5903   7.152   2.646   1.136  0.6257 -0.6390 -0.4870
   14MOL   H418 5904   7.120   2.891   1.079  0.5818  2.2856  0.1672
   14MOL   H419 5905   7.312   3.016   0.987 -2.5262 -0.5936  1.0606
   14MOL   H420 5906   7.833   3.054   1.254  2.8877  1.4210 -4.0848
   14MOL   H421 5907   7.685   2.954   1.254  1.6913  0.6711  1.8463
   14MOL   H422 5908   7.708   3.057   1.125 -2.0397  0.3685  1.6728
   15MOL     C1 5909   6.103   2.968   2.216 -0.2100  0.8407  0.2266
   15MOL     O2 5910   6.148   2.845   2.284  0.6002  0.1245  0.3227
   15MOL     C3 5911   6.184   2.743   2.195  0.0822  0.1795  0.1782
   15MOL     O4 5912   6.202   2.625   2.273 -0.0144  0.6306  0.4927
   15MOL     C5 5913   6.272   2.528   2.205 -0.2007  0.7399 -0.9668
   15MOL     C6 5914   6.303   2.525   2.068  0.6373  0.5849  0.3546
   15MOL     C7 5915   6.365   2.418   2.010 -0.0404 -0.2615  0.0542
   15MOL     C8 5916   6.394   2.303   2.092 -0.3912 -0.4371  0.2800
   15MOL     C9 5917   6.373   2.310   2.228 -0.1569  0.5036  0.1290
   15MOL    C10 5918   6.306   2.419   2.288  0.5752 -0.3486  0.8209
   15MOL    C11 5919   6.104   3.077   2.324 -0.3709 -0.0572  0.7555
   15MOL    H12 5920   6.168   2.995   2.132  0.0794 -0.7532 -0.0695
   15MOL    H13 5921   6.101   2.725   2.127  0.0599  2.6249 -0.5034
   15MOL    H14 5922   6.279   2.767   2.147  0.5182 -0.7246  0.5821
   15MOL    H15 5923   6.282   2.615   2.013  2.1647  2.4179  2.6774
   15MOL    H16 5924   6.399   2.425   1.908  0.9360  0.1250  0.3994
   15MOL    H17 5925   6.445   2.219   2.047  2.3157  1.7065 -0.8261
   15MOL    H18 5926   6.382   2.213   2.275  0.6384  1.0614  1.1736
   15MOL    H19 5927   6.270   2.414   2.390  2.0775 -0.0568  1.3712
   15MOL    H20 5928   6.199   3.104   2.369 -0.7714  1.6632  0.6129
   15MOL    H21 5929   6.039   3.032   2.400  0.0429 -0.0263  1.1300
   15MOL    H22 5930   6.002   2.958   2.176 -0.3957  0.9018  0.6686
   15MOL    C23 5931   6.045   3.220   2.280  0.3392 -1.1405  0.3417
   15MOL    O24 5932   6.079   3.327   2.368  0.5775 -0.0105  0.3153
   15MOL    C25 5933   6.182   3.405   2.321  0.1108 -0.5917 -0.0190
   15MOL    O26 5934   6.295   3.324   2.299  0.1065 -0.0133 -0.6902
   15MOL    C27 5935   6.398   3.370   2.222 -0.7874  0.1424  0.0543
   15MOL    C28 5936   6.484   3.274   2.159  0.8138 -0.1094 -0.3245
   15MOL    C29 5937   6.587   3.311   2.076 -0.0074 -0.3883 -0.0761
   15MOL    C30 5938   6.614   3.446   2.058 -0.2314  0.0761  0.3485
   15MOL    C31 5939   6.529   3.540   2.113 -0.0023 -0.9388 -0.2992
   15MOL    C32 5940   6.428   3.508   2.205  0.8444  0.0262  0.0643
   15MOL    C33 5941   5.890   3.221   2.265  0.1216 -0.0146  0.2233
   15MOL    H34 5942   6.084   3.244   2.181  0.7342 -2.1095  0.2628
   15MOL    H35 5943   6.201   3.490   2.387  0.3134 -0.6980  0.0605
   15MOL    H36 5944   6.156   3.452   2.226 -1.5759 -1.5996 -0.0765
   15MOL    H37 5945   6.463   3.168   2.163 -1.3109  0.3367  2.3431
   15MOL    H38 5946   6.638   3.230   2.025  0.1041 -0.9904  0.9856
   15MOL    H39 5947   6.688   3.473   1.984  0.2259  1.8740  1.4057
   15MOL    H40 5948   6.552   3.644   2.094  0.8168 -1.0407  0.1178
   15MOL    H41 5949   6.358   3.577   2.249  0.7375 -0.0669  0.0423
   15MOL    H42 5950   5.851   3.255   2.361 -0.6977 -1.0610  0.2664
   15MOL    H43 5951   5.861   3.116   2.263  0.4908 -0.0993 -1.3096
   15MOL    C44 5952   5.820   3.287   2.153  0.3839  0.4664  0.1236
   15MOL    O45 5953   5.863   3.231   2.026 -0.0652  0.2830  0.3464
   15MOL    C46 5954   5.777   3.234   1.917  0.3665 -0.2363 -0.1238
   15MOL    O47 5955   5.816   3.139   1.818  0.6165  0.3497  0.0069
   15MOL    C48 5956   5.746   3.140   1.699  0.5147 -0.7755  0.0126
   15MOL    C49 5957   5.793   3.063   1.588  0.1521 -0.6367  0.1014
   15MOL    C50 5958   5.727   3.066   1.462 -0.8222  0.2389  0.4756
   15MOL    C51 5959   5.609   3.139   1.447 -0.1154  0.3508 -0.9021
   15MOL    C52 5960   5.559   3.218   1.560  0.4150  0.6051  0.2387
   15MOL    C53 5961   5.630   3.225   1.680  0.1545  0.1263 -0.2322
   15MOL    C54 5962   5.848   3.440   2.151  0.4480 -0.2386 -0.6190
   15MOL    H55 5963   5.713   3.272   2.168  0.4075 -0.3986 -0.5518
   15MOL    H56 5964   5.787   3.335   1.879 -3.8559  0.0794 -0.6410
   15MOL    H57 5965   5.679   3.206   1.955  0.9066 -0.4972  1.1021
   15MOL    H58 5966   5.887   3.013   1.608  0.5016  0.4272  1.2511
   15MOL    H59 5967   5.769   3.010   1.380 -0.2921 -0.2745  1.0855
   15MOL    H60 5968   5.556   3.145   1.353 -2.9650  1.7705  0.7289
   15MOL    H61 5969   5.466   3.271   1.545  0.7526  0.5624 -2.2769
   15MOL    H62 5970   5.591   3.293   1.754  2.7316  1.7644 -0.3214
   15MOL    H63 5971   5.921   3.460   2.229  1.7036  0.2929 -1.9083
   15MOL    H64 5972   5.906   3.469   2.064 -0.2648 -0.4843 -1.1892
   15MOL    C65 5973   5.736   3.525   2.192  0.3925 -0.0003  0.2537
   15MOL    O66 5974   5.646   3.524   2.083  0.0323 -0.3994  0.6908
   15MOL    C67 5975   5.594   3.653   2.043  0.3632 -0.3757  0.2935
   15MOL    O68 5976   5.691   3.723   1.976 -0.0890 -0.2452  0.2770
   15MOL    C69 5977   5.672   3.859   1.961 -0.4328  0.2745 -0.3292
   15MOL    C70 5978   5.783   3.944   1.954  0.0193 -0.6458  0.1644
   15MOL    C71 5979   5.760   4.086   1.944 -0.1576 -0.4706  0.1727
   15MOL    C72 5980   5.633   4.136   1.937  0.8457 -0.5093  0.1352
   15MOL    C73 5981   5.517   4.048   1.941 -0.1184 -0.4143  1.1963
   15MOL    C74 5982   5.540   3.908   1.942 -0.2643  0.6148  1.5543
   15MOL    C75 5983   5.665   3.494   2.328 -0.4618 -0.0520 -0.2024
   15MOL    H76 5984   5.786   3.621   2.198  0.1927  0.1383 -0.2700
   15MOL    H77 5985   5.567   3.703   2.136 -0.1548  0.3881 -0.2606
   15MOL    H78 5986   5.515   3.643   1.968  0.5168  0.5142  0.0070
   15MOL    H79 5987   5.879   3.896   1.964  0.6890  0.3685 -1.2410
   15MOL    H80 5988   5.840   4.158   1.956 -1.1011  0.7946 -0.9732
   15MOL    H81 5989   5.623   4.244   1.929  0.1259 -0.5454  0.4850
   15MOL    H82 5990   5.420   4.095   1.935 -0.9490 -2.2133  0.3877
   15MOL    H83 5991   5.456   3.841   1.946  0.2052 -0.1169 -0.2418
   15MOL    H84 5992   5.577   3.558   2.334 -0.6666 -0.4602  1.4802
   15MOL    H85 5993   5.618   3.395   2.331  0.2730 -0.4065 -0.2095
   15MOL    C86 5994   5.758   3.512   2.455 -0.4471 -0.0220  0.2954
   15MOL    O87 5995   5.766   3.649   2.498  0.4690  0.0368  0.2779
   15MOL    C88 5996   5.893   3.704   2.478  0.6828 -1.2739 -0.0348
   15MOL    O89 5997   5.927   3.731   2.343 -0.2180 -0.1497 -0.2539
   15MOL    C90 5998   6.057   3.764   2.318 -0.1781 -0.3342  0.0784
   15MOL    C91 5999   6.107   3.735   2.188 -0.1355  0.5523 -0.4834
   15MOL    C92 6000   6.236   3.781   2.145 -0.5698 -0.1176  0.0448
   15MOL    C93 6001   6.319   3.844   2.249  0.4888 -0.3674  0.7164
   15MOL    C94 6002   6.281   3.834   2.382 -0.6887  0.7317  0.3789
   15MOL    C95 6003   6.147   3.804   2.416  0.6170 -0.1869 -0.3627
   15MOL    C96 6004   5.690   3.432   2.569 -0.2089 -0.5029 -0.5255
   15MOL    H97 6005   5.858   3.469   2.447 -0.8856 -0.7726 -1.1797
   15MOL    H98 6006   5.963   3.654   2.544  1.4841 -0.4194 -0.2369
   15MOL    H99 6007   5.885   3.807   2.511 -1.6958 -0.6294 -2.3501
   15MOL   H100 6008   6.040   3.683   2.121 -0.1655 -2.1307  1.5708
   15MOL   H101 6009   6.271   3.774   2.043  2.1726  2.8614  0.7250
   15MOL   H102 6010   6.407   3.887   2.204 -0.4898  3.3214  2.2219
   15MOL   H103 6011   6.352   3.856   2.461 -1.5358  0.6168  1.1875
   15MOL   H104 6012   6.129   3.815   2.522 -0.3118  0.9054 -0.6228
   15MOL   H105 6013   5.589   3.467   2.594 -0.1602 -1.1792  0.6316
   15MOL   H106 6014   5.673   3.330   2.535 -1.0991 -1.0097  1.3454
   15MOL   C107 6015   5.776   3.405   2.697 -0.1076 -0.5896 -0.4001
   15MOL   O108 6016   5.690   3.348   2.803 -0.0824  0.0385 -0.0274
   15MOL   C109 6017   5.651   3.432   2.905 -0.7544 -0.0838 -0.1306
   15MOL   O110 6018   5.751   3.437   2.999 -0.3384 -0.5831  0.1825
   15MOL   C111 6019   5.758   3.336   3.094  0.2039 -0.1076  0.4486
   15MOL   C112 6020   5.844   3.354   3.200 -0.0735 -0.6481 -0.1738
   15MOL   C113 6021   5.852   3.262   3.305  0.0910  0.4086 -0.2159
   15MOL   C114 6022   5.765   3.152   3.310  0.3315  0.3056  0.5823
   15MOL   C115 6023   5.687   3.125   3.195  0.5598  0.0286 -0.3187
   15MOL   C116 6024   5.684   3.215   3.089  0.2426  0.2735  0.6208
   15MOL   C117 6025   5.873   3.293   2.678 -0.2342  0.0114 -0.9031
   15MOL   H118 6026   5.823   3.495   2.736  0.4532 -1.6940  1.5255
   15MOL   H119 6027   5.559   3.400   2.954 -0.3061 -1.3126 -0.0455
   15MOL   H120 6028   5.616   3.527   2.866  1.8996  1.8940  2.1301
   15MOL   H121 6029   5.912   3.438   3.198 -1.1626  0.2286 -1.2139
   15MOL   H122 6030   5.924   3.269   3.385  0.3899 -0.2379 -0.4224
   15MOL   H123 6031   5.749   3.084   3.392  0.4797  0.0105  0.3658
   15MOL   H124 6032   5.622   3.039   3.184  0.0795  0.6640 -2.7212
   15MOL   H125 6033   5.616   3.195   3.008 -0.4309 -1.2648  1.5453
   15MOL   H126 6034   5.931   3.309   2.587  0.5049  2.3192 -0.0431
   15MOL   H127 6035   5.812   3.206   2.654 -0.8219  0.7122 -1.9566
   15MOL   C128 6036   5.975   3.269   2.792 -0.1767 -0.4333 -0.0449
   15MOL   O129 6037   6.054   3.387   2.792  0.9139 -0.4223 -0.3339
   15MOL   C130 6038   6.102   3.434   2.913 -0.5949 -0.3180  0.0797
   15MOL   O131 6039   6.191   3.546   2.899 -0.5354 -0.1617 -0.5750
   15MOL   C132 6040   6.138   3.667   2.864  0.5924 -0.1238 -0.1175
   15MOL   C133 6041   5.998   3.681   2.852  0.2268 -0.0535  0.3448
   15MOL   C134 6042   5.938   3.801   2.806  0.3327 -0.3978 -0.1039
   15MOL   C135 6043   6.019   3.910   2.768  0.2334 -0.3263 -0.3534
   15MOL   C136 6044   6.159   3.889   2.775 -0.0894 -0.5300  0.0712
   15MOL   C137 6045   6.217   3.775   2.833  0.1027  0.4540 -0.1501
   15MOL   C138 6046   6.054   3.134   2.773  0.5994  0.1014 -0.7755
   15MOL   H139 6047   5.924   3.259   2.888  0.1635  2.5667  0.5110
   15MOL   H140 6048   6.158   3.353   2.958 -0.9739 -0.2135  0.7500
   15MOL   H141 6049   6.024   3.463   2.984 -1.4570 -3.2835  0.3965
   15MOL   H142 6050   5.932   3.597   2.865  0.7208 -0.8222 -1.9432
   15MOL   H143 6051   5.831   3.811   2.800  0.2870 -1.1678 -0.7560
   15MOL   H144 6052   5.980   4.007   2.741  1.6472  1.0312  2.2539
   15MOL   H145 6053   6.224   3.974   2.756 -1.1778  0.6259  1.3771
   15MOL   H146 6054   6.325   3.775   2.842  0.1209  0.3404 -0.3586
   15MOL   H147 6055   6.123   3.155   2.691  0.9641 -0.2654 -0.5646
   15MOL   H148 6056   6.124   3.122   2.856  0.5644  0.4693 -0.6928
   15MOL   C149 6057   5.975   3.001   2.755 -0.4831 -0.1512 -0.1844
   15MOL   O150 6058   6.066   2.894   2.791 -0.5846  0.2681  0.1748
   15MOL   C151 6059   6.162   2.848   2.698 -0.4292  0.4309  0.3586
   15MOL   O152 6060   6.265   2.945   2.672  0.1327  1.0049 -0.0631
   15MOL   C153 6061   6.361   2.916   2.579  0.5872 -1.0528 -0.1475
   15MOL   C154 6062   6.387   2.785   2.526 -0.4979 -0.4186 -0.5823
   15MOL   C155 6063   6.497   2.761   2.442  0.3734 -0.1037  0.8718
   15MOL   C156 6064   6.574   2.867   2.409 -0.2031 -0.3313 -0.2556
   15MOL   C157 6065   6.547   3.001   2.449  0.7747  0.6709 -0.4565
   15MOL   C158 6066   6.433   3.027   2.534  0.5714 -0.3153 -0.3994
   15MOL   C159 6067   5.850   2.994   2.837  0.4844  0.3634 -0.4333
   15MOL   H160 6068   5.950   3.003   2.649  1.3070  0.5520 -0.6279
   15MOL   H161 6069   6.214   2.760   2.735  1.0108  1.0722 -0.0882
   15MOL   H162 6070   6.112   2.833   2.602  0.0280  1.0606  0.0197
   15MOL   H163 6071   6.333   2.696   2.552 -0.5087 -0.2631 -0.0647
   15MOL   H164 6072   6.514   2.665   2.395  0.1267  1.3774 -2.4447
   15MOL   H165 6073   6.656   2.850   2.341 -0.3990  0.8665 -0.8082
   15MOL   H166 6074   6.607   3.083   2.414  1.2756  2.1630  3.6280
   15MOL   H167 6075   6.414   3.128   2.568 -4.9437 -1.3459  0.0044
   15MOL   H168 6076   5.790   3.085   2.838  0.9597  0.6924 -1.1768
   15MOL   H169 6077   5.874   2.972   2.941  0.0134  1.4425 -0.0934
   15MOL   C170 6078   5.757   2.884   2.778  0.2399 -0.2007  0.1684
   15MOL   O171 6079   5.660   2.849   2.881 -0.0093 -0.1946  0.6511
   15MOL   C172 6080   5.691   2.738   2.964  0.3329 -0.2475  0.0869
   15MOL   O173 6081   5.664   2.611   2.898 -0.4521 -0.7926  0.6560
   15MOL   C174 6082   5.529   2.575   2.878 -0.2022  0.1433  0.3089
   15MOL   C175 6083   5.421   2.669   2.880  1.0013 -0.0793  0.0610
   15MOL   C176 6084   5.291   2.625   2.856 -0.1039  0.4218 -0.0552
   15MOL   C177 6085   5.258   2.489   2.834  0.3691 -0.6757  0.8134
   15MOL   C178 6086   5.364   2.394   2.839 -0.4593 -0.3569  0.0287
   15MOL   C179 6087   5.495   2.440   2.857  0.2238  0.8382 -0.4195
   15MOL   C180 6088   5.677   2.924   2.651 -0.0542  0.7262 -0.0013
   15MOL   H181 6089   5.813   2.791   2.765 -0.5995 -0.5207 -1.3294
   15MOL   H182 6090   5.629   2.734   3.054  0.7775 -2.4890  0.3073
   15MOL   H183 6091   5.796   2.753   2.992  0.0811 -0.3429  1.0949
   15MOL   H184 6092   5.422   2.775   2.900  1.4220 -0.2074  0.7348
   15MOL   H185 6093   5.207   2.694   2.854 -1.1926 -0.8629  0.6433
   15MOL   H186 6094   5.155   2.460   2.820 -0.4142  1.8938  1.0158
   15MOL   H187 6095   5.349   2.288   2.828  1.2505 -0.7602  1.4629
   15MOL   H188 6096   5.575   2.369   2.867  1.1888  1.9886  0.1676
   15MOL   H189 6097   5.599   2.997   2.673 -0.7749 -0.1963  0.5448
   15MOL   H190 6098   5.740   2.978   2.581 -0.1395 -1.3070 -1.6969
   15MOL   C191 6099   5.614   2.808   2.572  0.5519  0.4509  0.3077
   15MOL   O192 6100   5.719   2.727   2.511  0.4745  0.5610  0.0113
   15MOL   C193 6101   5.698   2.594   2.537 -0.0364  0.5781 -0.7164
   15MOL   O194 6102   5.583   2.543   2.479 -0.2113 -0.5499 -0.0782
   15MOL   C195 6103   5.559   2.409   2.499  0.1934  0.2111  0.2537
   15MOL   C196 6104   5.424   2.362   2.486 -0.1535  0.4672 -0.0296
   15MOL   C197 6105   5.384   2.232   2.521  0.7991 -0.2560 -0.6125
   15MOL   C198 6106   5.479   2.145   2.568  0.2772  0.2159  0.0036
   15MOL   C199 6107   5.613   2.183   2.567 -0.1623 -0.3147  0.0208
   15MOL   C200 6108   5.658   2.312   2.533 -0.0086 -0.4532 -0.3849
   15MOL   C201 6109   5.513   2.855   2.464 -0.0841  0.5159  0.5329
   15MOL   H202 6110   5.555   2.757   2.647  0.7037 -0.7402 -0.3723
   15MOL   H203 6111   5.691   2.571   2.643 -1.3766  0.1869 -0.8782
   15MOL   H204 6112   5.785   2.543   2.495  0.0232 -0.6999  0.9090
   15MOL   H205 6113   5.354   2.422   2.429  0.6064  1.1898 -0.2200
   15MOL   H206 6114   5.281   2.202   2.511  0.1359  2.0269 -0.8106
   15MOL   H207 6115   5.452   2.048   2.608 -3.7381  1.8420  1.4412
   15MOL   H208 6116   5.690   2.113   2.598  0.0629 -0.5386 -1.0197
   15MOL   H209 6117   5.762   2.339   2.524 -0.0601  0.3912  1.4037
   15MOL   H210 6118   5.463   2.769   2.421 -0.5624  1.2457 -0.4058
   15MOL   H211 6119   5.430   2.905   2.515 -1.6759 -1.4472 -0.0556
   15MOL   C212 6120   5.555   2.947   2.352 -1.0605 -0.0243  0.2907
   15MOL   O213 6121   5.572   3.085   2.391 -0.0742  0.0066  0.3414
   15MOL   C214 6122   5.448   3.150   2.396 -0.2867 -0.2050 -0.2768
   15MOL   O215 6123   5.431   3.211   2.266 -0.2516 -0.2982 -0.3727
   15MOL   C216 6124   5.351   3.320   2.259 -0.3080 -0.4710 -0.3654
   15MOL   C217 6125   5.281   3.374   2.361  0.2851 -0.2353  0.1507
   15MOL   C218 6126   5.210   3.497   2.347  0.0183 -0.0161  0.5741
   15MOL   C219 6127   5.195   3.552   2.220 -0.2813  0.1365 -0.0306
   15MOL   C220 6128   5.276   3.501   2.112  0.4401 -0.2560 -0.1647
   15MOL   C221 6129   5.353   3.384   2.135 -0.2634  0.6208 -0.1809
   15MOL   C222 6130   5.684   2.906   2.272  0.2254  0.3651 -0.2119
   15MOL   H223 6131   5.477   2.944   2.276 -1.0415 -2.4081  0.3248
   15MOL   H224 6132   5.459   3.233   2.466 -0.1137 -0.1202 -0.4025
   15MOL   H225 6133   5.364   3.088   2.426  1.4136 -2.2363  0.4614
   15MOL   H226 6134   5.274   3.322   2.455  1.6675 -0.7968 -0.0516
   15MOL   H227 6135   5.144   3.534   2.424  1.6223  1.7481  1.1351
   15MOL   H228 6136   5.123   3.630   2.200 -2.0391 -1.8359 -1.7972
   15MOL   H229 6137   5.273   3.542   2.012 -1.0242  0.8168  0.3122
   15MOL   H230 6138   5.418   3.336   2.063 -1.0296 -1.5779  0.5531
   15MOL   H231 6139   5.703   2.978   2.192 -0.5735  1.2465  0.3915
   15MOL   H232 6140   5.761   2.912   2.348  0.5943 -0.2350 -0.5362
   15MOL   C233 6141   5.671   2.770   2.198  0.4669 -0.4497  0.5764
   15MOL   O234 6142   5.591   2.794   2.080 -0.2936 -0.4002 -0.4528
   15MOL   C235 6143   5.482   2.710   2.071 -0.8825 -0.6591 -0.1978
   15MOL   O236 6144   5.380   2.739   2.165 -0.0688 -0.1619 -0.3536
   15MOL   C237 6145   5.282   2.640   2.173  0.0429  0.0163 -0.4463
   15MOL   C238 6146   5.201   2.659   2.288 -0.0000 -0.5629 -0.0183
   15MOL   C239 6147   5.107   2.561   2.319  0.2092 -0.0143  0.1561
   15MOL   C240 6148   5.074   2.459   2.230 -0.1302 -0.3211 -0.4575
   15MOL   C241 6149   5.142   2.450   2.105  0.0933  0.3739 -0.3897
   15MOL   C242 6150   5.252   2.541   2.080  0.1005 -0.4127  0.6630
   15MOL   C243 6151   5.812   2.715   2.162 -0.3454 -0.5454 -0.3675
   15MOL   H244 6152   5.617   2.696   2.257 -1.2134  1.7460  1.8491
   15MOL   H245 6153   5.521   2.608   2.078  0.1509 -0.4110 -2.0717
   15MOL   H246 6154   5.442   2.740   1.974 -3.4363 -0.2148  0.9455
   15MOL   H247 6155   5.210   2.747   2.350  1.0812 -0.3275 -0.5138
   15MOL   H248 6156   5.053   2.553   2.412 -3.2261 -0.7553 -1.8362
   15MOL   H249 6157   5.001   2.386   2.262  0.8104 -1.0359  0.1032
   15MOL   H250 6158   5.121   2.365   2.040  2.2248 -0.7409  0.3163
   15MOL   H251 6159   5.311   2.539   1.990  1.5072  3.1890  1.4028
   15MOL   H252 6160   5.861   2.787   2.096  0.1784 -0.1356  0.4632
   15MOL   H253 6161   5.875   2.724   2.251 -0.3490  0.6404 -0.4783
   15MOL   C254 6162   5.827   2.572   2.103  0.4205  0.0763  0.0492
   15MOL   O255 6163   5.945   2.578   2.028  0.0283  0.4228 -0.2523
   15MOL   C256 6164   5.921   2.574   1.889 -0.4078  0.2685 -0.1754
   15MOL   O257 6165   6.039   2.589   1.814 -0.2020  0.1621  0.0883
   15MOL   C258 6166   6.102   2.712   1.811 -0.4017  0.3395  0.6645
   15MOL   C259 6167   6.232   2.717   1.759 -0.5582  1.0028 -0.2730
   15MOL   C260 6168   6.314   2.829   1.779  0.2477 -0.8103 -0.8373
   15MOL   C261 6169   6.260   2.947   1.840 -0.9305  0.0972  0.6172
   15MOL   C262 6170   6.128   2.948   1.888 -0.0514 -0.0661 -0.0732
   15MOL   C263 6171   6.049   2.832   1.869  0.0635  0.3270  0.3896
   15MOL   C264 6172   5.834   2.463   2.208  0.4644 -0.4060  0.7122
   15MOL   H265 6173   5.737   2.546   2.046 -0.4748 -1.1475  1.9898
   15MOL   H266 6174   5.857   2.660   1.866  0.7097  1.8572  2.3999
   15MOL   H267 6175   5.866   2.485   1.860  1.5560 -0.3374 -2.2004
   15MOL   H268 6176   6.278   2.626   1.722 -1.1911  0.1478  0.9985
   15MOL   H269 6177   6.416   2.827   1.745 -0.0816  0.2547 -1.8969
   15MOL   H270 6178   6.303   3.046   1.853  0.3026 -0.3866  0.2969
   15MOL   H271 6179   6.080   3.040   1.917 -3.3319 -1.4233 -1.0081
   15MOL   H272 6180   5.946   2.849   1.895 -0.7311 -0.7211 -2.0006
   15MOL   H273 6181   5.924   2.477   2.268  0.4117  1.5818  0.3335
   15MOL   H274 6182   5.753   2.489   2.276 -0.6057 -1.9794  0.0777
   15MOL   C275 6183   5.838   2.317   2.151  0.1675  0.5222  0.7795
   15MOL   O276 6184   5.920   2.242   2.235  0.3109 -0.1233  0.2941
   15MOL   C277 6185   6.046   2.216   2.180 -0.4021  0.3049 -0.9684
   15MOL   O278 6186   6.037   2.154   2.054  0.0441  0.4573 -0.3141
   15MOL   C279 6187   6.044   2.019   2.053  0.3108  0.0854  0.2639
   15MOL   C280 6188   6.100   1.957   1.942 -0.4963  0.0908 -0.7664
   15MOL   C281 6189   6.093   1.819   1.930  0.0337  0.3754 -0.2878
   15MOL   C282 6190   6.026   1.735   2.024  0.1593  0.2580 -0.2883
   15MOL   C283 6191   5.971   1.800   2.136  0.1302  0.2418  0.0828
   15MOL   C284 6192   5.978   1.940   2.152  0.0072 -0.1328 -0.6716
   15MOL   C285 6193   5.707   2.240   2.141  0.3051  0.1367  0.2467
   15MOL   H286 6194   5.881   2.325   2.051  0.3831 -3.8521  0.4096
   15MOL   H287 6195   6.100   2.161   2.256  2.1468  2.7433 -0.9517
   15MOL   H288 6196   6.082   2.317   2.162 -0.7816  0.6862  0.4079
   15MOL   H289 6197   6.152   2.025   1.876 -0.7770  0.6520 -0.4048
   15MOL   H290 6198   6.141   1.769   1.847  0.4855 -1.7979  1.2455
   15MOL   H291 6199   6.015   1.628   2.022 -2.3106  0.2961  4.2162
   15MOL   H292 6200   5.911   1.739   2.203  1.4564 -0.2551  0.8401
   15MOL   H293 6201   5.927   1.997   2.227 -0.9898 -0.1584 -1.3149
   15MOL   H294 6202   5.653   2.228   2.235 -1.1551 -1.1516 -0.7461
   15MOL   H295 6203   5.741   2.138   2.124 -0.6483 -0.3831  1.3877
   15MOL   C296 6204   5.595   2.299   2.050 -0.2186  0.9543  0.0857
   15MOL   O297 6205   5.640   2.301   1.914 -0.0441  0.3159  0.3934
   15MOL   C298 6206   5.579   2.378   1.812  0.3196 -0.0605  0.7541
   15MOL   O299 6207   5.625   2.507   1.812 -0.4100 -0.5130  0.3000
   15MOL   C300 6208   5.553   2.590   1.727 -0.0390  0.6429  0.0728
   15MOL   C301 6209   5.583   2.728   1.748  0.2486  0.3501  0.2249
   15MOL   C302 6210   5.519   2.823   1.678  0.4608 -0.6997 -0.8529
   15MOL   C303 6211   5.432   2.788   1.573  0.4856  0.4677 -0.1330
   15MOL   C304 6212   5.401   2.655   1.551  0.1417 -0.6850 -0.2817
   15MOL   C305 6213   5.461   2.553   1.626  0.2083  0.3286 -0.4031
   15MOL   C306 6214   5.458   2.222   2.062 -0.3472 -0.0954  0.2201
   15MOL   H307 6215   5.573   2.398   2.091  1.8894  1.1199  0.8649
   15MOL   H308 6216   5.472   2.365   1.829  0.0957 -1.3712 -1.5295
   15MOL   H309 6217   5.596   2.326   1.718 -0.1420 -1.0470  1.2039
   15MOL   H310 6218   5.657   2.756   1.821 -0.6357 -0.5778  1.5242
   15MOL   H311 6219   5.533   2.929   1.694 -0.3386 -0.6368 -0.5634
   15MOL   H312 6220   5.381   2.858   1.507  0.1976  0.0855 -0.3187
   15MOL   H313 6221   5.339   2.635   1.465  0.4249 -0.0290 -0.6384
   15MOL   H314 6222   5.441   2.449   1.607  2.5037  0.1660 -2.0780
   15MOL   H315 6223   5.375   2.283   2.027  1.0945  2.5705  1.2542
   15MOL   H316 6224   5.427   2.220   2.167 -0.8861 -2.5230  0.0339
   15MOL   C317 6225   5.455   2.089   1.983 -0.5828  0.5072  0.3370
   15MOL   O318 6226   5.327   2.060   1.934  0.6534 -0.1995 -0.3466
   15MOL   C319 6227   5.320   2.066   1.795 -0.4057 -0.3711 -0.1853
   15MOL   O320 6228   5.280   2.196   1.755  0.2802 -0.0042 -0.4149
   15MOL   C321 6229   5.258   2.214   1.624 -0.1934  0.1458  0.1191
   15MOL   C322 6230   5.166   2.315   1.599 -0.0541 -0.2464 -0.6582
   15MOL   C323 6231   5.140   2.341   1.463 -0.1700  1.3236 -0.1689
   15MOL   C324 6232   5.202   2.281   1.356 -0.0447 -0.1372 -0.2096
   15MOL   C325 6233   5.295   2.176   1.382  0.0419  0.0388 -0.3882
   15MOL   C326 6234   5.319   2.139   1.514 -0.1718 -0.3802  0.6768
   15MOL   C327 6235   5.492   1.967   2.076 -0.2022  0.3612  0.2008
   15MOL   H328 6236   5.525   2.093   1.900 -0.9420  2.2988  0.0871
   15MOL   H329 6237   5.246   1.998   1.754 -0.5053  0.7563 -1.9611
   15MOL   H330 6238   5.409   2.038   1.738  1.5239 -0.3956  2.7187
   15MOL   H331 6239   5.118   2.370   1.679  0.4882  1.7112 -1.6286
   15MOL   H332 6240   5.076   2.425   1.443 -1.5358  0.2658 -0.2693
   15MOL   H333 6241   5.167   2.314   1.259 -0.5388  1.9921  0.6533
   15MOL   H334 6242   5.335   2.117   1.301  0.4859  0.7047 -0.6552
   15MOL   H335 6243   5.380   2.051   1.531  0.3681  0.0501  0.9778
   15MOL   H336 6244   5.583   1.998   2.128  1.7011  0.0393 -2.8271
   15MOL   H337 6245   5.419   1.937   2.150 -0.7258 -1.6524 -1.1016
   15MOL   C338 6246   5.512   1.840   1.987  0.7967 -0.5864 -0.2631
   15MOL   O339 6247   5.647   1.826   1.963 -0.6314  0.3773 -0.2112
   15MOL   C340 6248   5.690   1.780   1.838 -0.1901 -0.4082 -0.1280
   15MOL   O341 6249   5.640   1.864   1.743 -0.1050 -0.0005 -0.2605
   15MOL   C342 6250   5.720   1.979   1.718  0.1922  0.2019 -0.0946
   15MOL   C343 6251   5.794   2.047   1.817  0.1220  0.3793 -0.4739
   15MOL   C344 6252   5.861   2.164   1.785 -0.4583 -0.0376  0.3699
   15MOL   C345 6253   5.854   2.209   1.647 -0.3093  0.4990  0.3312
   15MOL   C346 6254   5.788   2.139   1.547  0.2893  0.1252 -0.0022
   15MOL   C347 6255   5.718   2.029   1.587 -0.7604  0.3318 -0.3718
   15MOL   C348 6256   5.469   1.713   2.058 -0.1584  0.0792  0.2981
   15MOL   H349 6257   5.455   1.844   1.894 -0.9948  1.7455  0.8660
   15MOL   H350 6258   5.661   1.678   1.812 -0.4729  0.4432 -3.4694
   15MOL   H351 6259   5.799   1.779   1.844 -0.1731 -0.1960 -0.3766
   15MOL   H352 6260   5.805   2.016   1.919  0.2084 -0.0282 -0.6060
   15MOL   H353 6261   5.924   2.222   1.852  0.7259  0.4431 -1.1335
   15MOL   H354 6262   5.914   2.294   1.618  2.3954 -1.2750  0.5823
   15MOL   H355 6263   5.786   2.177   1.446  0.2416  0.0801 -0.0185
   15MOL   H356 6264   5.666   1.974   1.510  1.5964 -2.3401 -0.1426
   15MOL   H357 6265   5.502   1.710   2.161 -1.6802 -0.0141  0.7909
   15MOL   H358 6266   5.522   1.626   2.021 -0.0101  0.8836 -1.4520
   15MOL   C359 6267   5.320   1.667   2.041 -0.5812 -0.8394  0.2059
   15MOL   O360 6268   5.237   1.772   2.087  0.4714  0.3789 -0.2302
   15MOL   C361 6269   5.134   1.802   1.996  0.2399 -1.0746 -1.1068
   15MOL   O362 6270   5.058   1.693   1.975 -0.5682 -0.0588 -0.0406
   15MOL   C363 6271   4.955   1.672   2.064  0.0399  0.1336 -0.5173
   15MOL   C364 6272   4.956   1.730   2.194  0.0121  0.3606 -0.1709
   15MOL   C365 6273   4.848   1.706   2.281 -0.0312 -0.0022 -0.1740
   15MOL   C366 6274   4.737   1.630   2.242 -0.5771 -0.2789  0.3137
   15MOL   C367 6275   4.740   1.561   2.121 -0.3734 -0.4543  0.3581
   15MOL   C368 6276   4.847   1.582   2.037  0.0515  0.5620 -0.0581
   15MOL   C369 6277   5.285   1.527   2.101 -0.1767 -0.4126  0.3029
   15MOL   H370 6278   5.299   1.659   1.934 -0.0879 -0.6974  0.0957
   15MOL   H371 6279   5.181   1.842   1.907 -0.5446  1.1058 -0.5621
   15MOL   H372 6280   5.080   1.883   2.045 -0.0245 -2.0734  0.3070
   15MOL   H373 6281   5.043   1.785   2.226  1.1778 -0.3808 -1.9943
   15MOL   H374 6282   4.860   1.758   2.374 -0.8254 -0.9969  0.5001
   15MOL   H375 6283   4.659   1.614   2.316 -0.2095 -0.9616  0.5606
   15MOL   H376 6284   4.661   1.491   2.097 -0.1191 -0.5733 -0.1354
   15MOL   H377 6285   4.856   1.523   1.947 -0.0988 -2.2994  1.7482
   15MOL   H378 6286   5.186   1.526   2.146 -0.3791  2.7507 -0.0111
   15MOL   H379 6287   5.340   1.515   2.195  0.6369  0.2505 -0.0840
   15MOL   C380 6288   5.293   1.397   2.017 -0.6563 -0.4513  0.2540
   15MOL   O381 6289   5.401   1.407   1.925  0.0907  0.3411 -0.1234
   15MOL   C382 6290   5.514   1.355   1.990 -0.5581  0.8541  0.6254
   15MOL   O383 6291   5.521   1.219   1.965 -0.6237 -0.0527  0.0645
   15MOL   C384 6292   5.565   1.172   1.844  0.0609  0.4875 -0.8691
   15MOL   C385 6293   5.626   1.256   1.754 -0.7287 -0.2533 -0.3466
   15MOL   C386 6294   5.676   1.203   1.632 -0.3877 -0.0420  0.0408
   15MOL   C387 6295   5.653   1.070   1.595 -0.2504  0.7314 -0.0494
   15MOL   C388 6296   5.591   0.983   1.695 -0.5284 -0.5152  0.1830
   15MOL   C389 6297   5.540   1.036   1.813 -0.0532  0.7564 -0.2075
   15MOL   C390 6298   5.163   1.374   1.939 -0.2373 -0.0093  0.3374
   15MOL   H391 6299   5.307   1.312   2.084 -2.6841  0.0949  1.4219
   15MOL   H392 6300   5.606   1.406   1.962 -0.3656 -0.4364 -1.1857
   15MOL   H393 6301   5.516   1.371   2.097  0.7092  1.2589  0.5475
   15MOL   H394 6302   5.645   1.361   1.768 -0.7064 -0.6204  2.8673
   15MOL   H395 6303   5.721   1.271   1.562  0.5317 -1.8251 -1.1326
   15MOL   H396 6304   5.687   1.022   1.505  1.5057  0.5506  0.6751
   15MOL   H397 6305   5.583   0.878   1.672 -1.5345  0.0182 -1.9435
   15MOL   H398 6306   5.491   0.965   1.877 -0.0443 -1.8037 -2.9845
   15MOL   H399 6307   5.163   1.441   1.853  1.0965  0.1781  0.4623
   15MOL   H400 6308   5.086   1.402   2.011 -2.6394 -1.0703 -1.7307
   15MOL   C401 6309   5.132   1.228   1.898 -0.4936 -0.2480  0.2369
   15MOL   O402 6310   5.104   1.151   2.014 -0.3328 -0.3415  0.1499
   15MOL   C403 6311   5.171   1.025   2.022  0.7310  0.3727  0.4906
   15MOL   O404 6312   5.119   0.938   1.920  0.2493 -0.2975 -0.6156
   15MOL   C405 6313   5.178   0.821   1.903 -0.7028 -0.0488 -0.2726
   15MOL   C406 6314   5.252   0.756   2.009 -0.2081 -0.4214  1.0767
   15MOL   C407 6315   5.323   0.635   1.991 -0.4628 -0.5963 -0.5326
   15MOL   C408 6316   5.323   0.575   1.867  0.6003  0.4667  0.1412
   15MOL   C409 6317   5.248   0.638   1.763 -0.4434  0.0356 -0.3584
   15MOL   C410 6318   5.180   0.760   1.779  0.5606  0.2843  0.2267
   15MOL   C411 6319   5.007   1.228   1.803  0.1478 -0.1942  0.4418
   15MOL   H412 6320   5.224   1.184   1.859 -0.5711 -1.0383  0.9398
   15MOL   H413 6321   5.139   0.982   2.117 -0.9899  2.0334  0.7031
   15MOL   H414 6322   5.280   1.029   2.024  0.9193 -2.0743 -1.8600
   15MOL   H415 6323   5.264   0.811   2.101 -3.2254  1.2791  0.5307
   15MOL   H416 6324   5.394   0.598   2.064  0.8049 -1.0082 -1.9351
   15MOL   H417 6325   5.388   0.492   1.846  1.7856  0.7600  2.4950
   15MOL   H418 6326   5.245   0.590   1.666  1.0459  1.3164 -1.0663
   15MOL   H419 6327   5.117   0.795   1.699 -0.9544 -1.1605  0.7450
   15MOL   H420 6328   5.015   1.299   1.721  1.5745 -0.4586  0.3451
   15MOL   H421 6329   4.915   1.257   1.854  0.4972  1.6164  0.1036
   15MOL   H422 6330   5.004   1.130   1.756 -1.4579  0.3973 -0.7221
   16MOL     C1 6331   1.899   4.825   6.860 -0.3236  0.1065  1.1862
   16MOL     O2 6332   1.789   4.729   6.858 -0.1692 -0.4522 -0.3212
   16MOL     C3 6333   1.707   4.746   6.746 -0.2419  0.4761  0.6959
   16MOL     O4 6334   1.773   4.730   6.625 -0.2661 -0.1112 -0.0524
   16MOL     C5 6335   1.705   4.746   6.510  0.1284  0.4854 -0.8020
   16MOL     C6 6336   1.778   4.716   6.394  0.1474  0.4711  0.3792
   16MOL     C7 6337   1.707   4.708   6.277  0.5302  0.0761 -0.1853
   16MOL     C8 6338   1.576   4.754   6.261 -0.3891  0.1736  0.2574
   16MOL     C9 6339   1.504   4.786   6.373 -0.0659 -0.1352  0.4234
   16MOL    C10 6340   1.568   4.779   6.501  0.4617  0.6389  0.5265
   16MOL    C11 6341   1.995   4.800   6.987 -1.2140  0.2937  0.6935
   16MOL    H12 6342   1.952   4.824   6.764 -0.1415  1.3574  1.2667
   16MOL    H13 6343   1.623   4.680   6.772 -0.4309  1.3105  2.3312
   16MOL    H14 6344   1.670   4.849   6.749  0.3587  0.7248 -0.5199
   16MOL    H15 6345   1.884   4.695   6.387  0.3674  1.1640  1.5476
   16MOL    H16 6346   1.756   4.678   6.185  0.9468 -1.2434  0.4655
   16MOL    H17 6347   1.526   4.738   6.166 -0.1939  0.2672  0.1408
   16MOL    H18 6348   1.401   4.820   6.366  0.3907  0.9216 -1.4508
   16MOL    H19 6349   1.502   4.805   6.583 -1.1801 -0.3890 -0.4526
   16MOL    H20 6350   2.038   4.700   6.992  0.0001  0.8053  0.6805
   16MOL    H21 6351   1.934   4.817   7.075 -0.4649  1.6224  0.9779
   16MOL    H22 6352   1.857   4.926   6.866  2.3940  1.3091  0.7694
   16MOL    C23 6353   2.116   4.899   6.990  0.7517  0.3354  0.6218
   16MOL    O24 6354   2.207   4.855   6.893  0.0658  0.4867  0.5674
   16MOL    C25 6355   2.312   4.940   6.858  0.4031 -0.3846 -0.3990
   16MOL    O26 6356   2.424   4.935   6.942 -0.1005 -0.4163 -0.2411
   16MOL    C27 6357   2.515   4.828   6.917 -0.1484 -0.1298 -0.6321
   16MOL    C28 6358   2.474   4.709   6.845 -0.0419  0.7427  0.8546
   16MOL    C29 6359   2.574   4.619   6.806 -0.1252 -0.1371  0.1704
   16MOL    C30 6360   2.700   4.626   6.860 -0.4838  0.6605  1.1541
   16MOL    C31 6361   2.735   4.737   6.939 -0.1667  0.7881 -0.0709
   16MOL    C32 6362   2.644   4.836   6.972 -0.8848  0.2741 -0.4910
   16MOL    C33 6363   2.189   4.893   7.131 -0.0935  0.3970  0.7865
   16MOL    H34 6364   2.084   5.003   6.981  1.1745  0.7512  3.5301
   16MOL    H35 6365   2.257   5.033   6.871 -1.8942 -1.9259  1.4185
   16MOL    H36 6366   2.336   4.933   6.752  0.1059 -0.0235 -0.4936
   16MOL    H37 6367   2.373   4.697   6.810  0.5136  0.8348 -0.8389
   16MOL    H38 6368   2.558   4.538   6.737  2.7347  0.5316 -1.3476
   16MOL    H39 6369   2.776   4.552   6.838 -1.2640  0.0776  0.4076
   16MOL    H40 6370   2.833   4.753   6.981 -0.6395  1.0374  0.9377
   16MOL    H41 6371   2.680   4.915   7.037  1.6389 -2.0078  1.0278
   16MOL    H42 6372   2.256   4.979   7.131  1.1917 -0.5659 -1.0496
   16MOL    H43 6373   2.254   4.806   7.135  2.2502  2.1093  0.8574
   16MOL    C44 6374   2.107   4.904   7.259 -0.1994  0.5327 -0.2248
   16MOL    O45 6375   2.024   5.028   7.255 -0.4369 -0.5111  0.2211
   16MOL    C46 6376   1.940   5.056   7.361  0.1235 -0.3734  0.0151
   16MOL    O47 6377   1.870   5.170   7.337 -0.0857  0.0538  0.0079
   16MOL    C48 6378   1.781   5.213   7.434 -0.6461  0.3854 -0.2486
   16MOL    C49 6379   1.711   5.333   7.415 -0.2881  0.0707  0.3792
   16MOL    C50 6380   1.630   5.386   7.513  0.7030 -0.4020  0.2618
   16MOL    C51 6381   1.624   5.323   7.638  1.0165  0.4328 -0.7837
   16MOL    C52 6382   1.683   5.195   7.653  0.3164  0.2653 -0.4156
   16MOL    C53 6383   1.763   5.142   7.557 -0.6574  0.2721  0.0319
   16MOL    C54 6384   2.202   4.898   7.384  0.0051  0.8745 -0.3309
   16MOL    H55 6385   2.040   4.821   7.279 -2.1147  1.7665 -1.3464
   16MOL    H56 6386   1.996   5.071   7.453 -0.8607  1.3818  0.3656
   16MOL    H57 6387   1.873   4.971   7.369 -1.5940  0.9127 -0.2754
   16MOL    H58 6388   1.721   5.390   7.324 -0.4937  0.1634  0.4161
   16MOL    H59 6389   1.580   5.481   7.501 -0.4868 -1.3378 -2.5279
   16MOL    H60 6390   1.566   5.364   7.720  0.6484 -1.8103  0.0932
   16MOL    H61 6391   1.665   5.140   7.745  0.1506 -0.3621 -0.8225
   16MOL    H62 6392   1.814   5.048   7.576 -2.5111 -0.5910  0.9130
   16MOL    H63 6393   2.140   4.914   7.472 -0.7573  2.0679 -1.0749
   16MOL    H64 6394   2.252   4.803   7.403 -2.9050 -0.7482 -0.6089
   16MOL    C65 6395   2.307   5.006   7.412  0.7544  0.6702  0.3465
   16MOL    O66 6396   2.329   5.006   7.557 -0.1505 -0.2505  0.1374
   16MOL    C67 6397   2.272   5.107   7.635 -0.4550 -0.0962 -0.3661
   16MOL    O68 6398   2.141   5.080   7.662  0.0394  0.5826 -0.3370
   16MOL    C69 6399   2.083   5.142   7.762  0.1105 -0.1370  0.4589
   16MOL    C70 6400   1.968   5.078   7.822  0.0171 -0.3134  0.0571
   16MOL    C71 6401   1.904   5.140   7.935  0.3183  0.2653 -0.0222
   16MOL    C72 6402   1.943   5.272   7.975  0.8082 -0.2719 -0.1047
   16MOL    C73 6403   2.052   5.333   7.910 -0.4629 -0.2385  0.3425
   16MOL    C74 6404   2.130   5.268   7.814  0.3441 -0.3951 -0.0951
   16MOL    C75 6405   2.440   4.971   7.351  0.6976  0.3137 -0.1544
   16MOL    H76 6406   2.272   5.104   7.379  1.8149  2.0948  3.2462
   16MOL    H77 6407   2.273   5.206   7.589 -0.2173 -0.1918 -0.5643
   16MOL    H78 6408   2.332   5.108   7.726 -0.1745  0.6097 -0.5559
   16MOL    H79 6409   1.945   4.980   7.783  2.9540 -0.5316 -1.3042
   16MOL    H80 6410   1.820   5.091   0.006  1.7488 -1.5942  0.6861
   16MOL    H81 6411   1.892   5.324   0.080 -1.0890  1.5349 -2.3844
   16MOL    H82 6412   2.077   5.434   7.940 -1.6467 -0.5559  2.4880
   16MOL    H83 6413   2.211   5.327   7.774  0.0245  1.1073  1.3972
   16MOL    H84 6414   2.471   4.867   7.363  2.6257  0.6572 -1.8789
   16MOL    H85 6415   2.416   4.963   7.245 -2.6246  0.4189  0.5357
   16MOL    C86 6416   2.547   5.072   7.373  0.8588 -0.0901 -0.3427
   16MOL    O87 6417   2.669   5.010   7.403  0.2148 -0.1011 -0.0920
   16MOL    C88 6418   2.687   4.973   7.536  0.8743 -0.3168 -0.3930
   16MOL    O89 6419   2.687   5.086   7.626 -0.4008  0.4406 -0.4699
   16MOL    C90 6420   2.788   5.174   7.623  0.0707 -0.1121 -0.4089
   16MOL    C91 6421   2.796   5.259   7.731 -0.1833 -0.0871 -0.4174
   16MOL    C92 6422   2.903   5.357   7.738  0.3197  0.5442  0.3287
   16MOL    C93 6423   3.007   5.369   7.636 -0.1257 -0.2108 -0.0403
   16MOL    C94 6424   2.998   5.278   7.532 -0.5069  0.2883 -0.1905
   16MOL    C95 6425   2.892   5.181   7.523  0.7440  0.5214  0.0193
   16MOL    C96 6426   2.567   5.150   7.246  0.4099  0.4223  0.1765
   16MOL    H97 6427   2.530   5.134   7.462 -0.6139 -0.7640 -0.1549
   16MOL    H98 6428   2.782   4.919   7.540  0.8560 -0.3963 -1.0315
   16MOL    H99 6429   2.613   4.902   7.572  0.4454 -0.1388 -0.9293
   16MOL   H100 6430   2.723   5.249   7.810  0.6789  0.4601  0.4671
   16MOL   H101 6431   2.894   5.425   7.822 -1.5703  0.0913  0.5207
   16MOL   H102 6432   3.084   5.444   7.646 -0.1835 -0.5454  3.7109
   16MOL   H103 6433   3.076   5.278   7.457 -0.5599  1.5030 -0.2534
   16MOL   H104 6434   2.891   5.103   7.448  0.3353 -1.0147  1.6190
   16MOL   H105 6435   2.659   5.208   7.255  0.7961 -0.5051  2.5542
   16MOL   H106 6436   2.582   5.077   7.166  0.9307  0.7900 -0.0641
   16MOL   C107 6437   2.456   5.247   7.210  0.5479  0.7828  0.3953
   16MOL   O108 6438   2.475   5.381   7.260  0.4201  0.3601  0.6193
   16MOL   C109 6439   2.443   5.402   7.392 -0.7511 -0.1701 -0.2205
   16MOL   O110 6440   2.309   5.382   7.429 -0.0694  0.0918 -0.1536
   16MOL   C111 6441   2.216   5.475   7.392  0.2078  0.3484  0.2885
   16MOL   C112 6442   2.246   5.578   7.299 -0.0708 -0.3026 -0.3141
   16MOL   C113 6443   2.151   5.664   7.254 -0.1548  0.1030 -1.0468
   16MOL   C114 6444   2.024   5.665   7.311  0.0565 -0.3845  0.5176
   16MOL   C115 6445   1.986   5.564   7.396 -0.0743 -0.1916 -0.2941
   16MOL   C116 6446   2.083   5.460   7.437  0.0017 -0.5172  0.3733
   16MOL   C117 6447   2.442   5.261   7.058  0.3767 -0.7424  0.6011
   16MOL   H118 6448   2.364   5.207   7.251  0.8715 -0.7658 -0.3507
   16MOL   H119 6449   2.482   5.500   7.419  2.0779 -1.0916 -0.8375
   16MOL   H120 6450   2.515   5.342   7.447  0.1517  1.5010  0.4627
   16MOL   H121 6451   2.344   5.593   7.256  0.1537 -0.5048  0.1224
   16MOL   H122 6452   2.177   5.751   7.194 -0.1472  0.6605 -0.2469
   16MOL   H123 6453   1.964   5.750   7.281 -2.5131 -2.3462 -0.0392
   16MOL   H124 6454   1.884   5.565   7.433  0.6634 -2.3243  1.8766
   16MOL   H125 6455   2.055   5.379   7.503  1.3827 -1.0165  0.3629
   16MOL   H126 6456   2.441   5.165   7.006  0.1161 -0.9083  0.9106
   16MOL   H127 6457   2.527   5.320   7.023 -2.1848  2.8024  0.0931
   16MOL   C128 6458   2.319   5.339   7.025  0.0113  0.0859 -0.1677
   16MOL   O129 6459   2.214   5.262   7.064  0.5238 -0.6616 -0.6796
   16MOL   C130 6460   2.085   5.311   7.068  0.4324 -0.0019  0.0527
   16MOL   O131 6461   2.037   5.337   6.943  0.2286 -0.2006  0.3466
   16MOL   C132 6462   1.903   5.357   6.924 -0.5121 -0.0520 -0.1035
   16MOL   C133 6463   1.805   5.372   7.023  0.0112 -1.2730  0.4873
   16MOL   C134 6464   1.666   5.375   6.991 -0.2292  0.0191 -0.4133
   16MOL   C135 6465   1.625   5.373   6.854 -1.0643  0.1838 -0.4236
   16MOL   C136 6466   1.725   5.374   6.752 -0.2347 -0.1093 -0.4527
   16MOL   C137 6467   1.864   5.365   6.788  0.0484  0.4809  0.1540
   16MOL   C138 6468   2.325   5.371   6.874  0.0920 -0.4457 -0.3519
   16MOL   H139 6469   2.321   5.433   7.081 -0.3796  2.3126 -3.7310
   16MOL   H140 6470   2.077   5.395   7.136 -0.9374  1.2673 -1.6233
   16MOL   H141 6471   2.029   5.221   7.096 -2.0639  0.2233 -3.8177
   16MOL   H142 6472   1.829   5.357   7.128 -0.7404 -1.3812  0.6463
   16MOL   H143 6473   1.589   5.381   7.067 -0.1641  1.4304 -0.4470
   16MOL   H144 6474   1.524   5.355   6.819 -0.8245 -2.4460  0.1681
   16MOL   H145 6475   1.699   5.377   6.647  2.5600 -3.9385 -1.3586
   16MOL   H146 6476   1.941   5.355   6.713 -1.6772  1.8634 -1.8992
   16MOL   H147 6477   2.417   5.335   6.829  1.3211  2.6095 -0.3655
   16MOL   H148 6478   2.243   5.321   6.821  0.1601 -0.4172 -0.4848
   16MOL   C149 6479   2.313   5.521   6.844  0.1415 -0.1055 -0.1506
   16MOL   O150 6480   2.439   5.576   6.852  0.0076  0.2613 -0.3667
   16MOL   C151 6481   2.476   5.631   6.977 -0.4232  0.2030 -0.2070
   16MOL   O152 6482   2.388   5.722   7.032  0.0981 -0.2909  0.2182
   16MOL   C153 6483   2.408   5.850   6.994 -0.7685 -0.3262  0.7853
   16MOL   C154 6484   2.387   5.953   7.082  0.2998 -0.2123 -0.3986
   16MOL   C155 6485   2.404   6.090   7.060 -0.2816 -0.5634  0.5514
   16MOL   C156 6486   2.456   6.122   6.936 -0.0070 -0.5500 -0.6528
   16MOL   C157 6487   2.472   6.022   6.838  0.2469  0.1211 -0.1119
   16MOL   C158 6488   2.451   5.889   6.862  0.2130  0.3646 -0.8982
   16MOL   C159 6489   2.250   5.549   6.706  0.8665  0.0078  0.5658
   16MOL   H160 6490   2.247   5.570   6.915  1.1069  0.7183  0.1931
   16MOL   H161 6491   2.501   5.553   7.049 -0.1788 -1.6861 -2.2737
   16MOL   H162 6492   2.575   5.676   6.970 -0.8175  1.2574  0.8635
   16MOL   H163 6493   2.373   5.928   7.186  1.5377  1.4751  0.2094
   16MOL   H164 6494   2.372   6.161   7.135  1.2765 -1.0345  1.7064
   16MOL   H165 6495   2.468   6.227   6.915  1.0205 -0.3401  0.8191
   16MOL   H166 6496   2.521   6.058   6.749  1.6953  0.1293  0.6852
   16MOL   H167 6497   2.475   5.816   6.786  0.8732  1.9844 -2.2512
   16MOL   H168 6498   2.197   5.461   6.669  0.4801 -1.0323  3.5086
   16MOL   H169 6499   2.337   5.570   6.644 -0.5533  2.7709 -0.5809
   16MOL   C170 6500   2.158   5.674   6.702  0.0602 -0.1773 -0.3849
   16MOL   O171 6501   2.122   5.698   6.568  0.2923 -0.6080  0.6556
   16MOL   C172 6502   2.192   5.783   6.491  0.4353  0.3344 -0.1428
   16MOL   O173 6503   2.177   5.920   6.519 -0.2152  0.1751  0.5712
   16MOL   C174 6504   2.071   5.993   6.464  1.0292 -0.0175 -0.1817
   16MOL   C175 6505   2.085   6.130   6.478  0.2319  0.2243  0.9831
   16MOL   C176 6506   1.991   6.220   6.431  0.0782 -0.4332  0.2927
   16MOL   C177 6507   1.883   6.168   6.364 -0.8479  0.0813  0.1028
   16MOL   C178 6508   1.861   6.027   6.349 -0.4053 -0.2644 -0.5542
   16MOL   C179 6509   1.961   5.931   6.398 -0.2130 -0.0071  0.1517
   16MOL   C180 6510   2.029   5.647   6.782  0.4171  0.2397  0.2167
   16MOL   H181 6511   2.211   5.764   6.732 -0.2945 -0.2028  0.3106
   16MOL   H182 6512   2.184   5.760   6.385  1.1648  0.3780 -0.2060
   16MOL   H183 6513   2.298   5.764   6.503  0.8050  1.5384 -1.3593
   16MOL   H184 6514   2.182   6.163   6.512  0.3496  1.0568 -0.1257
   16MOL   H185 6515   2.009   6.327   6.435  0.9440 -0.6380  2.4852
   16MOL   H186 6516   1.809   6.232   6.319  0.4755  0.1188 -2.0982
   16MOL   H187 6517   1.773   6.006   6.290 -0.3124  0.4484 -0.9535
   16MOL   H188 6518   1.956   5.825   6.382  0.3528 -0.0485  0.2557
   16MOL   H189 6519   1.960   5.578   6.734  1.4253 -0.3112 -0.4588
   16MOL   H190 6520   2.055   5.608   6.880  0.9375  1.0299  0.4051
   16MOL   C191 6521   1.945   5.778   6.811 -0.5388  0.7967 -0.4809
   16MOL   O192 6522   2.010   5.859   6.914  0.1055 -0.5169 -0.0632
   16MOL   C193 6523   2.059   5.984   6.879  0.6512 -0.3993  0.0366
   16MOL   O194 6524   1.967   6.084   6.893  0.4649  0.0550  0.6454
   16MOL   C195 6525   2.000   6.220   6.897  0.8385  0.3056 -0.2158
   16MOL   C196 6526   1.910   6.299   6.962  0.4977  0.2011  0.4349
   16MOL   C197 6527   1.931   6.436   6.979 -0.4034  0.4209  0.1914
   16MOL   C198 6528   2.050   6.491   6.930 -0.5117  0.2665 -0.4973
   16MOL   C199 6529   2.150   6.410   6.881 -0.3060 -0.0096  0.3406
   16MOL   C200 6530   2.127   6.271   6.858  0.6978  0.1631 -0.0620
   16MOL   C201 6531   1.801   5.736   6.856  0.3589 -0.0113 -0.5229
   16MOL   H202 6532   1.920   5.824   6.716 -0.7781 -0.0114 -0.8189
   16MOL   H203 6533   2.109   5.968   6.783  1.7789  0.1753  0.5200
   16MOL   H204 6534   2.146   5.994   6.945  2.6877 -1.1113 -2.4324
   16MOL   H205 6535   1.820   6.257   7.003  0.7716  0.3296  1.1844
   16MOL   H206 6536   1.865   6.503   7.032 -0.6095  0.4026 -0.0396
   16MOL   H207 6537   2.063   6.598   6.936 -0.1170  0.0969  2.0564
   16MOL   H208 6538   2.247   6.445   6.849 -0.4107  0.4636  0.5477
   16MOL   H209 6539   2.206   6.210   6.816 -0.7669 -2.8129  1.3550
   16MOL   H210 6540   1.764   5.684   6.768 -1.4254  1.1092 -0.4412
   16MOL   H211 6541   1.809   5.667   6.940 -2.1507 -1.0964 -1.1585
   16MOL   C212 6542   1.706   5.850   6.887  0.1214 -0.3492 -0.1479
   16MOL   O213 6543   1.631   5.875   6.772  0.0693  0.0029  0.0269
   16MOL   C214 6544   1.646   6.008   6.734 -0.7598  0.1140  0.6772
   16MOL   O215 6545   1.566   6.053   6.632  0.0792  0.0002 -0.1994
   16MOL   C216 6546   1.576   6.185   6.594 -0.6979 -0.1973 -0.0225
   16MOL   C217 6547   1.475   6.234   6.509  0.2890  0.4580 -0.7405
   16MOL   C218 6548   1.480   6.366   6.460 -0.3604  0.7168 -0.4805
   16MOL   C219 6549   1.577   6.454   6.505  0.0451  0.6922  0.0057
   16MOL   C220 6550   1.674   6.411   6.599  0.1183  0.0054  0.4450
   16MOL   C221 6551   1.677   6.276   6.639  0.3550 -0.6652  0.7460
   16MOL   C222 6552   1.600   5.822   7.000  0.3685 -0.5336  0.8632
   16MOL   H223 6553   1.768   5.934   6.920 -2.6115  0.6712  2.5615
   16MOL   H224 6554   1.753   6.024   6.718 -0.7187 -0.8315 -0.0277
   16MOL   H225 6555   1.615   6.064   6.823 -0.8177  1.4613 -0.1722
   16MOL   H226 6556   1.388   6.177   6.480  0.1209  1.1188 -1.5502
   16MOL   H227 6557   1.401   6.392   6.391  1.1571 -0.2311 -2.6422
   16MOL   H228 6558   1.571   6.554   6.466  1.1327  0.4443 -0.8308
   16MOL   H229 6559   1.751   6.481   6.628 -0.3342  0.7269 -0.0900
   16MOL   H230 6560   1.758   6.252   6.706  1.3610 -0.2222 -0.2973
   16MOL   H231 6561   1.522   5.897   7.015  1.7101  0.9741  0.5330
   16MOL   H232 6562   1.548   5.733   6.966 -2.1800  0.3498  2.3256
   16MOL   C233 6563   1.655   5.807   7.139  0.0729 -1.0673  0.1288
   16MOL   O234 6564   1.629   5.921   7.221  0.3745 -0.2308 -0.3046
   16MOL   C235 6565   1.701   6.034   7.191  0.0749  1.1691  0.1540
   16MOL   O236 6566   1.838   6.022   7.173  0.5506 -0.7212  0.7967
   16MOL   C237 6567   1.914   6.013   7.288 -0.3171 -0.6635 -0.2063
   16MOL   C238 6568   2.049   6.049   7.272 -0.2272  0.3136  0.2231
   16MOL   C239 6569   2.137   6.056   7.378  0.0171  0.1384 -0.7297
   16MOL   C240 6570   2.084   6.038   7.509 -0.9511  0.5540  0.4819
   16MOL   C241 6571   1.944   6.007   7.531  0.2894  0.3430  0.0743
   16MOL   C242 6572   1.863   5.987   7.421  0.5122 -0.5101  0.0491
   16MOL   C243 6573   1.604   5.682   7.196 -0.1029 -0.5043  0.0123
   16MOL   H244 6574   1.764   5.800   7.137  0.3831  2.6102 -0.3978
   16MOL   H245 6575   1.664   6.091   7.276 -2.4182 -1.8092  1.1709
   16MOL   H246 6576   1.679   6.092   7.101  2.0149 -0.7504 -1.6064
   16MOL   H247 6577   2.095   6.071   7.176 -0.2768 -1.0622 -0.1344
   16MOL   H248 6578   2.240   6.083   7.362  0.8338 -0.9070  2.3274
   16MOL   H249 6579   2.144   6.060   7.596 -3.1265  0.6045  1.9969
   16MOL   H250 6580   1.910   5.988   7.631  1.3858 -0.9937  0.2056
   16MOL   H251 6581   1.757   5.969   7.432  0.3294  0.1582 -0.6151
   16MOL   H252 6582   1.638   5.598   7.135  2.1012  1.1256 -1.0690
   16MOL   H253 6583   1.659   5.667   7.289  0.3933  0.4110 -0.1227
   16MOL   C254 6584   1.454   5.678   7.228 -0.3572 -0.2058  0.1116
   16MOL   O255 6585   1.436   5.548   7.275  0.2073 -0.2065 -0.2120
   16MOL   C256 6586   1.304   5.494   7.257 -0.2709  0.1305 -0.1641
   16MOL   O257 6587   1.287   5.439   7.127  0.0360  0.2781 -0.5257
   16MOL   C258 6588   1.161   5.402   7.090  0.4374  0.1907 -0.5915
   16MOL   C259 6589   1.041   5.444   7.155  0.2056  0.1162 -0.5395
   16MOL   C260 6590   0.916   5.422   7.097  0.3073  0.3313 -0.4761
   16MOL   C261 6591   0.903   5.362   6.970  0.1521 -0.0922  0.2501
   16MOL   C262 6592   1.026   5.319   6.908  0.2739  0.4682  0.3000
   16MOL   C263 6593   1.153   5.331   6.970 -0.2605 -0.0590  0.3917
   16MOL   C264 6594   1.409   5.770   7.345 -0.3520  0.3083 -0.5661
   16MOL   H265 6595   1.391   5.691   7.140  0.1216 -1.4440 -0.4216
   16MOL   H266 6596   1.242   5.584   7.262  0.4225  0.7351 -1.9337
   16MOL   H267 6597   1.269   5.427   7.335  2.4595 -0.1789  0.8430
   16MOL   H268 6598   1.040   5.504   7.244 -2.2662 -1.4162  0.5385
   16MOL   H269 6599   0.827   5.446   7.153  1.0848  1.7018  0.1963
   16MOL   H270 6600   0.806   5.342   6.928 -0.6706 -3.0379  3.3075
   16MOL   H271 6601   1.021   5.265   6.815  3.2663  0.7144 -0.0600
   16MOL   H272 6602   1.242   5.289   6.925 -0.6882 -1.1622  0.5668
   16MOL   H273 6603   1.368   5.704   7.422 -2.0249  0.8531 -0.9604
   16MOL   H274 6604   1.489   5.819   7.400 -1.6719  2.1662 -0.2540
   16MOL   C275 6605   1.310   5.883   7.311  0.0103 -0.8161  0.2787
   16MOL   O276 6606   1.183   5.822   7.320 -0.1017  0.5258 -0.5959
   16MOL   C277 6607   1.088   5.835   7.220 -0.0227  1.0439 -0.2192
   16MOL   O278 6608   1.126   5.768   7.100 -0.4068  0.8384  0.2205
   16MOL   C279 6609   1.190   5.833   7.002  0.3298 -0.1501  0.2135
   16MOL   C280 6610   1.231   5.750   6.895 -0.4051 -0.3304  0.2038
   16MOL   C281 6611   1.304   5.799   6.790  0.2155 -0.2278 -0.4766
   16MOL   C282 6612   1.320   5.937   6.772 -0.7101 -0.8413 -0.0827
   16MOL   C283 6613   1.283   6.023   6.874  0.3189  0.3314  0.0829
   16MOL   C284 6614   1.217   5.975   6.993 -0.4363 -0.0493  0.7129
   16MOL   C285 6615   1.308   5.985   7.423 -0.6368 -0.0681 -0.3483
   16MOL   H286 6616   1.327   5.936   7.217 -0.5304  2.0134  1.7040
   16MOL   H287 6617   1.054   5.937   7.197 -0.2958  0.4449 -2.5842
   16MOL   H288 6618   0.996   5.787   7.254  1.8993 -1.6422  1.3072
   16MOL   H289 6619   1.197   5.649   6.878  2.5880 -1.5485  1.1899
   16MOL   H290 6620   1.318   5.730   6.708  3.1402 -0.7464  0.4011
   16MOL   H291 6621   1.371   5.983   6.689 -0.4098  0.5401  0.8616
   16MOL   H292 6622   1.290   6.130   6.873  2.5323  0.2619  2.5024
   16MOL   H293 6623   1.192   6.046   7.070  0.6894  0.1533  0.9032
   16MOL   H294 6624   1.409   6.024   7.433 -0.0792 -1.9130  1.3890
   16MOL   H295 6625   1.273   5.937   7.514  0.2982 -0.3586 -0.1384
   16MOL   C296 6626   1.236   6.118   7.394 -0.2205 -0.4275  0.2001
   16MOL   O297 6627   1.092   6.099   7.374  0.1084  0.5047 -0.4891
   16MOL   C298 6628   1.023   6.068   7.488 -0.1687  0.2584  0.3472
   16MOL   O299 6629   0.972   6.178   7.541  0.3312 -0.6860 -0.2200
   16MOL   C300 6630   0.881   6.174   7.641 -0.2618 -0.1965 -0.1640
   16MOL   C301 6631   0.865   6.063   7.721  0.6424  0.4060 -1.0209
   16MOL   C302 6632   0.770   6.059   7.829 -0.2825  0.2266  0.9102
   16MOL   C303 6633   0.681   6.169   7.848 -0.3902  0.1615  0.0565
   16MOL   C304 6634   0.688   6.277   7.754 -0.0169  0.1353 -0.6014
   16MOL   C305 6635   0.791   6.281   7.656 -0.0342 -0.4605 -0.3114
   16MOL   C306 6636   1.265   6.226   7.492  0.0023 -0.3907 -0.6863
   16MOL   H307 6637   1.269   6.158   7.298 -1.3742 -0.9720 -0.4335
   16MOL   H308 6638   1.090   6.022   7.560  0.7160  0.6857 -0.1989
   16MOL   H309 6639   0.935   6.012   7.457  1.3366 -2.0275  0.1314
   16MOL   H310 6640   0.925   5.974   7.708 -1.6434 -1.5546  1.3241
   16MOL   H311 6641   0.752   5.970   7.887 -1.4692 -0.0634  0.1071
   16MOL   H312 6642   0.602   6.158   7.921 -1.2167 -0.0685 -0.8626
   16MOL   H313 6643   0.612   6.353   7.751  0.9697  1.2747  1.7735
   16MOL   H314 6644   0.793   6.357   7.580  3.5511 -1.3744 -1.2380
   16MOL   H315 6645   1.238   6.202   7.595  0.0138 -0.2491 -0.6501
   16MOL   H316 6646   1.185   6.292   7.457  0.6988  2.7946  3.3952
   16MOL   C317 6647   1.402   6.302   7.484  0.1580  0.2267  0.3598
   16MOL   O318 6648   1.412   6.392   7.597 -0.4941 -0.4229 -0.1027
   16MOL   C319 6649   1.449   6.339   7.722  1.0356 -0.4939 -0.1739
   16MOL   O320 6650   1.560   6.266   7.719 -0.2342 -0.1929 -0.0225
   16MOL   C321 6651   1.612   6.214   7.834  0.6075  0.5812 -0.1276
   16MOL   C322 6652   1.697   6.110   7.821  0.1983  0.5210 -0.5155
   16MOL   C323 6653   1.755   6.030   7.925  0.2667 -1.2539  0.4111
   16MOL   C324 6654   1.715   6.067   0.077 -0.0252 -0.5089  0.1741
   16MOL   C325 6655   1.623   6.175   0.099  0.7152  0.2589  0.5314
   16MOL   C326 6656   1.573   6.244   7.966 -0.0940 -0.3023  0.0245
   16MOL   C327 6657   1.433   6.376   7.349 -0.3350 -0.0738 -0.2999
   16MOL   H328 6658   1.481   6.229   7.499  0.4872  0.9003  2.1174
   16MOL   H329 6659   1.364   6.290   7.769  1.4250 -0.8518  0.1650
   16MOL   H330 6660   1.470   6.425   7.786 -0.5847  0.1885 -0.5540
   16MOL   H331 6661   1.726   6.082   7.720 -1.2569 -1.2033 -0.4940
   16MOL   H332 6662   1.828   5.952   7.911  1.1287 -0.2477 -0.9078
   16MOL   H333 6663   1.753   6.016   0.164  1.0348  0.8366  0.5240
   16MOL   H334 6664   1.590   6.193   0.200  1.8122  0.3948  0.8828
   16MOL   H335 6665   1.501   6.323   0.009 -0.9987 -0.8405 -1.1372
   16MOL   H336 6666   1.429   6.299   7.272  0.5047 -1.0056  0.5707
   16MOL   H337 6667   1.357   6.451   7.327 -0.0827  0.4628  0.6425
   16MOL   C338 6668   1.572   6.443   7.334 -0.6124  0.4848  0.0653
   16MOL   O339 6669   1.672   6.339   7.311 -0.4891  0.2934 -0.0386
   16MOL   C340 6670   1.806   6.378   7.331  0.5520  0.2648  0.1411
   16MOL   O341 6671   1.842   6.399   7.463 -0.0425 -0.4626 -0.1948
   16MOL   C342 6672   1.924   6.505   7.501 -0.4759 -0.0990  0.5356
   16MOL   C343 6673   1.909   6.550   7.637  0.4865 -0.2782  0.0287
   16MOL   C344 6674   1.965   6.671   7.677 -0.2102 -0.7259  0.2740
   16MOL   C345 6675   2.045   6.740   7.586 -0.1426 -0.1693 -0.3142
   16MOL   C346 6676   2.074   6.687   7.456  0.0482  0.8079 -0.4735
   16MOL   C347 6677   2.000   6.579   7.406 -0.7381 -0.2102  0.2841
   16MOL   C348 6678   1.569   6.567   7.240 -0.5416  0.3390  0.7141
   16MOL   H349 6679   1.593   6.475   7.435 -0.3524 -0.1862  0.2254
   16MOL   H350 6680   1.813   6.468   7.270 -0.8631  0.5863  0.4273
   16MOL   H351 6681   1.867   6.299   7.288  0.7300  0.1615  0.5730
   16MOL   H352 6682   1.833   6.502   7.698 -0.7031  1.6270  0.0886
   16MOL   H353 6683   1.956   6.700   7.781  3.3458 -0.4919  0.5815
   16MOL   H354 6684   2.096   6.831   7.615 -0.4319  0.4475 -1.7191
   16MOL   H355 6685   2.132   6.742   7.385  1.0127  2.1046  1.2748
   16MOL   H356 6686   2.011   6.558   7.301  0.6563  0.5748  0.2632
   16MOL   H357 6687   1.510   6.538   7.153  1.0914 -2.4716  0.4823
   16MOL   H358 6688   1.667   6.579   7.195 -0.5144 -3.0502 -0.2715
   16MOL   C359 6689   1.528   6.699   7.314  0.4096  0.1772  0.3817
   16MOL   O360 6690   1.499   6.798   7.216 -0.4645 -0.6365  0.7095
   16MOL   C361 6691   1.374   6.781   7.154  0.4340 -0.2087  0.0550
   16MOL   O362 6692   1.272   6.753   7.247  0.8798 -0.0581 -0.1871
   16MOL   C363 6693   1.203   6.853   7.305 -0.9065 -0.1449  1.1314
   16MOL   C364 6694   1.087   6.811   7.373 -0.0520  0.0736 -0.9498
   16MOL   C365 6695   1.001   6.909   7.424 -0.4066  1.0378  0.2231
   16MOL   C366 6696   1.033   7.040   7.418  0.2509 -0.3496 -0.1763
   16MOL   C367 6697   1.141   7.079   7.335  0.2114  0.0824  0.4238
   16MOL   C368 6698   1.230   6.989   7.278  0.8717  0.7312 -0.0526
   16MOL   C369 6699   1.641   6.749   7.407  0.0229 -0.1550  0.1791
   16MOL   H370 6700   1.449   6.670   7.383 -0.2089 -0.2183 -0.4840
   16MOL   H371 6701   1.376   6.691   7.092 -1.4822 -0.9867  1.1072
   16MOL   H372 6702   1.349   6.860   7.083 -0.5724 -1.1704 -0.6837
   16MOL   H373 6703   1.066   6.709   7.402  0.2794  0.0967 -0.6253
   16MOL   H374 6704   0.916   6.876   7.483  0.2170  0.2116  0.6653
   16MOL   H375 6705   0.963   7.109   7.464  0.3769 -1.0336  1.0543
   16MOL   H376 6706   1.142   7.185   7.312 -0.2312  0.5011  2.2763
   16MOL   H377 6707   1.304   7.028   7.209  1.0760 -0.6405 -0.6180
   16MOL   H378 6708   1.708   6.820   7.358  0.3392  0.9652  2.1996
   16MOL   H379 6709   1.726   6.682   7.414 -0.1831 -0.8690 -3.0874
   16MOL   C380 6710   1.613   6.792   7.552  0.0526  0.3179 -0.2364
   16MOL   O381 6711   1.734   6.837   7.613  0.0092 -0.0100  0.0393
   16MOL   C382 6712   1.762   6.967   7.590 -0.3808 -0.7043 -0.0757
   16MOL   O383 6713   1.893   7.000   7.612 -0.1575  0.6717  0.2858
   16MOL   C384 6714   1.934   7.128   7.587 -1.4957 -0.2357 -0.6199
   16MOL   C385 6715   2.072   7.146   7.568  0.5178  0.3509  0.1777
   16MOL   C386 6716   2.118   7.277   7.537  0.2669 -0.0644  0.1614
   16MOL   C387 6717   2.024   7.381   7.530  1.0637 -0.1894 -0.2260
   16MOL   C388 6718   1.887   7.363   7.556 -0.2024  0.3754 -0.2440
   16MOL   C389 6719   1.844   7.233   7.582  0.4605  0.3686 -0.5403
   16MOL   C390 6720   1.545   6.687   7.641  0.2712  0.0514  0.1867
   16MOL   H391 6721   1.548   6.880   7.555  1.2786  1.2857 -1.4175
   16MOL   H392 6722   1.739   6.997   7.488 -1.8662  0.3668  0.5454
   16MOL   H393 6723   1.700   7.025   7.659 -2.8075  1.1698 -3.6347
   16MOL   H394 6724   2.135   7.058   7.563 -1.2248 -0.9069 -0.4788
   16MOL   H395 6725   2.220   7.299   7.510  0.9252  1.1823  3.4820
   16MOL   H396 6726   2.066   7.473   7.492 -2.2981  1.8467  0.7707
   16MOL   H397 6727   1.815   7.440   7.537 -0.2867  0.4932  0.5209
   16MOL   H398 6728   1.738   7.222   7.597  0.2557  0.0867 -2.1357
   16MOL   H399 6729   1.612   6.601   7.650 -0.9890 -0.8791  0.9157
   16MOL   H400 6730   1.461   6.647   7.585  1.5172 -0.7407 -1.1705
   16MOL   C401 6731   1.505   6.732   7.782 -0.3515 -0.6363 -0.6087
   16MOL   O402 6732   1.415   6.644   7.843  0.2164 -0.4907 -0.2125
   16MOL   C403 6733   1.323   6.713   7.923 -0.5978 -0.0285 -0.2109
   16MOL   O404 6734   1.235   6.792   7.852 -0.8424  0.6999  0.5707
   16MOL   C405 6735   1.124   6.734   7.792 -0.4897 -0.4208  0.2599
   16MOL   C406 6736   1.136   6.622   7.710 -0.0128 -0.4644  0.0547
   16MOL   C407 6737   1.019   6.571   7.644  0.2244 -0.8420 -0.5759
   16MOL   C408 6738   0.895   6.623   7.671  0.3198 -0.5595 -0.3413
   16MOL   C409 6739   0.883   6.744   7.742 -0.6678 -0.2384 -0.1200
   16MOL   C410 6740   0.998   6.798   7.809 -0.0438  0.2584 -0.1830
   16MOL   C411 6741   1.622   6.729   7.884 -0.3139  0.2667  0.1879
   16MOL   H412 6742   1.463   6.832   7.776 -0.2166 -0.6496 -1.8776
   16MOL   H413 6743   1.364   6.766   0.033  1.9238 -1.9554 -0.1757
   16MOL   H414 6744   1.263   6.635   7.970 -2.2034  1.1229 -0.3051
   16MOL   H415 6745   1.227   6.566   7.694 -0.7671 -1.2992 -1.3842
   16MOL   H416 6746   1.031   6.481   7.585 -1.3621 -1.3006 -0.2294
   16MOL   H417 6747   0.811   6.569   7.630 -0.3357  0.6523 -0.6335
   16MOL   H418 6748   0.782   6.783   7.755 -0.4189  0.0389  1.0367
   16MOL   H419 6749   0.987   6.880   7.879  1.1083  0.7535 -0.5704
   16MOL   H420 6750   1.596   6.799   7.963 -2.9004 -1.5235  0.9849
   16MOL   H421 6751   1.722   6.759   7.851  0.2454 -0.0857  1.5463
   16MOL   H422 6752   1.627   6.634   7.936 -1.2194  0.8309  1.3216
   17MOL     C1 6753   2.478   2.892   6.038  0.1960 -0.1538  0.7641
   17MOL     O2 6754   2.438   2.972   5.921  0.1895  0.0778  0.0969
   17MOL     C3 6755   2.312   2.955   5.877  0.1789 -0.1145  0.5071
   17MOL     O4 6756   2.278   3.044   5.774 -0.2487 -0.4449  0.8452
   17MOL     C5 6757   2.329   3.018   5.643  0.2446 -0.3705 -0.5052
   17MOL     C6 6758   2.404   2.901   5.609 -0.6290  0.6595 -0.5525
   17MOL     C7 6759   2.471   2.879   5.490 -0.0158  0.4002 -0.0373
   17MOL     C8 6760   2.465   2.978   5.393  0.0799  0.3676  0.7953
   17MOL     C9 6761   2.394   3.094   5.427 -0.4086 -0.3761  0.3639
   17MOL    C10 6762   2.322   3.112   5.546 -0.6082  0.7420  0.6673
   17MOL    C11 6763   2.425   2.953   6.168 -0.1196  0.0115 -0.4053
   17MOL    H12 6764   2.430   2.794   6.037 -0.0169 -0.0510  0.6966
   17MOL    H13 6765   2.285   2.851   5.856  0.0594 -0.3095  1.5879
   17MOL    H14 6766   2.247   3.002   5.951  0.2807  1.7969 -0.5811
   17MOL    H15 6767   2.414   2.826   5.686 -3.7086 -0.6629 -1.3894
   17MOL    H16 6768   2.530   2.789   5.477 -2.4256 -1.0854 -1.0201
   17MOL    H17 6769   2.509   2.964   5.295 -0.3875 -0.5214  0.7051
   17MOL    H18 6770   2.378   3.171   5.352  1.6616  0.0450  0.3188
   17MOL    H19 6771   2.279   3.210   5.561 -1.1483  0.3209  2.0164
   17MOL    H20 6772   2.316   2.962   6.165 -0.1909 -1.0726 -1.3997
   17MOL    H21 6773   2.459   3.056   6.158 -1.2949  0.3506 -1.0904
   17MOL    H22 6774   2.583   2.863   6.030 -0.3361 -1.3907 -2.7516
   17MOL    C23 6775   2.474   2.882   6.302 -0.0889 -0.1288 -0.0970
   17MOL    O24 6776   2.446   2.744   6.285  0.2407  0.6141 -0.4342
   17MOL    C25 6777   2.552   2.662   6.324  0.8221 -0.2181  0.5980
   17MOL    O26 6778   2.560   2.668   6.462 -0.4932 -0.1453 -0.2328
   17MOL    C27 6779   2.628   2.565   6.522  0.4322  0.3498  0.0629
   17MOL    C28 6780   2.655   2.573   6.659 -0.0066  0.7457 -0.3420
   17MOL    C29 6781   2.733   2.480   6.725 -0.5198  0.2520  0.1546
   17MOL    C30 6782   2.803   2.379   6.659  0.2794 -0.0974  0.0595
   17MOL    C31 6783   2.770   2.366   6.527  0.0278 -0.1306 -0.8942
   17MOL    C32 6784   2.687   2.452   6.458 -0.4599  0.1844  0.6697
   17MOL    C33 6785   2.397   2.944   6.417  0.1398 -0.5134 -0.0889
   17MOL    H34 6786   2.581   2.898   6.318  0.2128 -0.9460 -1.2536
   17MOL    H35 6787   2.638   2.684   6.261  0.1141 -1.6463 -0.9136
   17MOL    H36 6788   2.510   2.564   6.300  2.2511 -0.5327 -0.7107
   17MOL    H37 6789   2.612   2.653   6.718  0.1175  1.3822 -1.1015
   17MOL    H38 6790   2.750   2.494   6.831 -1.5809 -2.0078  0.6689
   17MOL    H39 6791   2.872   2.315   6.711  0.8242  0.3966 -0.0531
   17MOL    H40 6792   2.826   2.296   6.466 -1.2461 -0.9588 -1.1359
   17MOL    H41 6793   2.668   2.432   6.353 -1.2510  0.1096  0.8272
   17MOL    H42 6794   2.399   2.891   6.512 -3.1208 -1.5468 -0.5360
   17MOL    H43 6795   2.291   2.928   6.396  0.0237 -0.2604  0.2983
   17MOL    C44 6796   2.417   3.099   6.443  0.4232 -0.5226  0.6223
   17MOL    O45 6797   2.553   3.115   6.477 -0.1694  0.5279  0.2903
   17MOL    C46 6798   2.614   3.224   6.416 -0.5140 -0.5696  0.0165
   17MOL    O47 6799   2.642   3.210   6.279 -0.4503 -0.3697 -0.1600
   17MOL    C48 6800   2.749   3.144   6.239 -0.0634  0.2894 -0.5699
   17MOL    C49 6801   2.848   3.097   6.325  0.2664 -0.3500  0.0448
   17MOL    C50 6802   2.967   3.034   6.280  0.4022  0.0907 -0.0282
   17MOL    C51 6803   2.979   3.006   6.142 -0.3015  0.1055 -0.4364
   17MOL    C52 6804   2.886   3.068   6.055 -0.0322  0.1126  0.0164
   17MOL    C53 6805   2.767   3.132   6.098 -0.0110  0.1758  0.0397
   17MOL    C54 6806   2.327   3.145   6.561  0.2924 -0.6304  0.7133
   17MOL    H55 6807   2.383   3.147   6.351  0.7419  0.0802  0.8140
   17MOL    H56 6808   2.705   3.255   6.466 -1.8154  0.6327  1.6921
   17MOL    H57 6809   2.542   3.306   6.418  0.1351 -0.0057  0.6059
   17MOL    H58 6810   2.833   3.109   6.432  0.8823 -0.6291  0.1628
   17MOL    H59 6811   3.043   2.995   6.347  2.0349  0.9197 -1.3604
   17MOL    H60 6812   3.064   2.950   6.106 -0.4961 -0.7357  0.4087
   17MOL    H61 6813   2.894   3.051   5.949 -1.7535  1.3020 -0.3247
   17MOL    H62 6814   2.691   3.170   6.030  0.9342 -0.6388 -1.5000
   17MOL    H63 6815   2.228   3.101   6.549 -0.3193  0.8369  0.3513
   17MOL    H64 6816   2.364   3.089   6.647 -2.7257 -2.3510  0.9607
   17MOL    C65 6817   2.307   3.290   6.578  0.2172 -0.9730  1.1173
   17MOL    O66 6818   2.250   3.329   6.458  0.0311 -0.0751  0.0134
   17MOL    C67 6819   2.275   3.460   6.408  0.0225  0.3055  0.1898
   17MOL    O68 6820   2.398   3.457   6.344 -0.2849  0.1907  0.3423
   17MOL    C69 6821   2.407   3.420   6.212 -0.6221 -0.0950 -0.3253
   17MOL    C70 6822   2.527   3.448   6.147 -0.0560 -0.5370  0.4323
   17MOL    C71 6823   2.548   3.410   6.013 -0.2098 -0.0942 -0.6971
   17MOL    C72 6824   2.450   3.337   5.948  0.4233  0.1661  0.5574
   17MOL    C73 6825   2.327   3.317   6.010  0.0459 -0.5013 -0.4019
   17MOL    C74 6826   2.303   3.354   6.140  0.3272 -0.1416  0.3494
   17MOL    C75 6827   2.209   3.336   6.692  0.1330 -0.3659  0.1106
   17MOL    H76 6828   2.407   3.333   6.582  0.7647 -2.2906  1.8161
   17MOL    H77 6829   2.276   3.541   6.481 -0.3866 -0.0853  0.6326
   17MOL    H78 6830   2.200   3.497   6.337 -0.1087 -1.7610 -0.7657
   17MOL    H79 6831   2.602   3.497   6.207  0.0918  0.9603 -0.9282
   17MOL    H80 6832   2.638   3.436   5.959  0.7446 -0.4073  0.7056
   17MOL    H81 6833   2.476   3.297   5.851 -1.7823 -2.7809  1.0845
   17MOL    H82 6834   2.250   3.265   5.955 -0.1418 -1.1774  0.4856
   17MOL    H83 6835   2.215   3.314   6.189  1.0830 -2.8159 -0.4234
   17MOL    H84 6836   2.135   3.407   6.655 -0.0299 -0.5838  0.0106
   17MOL    H85 6837   2.151   3.249   6.722  0.8037 -1.1305 -0.7541
   17MOL    C86 6838   2.270   3.384   6.824 -0.6790 -0.6479  0.0223
   17MOL    O87 6839   2.167   3.461   6.876  0.1342  0.1079  0.2649
   17MOL    C88 6840   2.195   3.596   6.911  0.3616 -0.3611  0.4933
   17MOL    O89 6841   2.244   3.659   6.798  0.1923 -0.3006  0.3347
   17MOL    C90 6842   2.154   3.712   6.709  0.6286 -0.3535  0.3936
   17MOL    C91 6843   2.198   3.806   6.609  0.4171  0.1182 -0.9411
   17MOL    C92 6844   2.122   3.852   6.502  0.2124 -0.4758 -0.3560
   17MOL    C93 6845   1.986   3.805   6.500  0.0319 -0.3383  0.0167
   17MOL    C94 6846   1.939   3.721   6.603  0.6061 -0.0051 -1.1349
   17MOL    C95 6847   2.024   3.666   6.701  0.3982 -0.0153 -0.2129
   17MOL    C96 6848   2.313   3.259   6.914 -0.3764  0.1796  0.4749
   17MOL    H97 6849   2.362   3.435   6.798 -0.5208 -0.9424  0.0046
   17MOL    H98 6850   2.277   3.590   6.983  0.6273  0.0965  0.2270
   17MOL    H99 6851   2.109   3.640   6.961 -0.2288  0.0303 -0.8639
   17MOL   H100 6852   2.292   3.859   6.619 -0.4493  1.6116 -0.6481
   17MOL   H101 6853   2.157   3.917   6.423  3.9056 -2.0828 -0.1278
   17MOL   H102 6854   1.916   3.835   6.424 -2.1708 -0.2971  2.0126
   17MOL   H103 6855   1.835   3.693   6.610  0.6777  0.2316  1.3680
   17MOL   H104 6856   1.978   3.594   6.766 -2.7737  0.9468 -1.2695
   17MOL   H105 6857   2.236   3.229   6.985  0.0473  2.0652  1.7714
   17MOL   H106 6858   2.325   3.178   6.842  2.1344 -1.2265  2.4112
   17MOL   C107 6859   2.452   3.277   6.985  0.7493  0.2231 -0.1112
   17MOL   O108 6860   2.546   3.301   6.877  0.6466 -0.0153 -0.0280
   17MOL   C109 6861   2.599   3.190   6.802  0.0184 -0.6591  0.4504
   17MOL   O110 6862   2.726   3.164   6.846  0.0435  0.2462  0.4377
   17MOL   C111 6863   2.805   3.073   6.773  0.0898 -0.2125 -0.4036
   17MOL   C112 6864   2.943   3.077   6.812 -0.6752 -0.7990  0.0982
   17MOL   C113 6865   3.030   2.971   6.770  0.1119  0.0696  0.3155
   17MOL   C114 6866   2.987   2.880   6.680  0.0661 -0.1137  0.1505
   17MOL   C115 6867   2.858   2.880   6.632 -0.2143  0.6927  0.2869
   17MOL   C116 6868   2.760   2.974   6.681 -0.2049 -0.1337  0.1366
   17MOL   C117 6869   2.454   3.389   7.085 -0.6704  0.1552  0.1984
   17MOL   H118 6870   2.477   3.188   7.042  2.8585  1.8494  1.6363
   17MOL   H119 6871   2.599   3.217   6.697  0.6128 -0.0983  0.5930
   17MOL   H120 6872   2.532   3.104   6.808  0.3623 -0.8772  1.1932
   17MOL   H121 6873   2.980   3.142   6.889 -2.4149  3.0876 -2.1721
   17MOL   H122 6874   3.133   2.973   6.802  1.0503  0.7843 -2.6290
   17MOL   H123 6875   3.065   2.809   6.657 -0.5050 -0.6578 -0.1186
   17MOL   H124 6876   2.828   2.800   6.565  3.0382 -1.0259  0.8107
   17MOL   H125 6877   2.660   2.963   6.641  0.0466  1.0257 -0.8604
   17MOL   H126 6878   2.366   3.388   7.149 -0.0874 -1.5248  1.0170
   17MOL   H127 6879   2.463   3.486   7.037 -1.9291  1.3220  2.2653
   17MOL   C128 6880   2.581   3.377   7.171 -0.1939 -0.0446  1.2769
   17MOL   O129 6881   2.585   3.496   7.242 -0.3406  0.1391 -0.1295
   17MOL   C130 6882   2.523   3.501   7.364  0.0873  0.3362 -0.2927
   17MOL   O131 6883   2.549   3.406   7.459  0.3824  0.6452  0.5640
   17MOL   C132 6884   2.554   3.460   7.589 -0.0393  0.3555  0.6826
   17MOL   C133 6885   2.644   3.405   7.687 -0.0109  0.0827  0.5607
   17MOL   C134 6886   2.648   3.458   7.822 -0.3793 -0.2388  0.0408
   17MOL   C135 6887   2.568   3.566   7.864 -0.5009  0.2627  0.7563
   17MOL   C136 6888   2.469   3.605   7.774  0.3637  0.5163  0.4110
   17MOL   C137 6889   2.465   3.557   7.637 -0.2408  0.1878  0.7695
   17MOL   C138 6890   2.709   3.380   7.093  0.2957 -0.0353 -0.0321
   17MOL   H139 6891   2.566   3.289   7.235 -2.1833 -1.2611 -0.7697
   17MOL   H140 6892   2.418   3.484   7.342 -0.7645  1.5717  2.5443
   17MOL   H141 6893   2.543   3.600   7.405 -2.2768  0.0597  1.6359
   17MOL   H142 6894   2.702   3.320   7.655 -2.3940 -0.1802 -3.3838
   17MOL   H143 6895   2.718   3.409   7.889 -0.5428  0.1470  0.4924
   17MOL   H144 6896   2.571   3.593   7.968  1.3273  2.4050  0.1986
   17MOL   H145 6897   2.400   3.685   7.798 -1.4100 -1.4564  2.1736
   17MOL   H146 6898   2.387   3.596   7.573  1.0811  0.4684 -0.7032
   17MOL   H147 6899   2.713   3.281   7.049 -0.8109  0.0490 -0.3214
   17MOL   H148 6900   2.709   3.448   7.008  0.0532  0.7070  0.5537
   17MOL   C149 6901   2.844   3.405   7.169 -0.2789  0.4713 -0.2598
   17MOL   O150 6902   2.853   3.295   7.264 -0.3104  0.8383 -0.3060
   17MOL   C151 6903   2.861   3.329   7.394  0.5749 -0.4617  0.3308
   17MOL   O152 6904   2.991   3.370   7.438 -0.4707 -0.3493  0.8567
   17MOL   C153 6905   3.006   3.441   7.553  0.3695  0.2747  1.0222
   17MOL   C154 6906   3.104   3.403   7.644 -0.0337  0.1025 -0.4626
   17MOL   C155 6907   3.123   3.470   7.765 -0.0367 -0.3385 -0.8886
   17MOL   C156 6908   3.054   3.590   7.790 -0.2293  0.3304  0.0941
   17MOL   C157 6909   2.962   3.634   7.694 -0.5397  0.2784 -0.0120
   17MOL   C158 6910   2.931   3.558   7.575  0.1639  0.5849  0.2304
   17MOL   C159 6911   2.965   3.404   7.076  0.1461  0.5600  0.3623
   17MOL   H160 6912   2.840   3.492   7.234 -0.8554  0.5434 -0.3904
   17MOL   H161 6913   2.792   3.410   7.417  2.0401  1.6403 -2.3257
   17MOL   H162 6914   2.827   3.242   7.450  0.7541 -0.8750 -0.1945
   17MOL   H163 6915   3.164   3.314   7.630 -0.5707 -0.5301  1.1351
   17MOL   H164 6916   3.200   3.435   7.833  0.1047 -0.4258 -1.0948
   17MOL   H165 6917   3.061   3.654   7.877  0.2463  2.4737 -1.4800
   17MOL   H166 6918   2.915   3.730   7.707  0.4865  0.9278 -0.9967
   17MOL   H167 6919   2.860   3.585   7.498  1.0290  0.5126 -0.6150
   17MOL   H168 6920   2.955   3.487   7.007 -0.7095 -0.8871 -1.3132
   17MOL   H169 6921   2.965   3.318   7.009 -1.9864  2.2709 -1.9227
   17MOL   C170 6922   3.104   3.412   7.137 -0.8614  0.3776  0.0052
   17MOL   O171 6923   3.201   3.376   7.043 -0.2917  0.2907 -0.2548
   17MOL   C172 6924   3.247   3.242   7.064 -0.1488 -0.0067  0.5852
   17MOL   O173 6925   3.329   3.211   6.958 -0.3547  0.4558 -0.0800
   17MOL   C174 6926   3.357   3.083   6.925 -0.1293 -0.0612  0.2862
   17MOL   C175 6927   3.437   3.065   6.810  0.5575  0.0358  0.0264
   17MOL   C176 6928   3.481   2.939   6.765  0.4867 -0.2565 -0.9117
   17MOL   C177 6929   3.431   2.816   6.824 -0.1919 -0.2283  0.6662
   17MOL   C178 6930   3.350   2.832   6.945 -0.4382  0.2638 -0.1250
   17MOL   C179 6931   3.319   2.960   6.994  0.2507 -0.7629 -0.1512
   17MOL   C180 6932   3.131   3.558   7.197  0.6590 -0.3178 -0.2738
   17MOL   H181 6933   3.106   3.341   7.219 -2.5868  1.9303  1.4511
   17MOL   H182 6934   3.159   3.178   7.065 -1.4069  1.6833 -0.4633
   17MOL   H183 6935   3.305   3.229   7.156 -0.5245  2.6559  1.2485
   17MOL   H184 6936   3.476   3.145   6.749 -1.4868  0.5490 -0.6426
   17MOL   H185 6937   3.548   2.937   6.681 -0.7801  0.3840 -1.9531
   17MOL   H186 6938   3.475   2.723   6.789  1.6108  1.0248 -0.4391
   17MOL   H187 6939   3.320   2.748   7.006  1.7581  1.2128  2.3288
   17MOL   H188 6940   3.260   2.953   7.084 -0.7289  0.5681 -0.6655
   17MOL   H189 6941   3.118   3.632   7.118 -1.1741 -0.4750 -0.1442
   17MOL   H190 6942   3.052   3.578   7.269  1.1688 -2.4292  0.8888
   17MOL   C191 6943   3.267   3.581   7.272  0.0629 -0.0399 -1.0722
   17MOL   O192 6944   3.269   3.716   7.312 -0.2142 -0.1395 -0.2870
   17MOL   C193 6945   3.253   3.744   7.447 -0.2841  0.5134 -0.2378
   17MOL   O194 6946   3.366   3.706   7.517  0.5635 -0.4658 -0.0343
   17MOL   C195 6947   3.468   3.790   7.541 -0.6984 -0.7522 -0.1664
   17MOL   C196 6948   3.576   3.742   7.623  0.0659 -0.5759 -0.7663
   17MOL   C197 6949   3.670   3.841   7.659 -0.1157  0.2657 -0.6697
   17MOL   C198 6950   3.652   3.971   7.627 -0.4719  0.7162  0.2355
   17MOL   C199 6951   3.556   4.015   7.539 -0.4565  0.0316  0.4060
   17MOL   C200 6952   3.459   3.926   7.491  0.2718 -0.2976  0.3292
   17MOL   C201 6953   3.394   3.561   7.189 -0.0490  0.1326 -0.4054
   17MOL   H202 6954   3.261   3.513   7.356 -2.3950 -0.4987 -1.5961
   17MOL   H203 6955   3.170   3.699   7.503 -0.1642  2.2589  1.3982
   17MOL   H204 6956   3.228   3.847   7.473 -0.7852  0.1903  0.6047
   17MOL   H205 6957   3.583   3.644   7.668  1.9236  0.9085  2.3993
   17MOL   H206 6958   3.750   3.816   7.727  0.6944 -1.1177 -2.1036
   17MOL   H207 6959   3.723   4.041   7.670  0.4554  0.4101 -0.7697
   17MOL   H208 6960   3.560   4.120   7.515  1.5119 -0.0357  0.3991
   17MOL   H209 6961   3.378   3.964   7.432  0.3360  0.3807  0.6696
   17MOL   H210 6962   3.389   3.469   7.131 -0.8052 -0.1075  0.0296
   17MOL   H211 6963   3.398   3.640   7.115  1.9945  1.9288  1.5455
   17MOL   C212 6964   3.519   3.533   7.275  0.4892  0.1592 -0.0147
   17MOL   O213 6965   3.511   3.402   7.336  0.1860  0.4951  0.0127
   17MOL   C214 6966   3.510   3.413   7.478  0.1150  0.2889 -0.2644
   17MOL   O215 6967   3.527   3.292   7.551 -0.0704  0.5167  0.3544
   17MOL   C216 6968   3.431   3.200   7.548 -0.4814 -0.0338  1.1436
   17MOL   C217 6969   3.325   3.216   7.458  0.5803 -0.0690 -0.5622
   17MOL   C218 6970   3.229   3.109   7.451 -0.2932 -0.4916  0.2778
   17MOL   C219 6971   3.241   2.995   7.535 -0.2342  0.0800  0.1022
   17MOL   C220 6972   3.349   2.983   7.625 -0.4813  0.2081 -0.3146
   17MOL   C221 6973   3.447   3.091   7.629  0.8684 -0.1201 -0.2139
   17MOL   C222 6974   3.653   3.519   7.198  0.5262 -0.1186  0.1413
   17MOL   H223 6975   3.539   3.610   7.350 -0.4118  0.8476 -0.4736
   17MOL   H224 6976   3.422   3.459   7.522  0.8192  1.5387 -0.1398
   17MOL   H225 6977   3.600   3.470   7.501  0.1685  0.2615 -0.4038
   17MOL   H226 6978   3.317   3.296   7.386 -3.3030 -0.2256 -0.3991
   17MOL   H227 6979   3.143   3.116   7.386  1.2455 -0.2782 -1.8000
   17MOL   H228 6980   3.171   2.914   7.522 -1.2086  0.9520 -0.1754
   17MOL   H229 6981   3.365   2.891   7.678 -1.9260 -1.0732 -2.0166
   17MOL   H230 6982   3.527   3.076   7.699  1.1800 -0.0027 -0.5425
   17MOL   H231 6983   3.732   3.500   7.271  0.5728 -0.5687 -0.0231
   17MOL   H232 6984   3.653   3.428   7.138  0.9441  0.0916 -0.1786
   17MOL   C233 6985   3.678   3.647   7.118 -0.5206  0.0435  0.1377
   17MOL   O234 6986   3.696   3.756   7.211 -0.2471 -0.1743  0.5316
   17MOL   C235 6987   3.659   3.878   7.157  0.0600  0.1415 -0.0805
   17MOL   O236 6988   3.758   3.924   7.061  1.0945 -0.0198 -0.0687
   17MOL   C237 6989   3.866   3.996   7.113  0.0875 -0.2592 -0.1967
   17MOL   C238 6990   3.894   4.025   7.250 -0.1622  0.2683 -0.7832
   17MOL   C239 6991   3.999   4.113   7.294 -0.1095 -1.0083 -0.0511
   17MOL   C240 6992   4.083   4.171   7.194  0.3530 -0.1384 -0.1335
   17MOL   C241 6993   4.065   4.138   7.060  0.7608  0.8044 -0.2972
   17MOL   C242 6994   3.951   4.053   7.020 -0.2559 -0.0285 -1.0988
   17MOL   C243 6995   3.798   3.624   7.022  0.1615  0.5156 -0.4010
   17MOL   H244 6996   3.592   3.674   7.056 -0.5688  0.5423  0.4247
   17MOL   H245 6997   3.648   3.949   7.239  0.0135 -1.7180  1.5745
   17MOL   H246 6998   3.562   3.883   7.109  0.3613 -1.0815 -0.8301
   17MOL   H247 6999   3.836   3.986   7.333 -1.2428  2.2969 -0.5552
   17MOL   H248 7000   4.015   4.144   7.396 -0.7903  0.2264 -0.3095
   17MOL   H249 7001   4.160   4.237   7.231  0.3532 -1.1010  1.6396
   17MOL   H250 7002   4.130   4.176   6.982  0.3489 -2.1040 -2.1506
   17MOL   H251 7003   3.938   4.031   6.915  0.2938 -0.9113 -0.9879
   17MOL   H252 7004   3.874   3.701   7.036 -0.0894  1.0914 -2.0572
   17MOL   H253 7005   3.847   3.531   7.053 -1.6599 -0.4556 -0.3535
   17MOL   C254 7006   3.764   3.602   6.874  0.4833  0.2587  0.3968
   17MOL   O255 7007   3.677   3.490   6.854  0.5853  0.1795 -0.7442
   17MOL   C256 7008   3.719   3.362   6.868  0.1743  0.0957  0.4241
   17MOL   O257 7009   3.826   3.332   6.787 -0.1237  0.4026  0.0174
   17MOL   C258 7010   3.803   3.280   6.660 -0.6881  0.5288 -0.2638
   17MOL   C259 7011   3.913   3.220   6.598 -0.2423  0.0877 -0.4613
   17MOL   C260 7012   3.899   3.152   6.478  0.2659  0.3190  0.2019
   17MOL   C261 7013   3.771   3.149   6.420 -0.3744 -0.5112 -0.0594
   17MOL   C262 7014   3.665   3.216   6.475  0.3065  0.2191 -0.4631
   17MOL   C263 7015   3.677   3.283   6.599  0.2393 -0.5499  0.1278
   17MOL   C264 7016   3.710   3.737   6.812 -0.3239 -0.4493  0.5956
   17MOL   H265 7017   3.857   3.579   6.823 -0.6812  1.7273 -2.5498
   17MOL   H266 7018   3.635   3.294   6.850 -0.6268  1.1893 -0.0351
   17MOL   H267 7019   3.734   3.341   6.974 -1.7466  2.3535  1.1903
   17MOL   H268 7020   4.006   3.215   6.653  0.5968  3.8830 -1.3981
   17MOL   H269 7021   3.984   3.103   6.434  1.1153  2.9614 -1.2165
   17MOL   H270 7022   3.757   3.091   6.330 -1.1292  0.5239 -0.6242
   17MOL   H271 7023   3.580   3.217   6.408  1.1563  4.6772 -1.6401
   17MOL   H272 7024   3.593   3.341   6.636 -0.6088 -1.6817 -0.0126
   17MOL   H273 7025   3.639   3.786   6.879  0.4537 -0.4195  1.3994
   17MOL   H274 7026   3.796   3.803   6.804 -1.5767  0.8360 -4.0954
   17MOL   C275 7027   3.648   3.718   6.664 -0.0197  0.0448 -0.2294
   17MOL   O276 7028   3.591   3.849   6.633  0.5981  0.2016 -0.2424
   17MOL   C277 7029   3.451   3.862   6.635  0.1489 -0.1409  0.0842
   17MOL   O278 7030   3.405   3.873   6.762  1.0391 -0.0270 -0.3168
   17MOL   C279 7031   3.270   3.892   6.790 -0.3171 -0.0863  0.2195
   17MOL   C280 7032   3.239   3.925   6.920  0.6465  0.8077  0.5781
   17MOL   C281 7033   3.107   3.956   6.952  0.0329 -0.3695 -0.0078
   17MOL   C282 7034   3.011   3.956   6.848  0.5313  0.9365  0.7703
   17MOL   C283 7035   3.042   3.918   6.714 -0.0173 -0.3518  0.0938
   17MOL   C284 7036   3.170   3.873   6.692 -0.6115 -0.1100  0.3668
   17MOL   C285 7037   3.744   3.689   6.549 -0.1105 -0.3049  0.4603
   17MOL   H286 7038   3.565   3.648   6.671  0.6282 -0.6529  0.5517
   17MOL   H287 7039   3.418   3.764   6.600 -0.3073  0.0480 -0.0121
   17MOL   H288 7040   3.420   3.949   6.578 -0.8819  0.1037  1.0037
   17MOL   H289 7041   3.317   3.931   6.994  0.0001  1.6102  1.2055
   17MOL   H290 7042   3.079   3.978   7.054 -1.4930 -3.1755  0.2524
   17MOL   H291 7043   2.914   3.996   6.874  0.0467  0.0525  0.3848
   17MOL   H292 7044   2.966   3.911   6.637 -0.7004  0.6776  0.6637
   17MOL   H293 7045   3.198   3.826   6.599  0.2202  0.8227  0.1366
   17MOL   H294 7046   3.781   3.589   6.572  2.2930 -0.0110 -1.9180
   17MOL   H295 7047   3.834   3.749   6.554 -0.2729  0.0296 -0.4935
   17MOL   C296 7048   3.686   3.693   6.404 -0.2668  0.3988  0.3258
   17MOL   O297 7049   3.791   3.647   6.327 -0.0912  0.3189  0.2801
   17MOL   C298 7050   3.887   3.742   6.282  0.3556 -0.1285  0.5802
   17MOL   O299 7051   3.841   3.835   6.189 -0.9395  0.6164 -0.5918
   17MOL   C300 7052   3.931   3.911   6.117 -1.2091 -0.1642  0.2136
   17MOL   C301 7053   3.897   3.956   5.991 -0.7258  1.1467  0.4054
   17MOL   C302 7054   3.991   4.034   5.916  0.1091 -0.4480  0.8266
   17MOL   C303 7055   4.111   4.078   5.977 -0.1936  0.6389 -0.0767
   17MOL   C304 7056   4.143   4.033   6.106  0.0535 -1.6837 -0.0332
   17MOL   C305 7057   4.056   3.954   6.184  0.1294 -0.1663  0.1416
   17MOL   C306 7058   3.565   3.599   6.386 -0.2801  0.4628  0.3937
   17MOL   H307 7059   3.659   3.795   6.380  0.5223  0.6534  0.4825
   17MOL   H308 7060   3.951   3.672   6.228 -0.2282 -0.0627 -0.2052
   17MOL   H309 7061   3.946   3.778   6.366  1.3351 -0.8923  0.2345
   17MOL   H310 7062   3.801   3.924   5.953 -0.5573  1.6416 -0.4605
   17MOL   H311 7063   3.963   4.069   5.818 -1.2592 -0.9729  1.0193
   17MOL   H312 7064   4.183   4.141   5.929 -0.7560  0.9499 -0.5141
   17MOL   H313 7065   4.229   4.076   6.156 -0.8501 -0.0720  0.1784
   17MOL   H314 7066   4.082   3.947   6.289  0.0959 -0.2455  0.1445
   17MOL   H315 7067   3.503   3.586   6.475 -0.7063  0.4112  0.0881
   17MOL   H316 7068   3.605   3.500   6.362 -1.4089  0.4657 -1.5571
   17MOL   C317 7069   3.484   3.643   6.266  0.1633 -0.1220 -0.3686
   17MOL   O318 7070   3.425   3.769   6.299  0.1381 -0.3091 -0.2064
   17MOL   C319 7071   3.379   3.848   6.194  0.2314  0.3189  0.0678
   17MOL   O320 7072   3.481   3.912   6.120  0.1737  0.3783 -0.0323
   17MOL   C321 7073   3.544   4.025   6.173  0.2425 -0.5435 -0.4792
   17MOL   C322 7074   3.540   4.065   6.306 -0.2510  0.4502 -0.1886
   17MOL   C323 7075   3.590   4.192   6.349  0.2898 -0.6977 -0.3571
   17MOL   C324 7076   3.662   4.262   6.254 -0.4868  0.1967  0.7658
   17MOL   C325 7077   3.677   4.223   6.119  0.0684  0.1482  0.2231
   17MOL   C326 7078   3.606   4.108   6.079 -0.3736 -0.5089 -0.3975
   17MOL   C327 7079   3.377   3.533   6.235 -0.0053 -0.3623 -0.3531
   17MOL   H328 7080   3.558   3.658   6.188 -0.5938 -0.0094 -1.0656
   17MOL   H329 7081   3.317   3.922   6.245  2.1094  1.5954  0.5127
   17MOL   H330 7082   3.326   3.782   6.125  1.1176  0.6067 -0.8871
   17MOL   H331 7083   3.489   4.004   6.379  3.1734  1.4517  3.1989
   17MOL   H332 7084   3.577   4.224   6.451  2.4858 -2.4447  0.5248
   17MOL   H333 7085   3.709   4.354   6.283  0.0890  0.2743 -0.3861
   17MOL   H334 7086   3.747   4.263   6.047 -0.7509  0.2451 -0.5340
   17MOL   H335 7087   3.616   4.074   5.977 -0.1119 -1.9725  0.0949
   17MOL   H336 7088   3.331   3.489   6.324  0.3451  1.8557  0.9647
   17MOL   H337 7089   3.286   3.581   6.198  1.3215  0.3377 -2.7607
   17MOL   C338 7090   3.432   3.422   6.133  1.1331  0.9004  0.0837
   17MOL   O339 7091   3.323   3.336   6.090 -0.4678 -0.0349 -0.3050
   17MOL   C340 7092   3.281   3.230   6.172  0.5491 -0.7687 -0.5394
   17MOL   O341 7093   3.371   3.121   6.162  0.0124 -0.3397 -0.3780
   17MOL   C342 7094   3.353   3.008   6.230  1.0414  0.1870  0.5331
   17MOL   C343 7095   3.331   3.014   6.371 -0.2475 -0.2961  0.0003
   17MOL   C344 7096   3.325   2.897   6.447 -0.0220 -0.0183 -0.0045
   17MOL   C345 7097   3.351   2.768   6.388 -0.1661 -0.3086 -0.6269
   17MOL   C346 7098   3.367   2.761   6.247 -0.3231 -0.2674  0.6700
   17MOL   C347 7099   3.370   2.880   6.169 -0.4463  0.6244 -0.3756
   17MOL   C348 7100   3.484   3.489   6.005 -0.0625 -0.1344  0.4341
   17MOL   H349 7101   3.511   3.354   6.164  0.8001  0.8780  0.8728
   17MOL   H350 7102   3.188   3.184   6.137 -0.3446 -0.8276  1.8502
   17MOL   H351 7103   3.264   3.270   6.272 -2.4003 -1.0350 -0.8923
   17MOL   H352 7104   3.320   3.110   6.419  0.1772  0.2402 -0.9620
   17MOL   H353 7105   3.313   2.901   6.554 -0.8834 -0.4713 -0.0797
   17MOL   H354 7106   3.354   2.685   6.456 -0.2842  0.0592 -0.1717
   17MOL   H355 7107   3.381   2.664   6.202  1.7863  0.7603 -0.9559
   17MOL   H356 7108   3.369   2.875   6.061  1.6035  3.5890 -0.5850
   17MOL   H357 7109   3.456   3.594   6.008  0.3009  0.0604 -1.7732
   17MOL   H358 7110   3.433   3.441   5.922  1.1005 -1.8420  0.6738
   17MOL   C359 7111   3.641   3.474   5.981 -0.0873  0.8001 -0.9687
   17MOL   O360 7112   3.678   3.546   5.866 -0.0003 -0.3796  0.4149
   17MOL   C361 7113   3.757   3.654   5.889 -0.0247  0.9036  0.1023
   17MOL   O362 7114   3.771   3.729   5.765 -0.2962 -0.1250  0.2038
   17MOL   C363 7115   3.670   3.814   5.727 -0.5630 -0.7286  0.0703
   17MOL   C364 7116   3.687   3.882   5.605 -0.2617 -0.3007 -0.0505
   17MOL   C365 7117   3.599   3.987   5.568 -0.2445 -0.5199  0.5054
   17MOL   C366 7118   3.489   4.017   5.649 -0.0374  0.0050 -0.0880
   17MOL   C367 7119   3.469   3.951   5.772 -0.1381 -0.2083  0.4603
   17MOL   C368 7120   3.557   3.849   5.810  0.2260  0.3005  0.0776
   17MOL   C369 7121   3.688   3.329   5.954 -0.0848  0.0589  0.2631
   17MOL   H370 7122   3.694   3.515   6.067 -1.9079 -3.1734  2.1948
   17MOL   H371 7123   3.857   3.618   5.913 -0.2911 -0.4029 -0.6651
   17MOL   H372 7124   3.717   3.715   5.969 -1.8253  0.0386 -0.1038
   17MOL   H373 7125   3.770   3.867   5.536 -0.6379  3.8478 -1.5835
   17MOL   H374 7126   3.618   4.045   5.479  0.3063  0.8079  1.4663
   17MOL   H375 7127   3.429   4.102   5.623  0.6630  0.1471 -1.2750
   17MOL   H376 7128   3.400   3.985   5.848 -0.0967 -1.0360  0.8727
   17MOL   H377 7129   3.554   3.794   5.903  0.4555 -1.1940 -0.7831
   17MOL   H378 7130   3.627   3.298   5.869 -0.0464  1.1816 -0.1855
   17MOL   H379 7131   3.647   3.263   6.030 -1.5958  0.2345 -0.3659
   17MOL   C380 7132   3.838   3.307   5.930  0.1115  0.4752  0.1489
   17MOL   O381 7133   3.910   3.374   6.031  0.4360 -0.3138  0.2922
   17MOL   C382 7134   3.901   3.321   6.165 -0.0817  0.1342 -0.2793
   17MOL   O383 7135   3.978   3.397   6.254  0.6577 -1.0703 -0.1654
   17MOL   C384 7136   4.104   3.355   6.287 -0.3399  0.3353 -0.0426
   17MOL   C385 7137   4.190   3.282   6.198  0.1571  0.1999  0.1336
   17MOL   C386 7138   4.311   3.232   6.244  0.3663  0.4651 -0.3866
   17MOL   C387 7139   4.349   3.258   6.378 -0.0174  1.0187 -0.1229
   17MOL   C388 7140   4.269   3.334   6.467  0.7371 -0.2193  0.6955
   17MOL   C389 7141   4.144   3.380   6.420  0.7775 -0.2314  0.0340
   17MOL   C390 7142   3.895   3.332   5.790 -0.1608  0.4798 -0.2021
   17MOL   H391 7143   3.852   3.202   5.954  0.6218  0.5277  0.0856
   17MOL   H392 7144   3.803   3.331   6.212  1.4855  0.5390  3.0484
   17MOL   H393 7145   3.933   3.217   6.168 -1.4157 -0.2711  0.3357
   17MOL   H394 7146   4.152   3.251   6.102 -1.2555  0.6465  0.5239
   17MOL   H395 7147   4.371   3.174   6.176  0.0363  0.4974 -0.7068
   17MOL   H396 7148   4.437   3.212   6.421 -0.8894  0.3507  0.9879
   17MOL   H397 7149   4.299   3.345   6.570  0.9387 -0.2433  0.6400
   17MOL   H398 7150   4.079   3.425   6.494  0.3053  0.7824 -0.9813
   17MOL   H399 7151   3.905   3.440   5.779  1.7414  0.6590  2.7724
   17MOL   H400 7152   3.831   3.295   5.710 -0.4574  0.7069 -0.0661
   17MOL   C401 7153   4.025   3.256   5.773 -0.9830  0.0454  0.0615
   17MOL   O402 7154   3.990   3.118   5.755 -0.1945 -0.6414  0.3006
   17MOL   C403 7155   4.096   3.030   5.788 -0.2181  0.6741 -0.2608
   17MOL   O404 7156   4.127   3.026   5.923  0.1035 -0.6536 -0.5808
   17MOL   C405 7157   4.036   2.960   6.011 -0.3457 -0.2854 -0.3169
   17MOL   C406 7158   4.093   2.911   6.128  0.1484 -0.0881  0.2588
   17MOL   C407 7159   4.012   2.861   6.224 -0.5028 -0.1256 -0.4862
   17MOL   C408 7160   3.875   2.844   6.197 -0.5097 -0.4138  0.1957
   17MOL   C409 7161   3.818   2.897   6.079 -0.8157 -0.1191  0.5398
   17MOL   C410 7162   3.900   2.945   5.975 -1.2504 -0.4770  0.8648
   17MOL   C411 7163   4.115   3.305   5.660 -0.0610  0.0183  0.2646
   17MOL   H412 7164   4.076   3.271   5.868 -0.9103 -0.3766  0.0883
   17MOL   H413 7165   4.194   3.054   5.748  0.9681  0.5455  2.4744
   17MOL   H414 7166   4.076   2.933   5.742 -0.2662  0.1375  0.8737
   17MOL   H415 7167   4.198   2.909   6.154 -0.0247  1.2999  1.0902
   17MOL   H416 7168   4.040   2.809   6.314 -1.8841  1.3165  0.8118
   17MOL   H417 7169   3.814   2.813   6.281 -1.2741  0.2146 -0.1279
   17MOL   H418 7170   3.710   2.897   6.078 -0.8168  1.3155  0.1990
   17MOL   H419 7171   3.857   2.980   5.883  1.9220  3.4884  0.7298
   17MOL   H420 7172   4.079   3.267   5.563 -0.9507 -1.5964  1.1964
   17MOL   H421 7173   4.217   3.271   5.672 -0.9304 -2.8584  0.0095
   17MOL   H422 7174   4.118   3.414   5.655  1.3207  0.0172  0.9592
   18MOL     C1 7175   0.429   0.477   3.985  0.8502 -0.1472 -0.3443
   18MOL     O2 7176   0.495   0.428   4.092 -0.3921  0.3451  0.5208
   18MOL     C3 7177   0.629   0.453   4.095  0.1631 -0.1692 -0.2542
   18MOL     O4 7178   0.641   0.575   4.154  0.0853  0.7809 -0.3780
   18MOL     C5 7179   0.752   0.583   4.227 -0.4487  0.3955  0.2364
   18MOL     C6 7180   0.739   0.635   4.357 -0.3982 -0.1208  0.2216
   18MOL     C7 7181   0.857   0.647   4.431 -0.2350  0.3937  0.7998
   18MOL     C8 7182   0.989   0.619   4.385  0.4375 -0.3749  0.2899
   18MOL     C9 7183   0.999   0.581   4.245 -0.0666 -0.1859 -0.5099
   18MOL    C10 7184   0.882   0.554   4.173  0.2089  0.0861  0.1725
   18MOL    C11 7185   0.277   0.473   4.018 -0.0828 -0.2145  0.6424
   18MOL    H12 7186   0.451   0.583   3.977  1.8472 -0.3927 -0.9246
   18MOL    H13 7187   0.671   0.367   4.147 -0.0143 -0.9480 -1.3679
   18MOL    H14 7188   0.667   0.446   3.993  0.9936  0.0461  0.0347
   18MOL    H15 7189   0.648   0.679   4.395 -1.5224 -0.3733 -2.1470
   18MOL    H16 7190   0.848   0.674   4.535  2.6972  0.8195  0.9678
   18MOL    H17 7191   1.068   0.631   4.458 -0.6033  0.2038  1.3326
   18MOL    H18 7192   1.095   0.553   4.202 -0.7322  0.1376 -2.2353
   18MOL    H19 7193   0.891   0.509   4.075  1.0933  3.6691 -1.4928
   18MOL    H20 7194   0.270   0.469   4.127 -0.8194 -1.6093  0.5535
   18MOL    H21 7195   0.233   0.378   3.989  1.3441 -0.6555 -0.1308
   18MOL    H22 7196   0.447   0.446   3.883 -1.0768 -3.1429  0.1656
   18MOL    C23 7197   0.187   0.576   3.949  0.9937 -0.4272 -0.2221
   18MOL    O24 7198   0.056   0.533   3.994  0.1347  0.2802 -0.6333
   18MOL    C25 7199   7.932   0.624   3.994  0.8652 -0.5419  0.5549
   18MOL    O26 7200   7.870   0.644   3.873 -0.0411 -0.0795 -0.0160
   18MOL    C27 7201   7.800   0.546   3.809 -0.0249 -0.1058 -0.0920
   18MOL    C28 7202   7.735   0.571   3.681 -0.0377 -0.3657 -0.1477
   18MOL    C29 7203   7.662   0.475   3.612 -0.3434  0.4555  0.5704
   18MOL    C30 7204   7.644   0.349   3.666  0.1628 -0.0835 -0.2497
   18MOL    C31 7205   7.698   0.320   3.798 -0.4452 -0.2890 -0.9257
   18MOL    C32 7206   7.782   0.415   3.865  0.2612  0.2175  0.7386
   18MOL    C33 7207   0.198   0.579   3.797  0.5376  0.3503 -0.0198
   18MOL    H34 7208   0.196   0.678   3.984  0.6745  0.4376 -2.5693
   18MOL    H35 7209   7.972   0.720   4.026 -0.4710 -0.2980  1.5284
   18MOL    H36 7210   7.858   0.601   4.071 -0.9811  0.7706 -0.8032
   18MOL    H37 7211   7.734   0.668   3.635 -0.9355 -0.7966 -1.0509
   18MOL    H38 7212   7.618   0.494   3.516 -2.2001 -0.7086  1.1683
   18MOL    H39 7213   7.579   0.277   3.618  1.8677 -1.6204 -0.3269
   18MOL    H40 7214   7.678   0.220   3.835  0.4733 -0.6266 -1.3368
   18MOL    H41 7215   7.831   0.399   3.960  0.1340  0.7189  0.8888
   18MOL    H42 7216   0.107   0.532   3.759 -1.3270  0.7101  3.8406
   18MOL    H43 7217   0.283   0.519   3.763 -0.8617 -0.7299 -1.7624
   18MOL    C44 7218   0.215   0.715   3.720  0.1996 -0.0518  0.0245
   18MOL    O45 7219   0.244   0.678   3.587  0.0091 -0.4985  0.3609
   18MOL    C46 7220   0.133   0.637   3.517  0.0794 -0.3159 -0.4562
   18MOL    O47 7221   0.158   0.661   3.379 -0.5352 -0.3040 -0.0949
   18MOL    C48 7222   0.054   0.664   3.288  1.2720  0.5779 -0.5348
   18MOL    C49 7223   7.905   0.602   3.313  0.1727  0.7094  0.9631
   18MOL    C50 7224   7.803   0.586   3.210 -1.2671  0.5988 -0.2774
   18MOL    C51 7225   7.831   0.641   3.083  0.0321  0.0255 -0.1950
   18MOL    C52 7226   7.951   0.706   3.059  0.5026  0.6596 -0.0687
   18MOL    C53 7227   0.072   0.718   3.166 -0.2770 -0.0985  0.2244
   18MOL    C54 7228   0.331   0.798   3.769 -0.3349  0.1400 -0.3664
   18MOL    H55 7229   0.127   0.777   3.734  0.0739 -0.4183  0.9197
   18MOL    H56 7230   0.046   0.691   3.556 -0.3017  0.7964 -2.7393
   18MOL    H57 7231   0.140   0.529   3.524  0.4123 -0.3586 -1.4795
   18MOL    H58 7232   7.879   0.566   3.411 -0.4057 -0.0696  0.5313
   18MOL    H59 7233   7.714   0.535   3.243  0.0244  0.0804  2.4942
   18MOL    H60 7234   7.757   0.640   3.005  0.1428  0.9878 -0.3252
   18MOL    H61 7235   7.961   0.754   2.963 -0.8528  2.8078  0.8495
   18MOL    H62 7236   0.164   0.774   3.154  0.7968 -1.5556  1.5045
   18MOL    H63 7237   0.332   0.795   3.878  1.8089 -1.8617 -0.3796
   18MOL    H64 7238   0.427   0.752   3.745 -0.3479  0.0102 -0.1719
   18MOL    C65 7239   0.338   0.945   3.719  0.0846 -0.5285  0.2285
   18MOL    O66 7240   0.215   1.009   3.747 -0.3406  0.7370 -0.3542
   18MOL    C67 7241   0.175   1.083   3.639 -0.5322 -0.2123 -0.0971
   18MOL    O68 7242   0.156   1.009   3.521 -0.3437  0.0134 -0.3127
   18MOL    C69 7243   0.023   0.976   3.491 -0.4760 -0.0121  0.2933
   18MOL    C70 7244   7.901   0.959   3.589  0.4141  0.6843  0.4704
   18MOL    C71 7245   7.765   0.928   3.541  0.4624 -0.0788 -0.4506
   18MOL    C72 7246   7.732   0.921   3.400 -0.1488  0.6704  0.2135
   18MOL    C73 7247   7.841   0.934   3.310 -0.1301 -0.0998  0.1111
   18MOL    C74 7248   7.973   0.960   3.355  0.0097 -0.3455  0.2330
   18MOL    C75 7249   0.447   1.037   3.774  0.5329 -0.7068 -0.2881
   18MOL    H76 7250   0.362   0.942   3.613  1.5945 -0.9226  0.5675
   18MOL    H77 7251   0.239   1.161   3.597 -0.2996 -0.2448  0.1954
   18MOL    H78 7252   0.087   1.132   3.681 -0.1242  0.2159  0.2685
   18MOL    H79 7253   7.907   0.968   3.697 -0.3318  1.1481  0.4733
   18MOL    H80 7254   7.687   0.926   3.615  1.6333 -1.7770  0.7494
   18MOL    H81 7255   7.634   0.897   3.361  0.6432 -1.0461 -0.7683
   18MOL    H82 7256   7.819   0.910   3.207  0.1815  0.4452 -0.0820
   18MOL    H83 7257   0.075   0.970   3.281 -0.8742 -1.1718 -0.8251
   18MOL    H84 7258   0.542   0.994   3.742  0.6813 -1.7254  1.4726
   18MOL    H85 7259   0.441   1.136   3.729 -0.4693 -2.0419 -3.2465
   18MOL    C86 7260   0.447   1.057   3.929  0.5995  0.0344  1.2672
   18MOL    O87 7261   0.546   0.967   3.991 -0.2519 -0.5566  0.5018
   18MOL    C88 7262   0.530   0.941   4.128 -0.0548  0.0062  0.1032
   18MOL    O89 7263   0.411   0.897   4.162 -0.2749 -0.0138 -0.1616
   18MOL    C90 7264   0.399   0.864   4.298  0.3708 -0.5966 -0.1448
   18MOL    C91 7265   0.469   0.918   4.409 -0.4651  0.4953  0.0125
   18MOL    C92 7266   0.443   0.880   4.543 -0.8483 -0.3020  0.1040
   18MOL    C93 7267   0.348   0.774   4.568 -0.5990  0.3415 -0.1961
   18MOL    C94 7268   0.276   0.725   4.458 -0.0428  0.3340  0.3515
   18MOL    C95 7269   0.308   0.763   4.328  0.2693  0.1623 -0.7906
   18MOL    C96 7270   0.469   1.204   3.977  0.1329  0.1015  0.0175
   18MOL    H97 7271   0.351   1.015   3.960  0.2537 -0.1450 -0.0292
   18MOL    H98 7272   0.555   1.036   4.175  1.0175 -1.0582  1.7403
   18MOL    H99 7273   0.601   0.863   4.155 -1.5951 -1.8844 -1.1954
   18MOL   H100 7274   0.530   1.006   4.393  0.0931  0.0786 -0.1242
   18MOL   H101 7275   0.501   0.922   4.624 -0.8240  3.0023 -1.5473
   18MOL   H102 7276   0.331   0.735   4.667 -1.2033 -2.0488 -1.2209
   18MOL   H103 7277   0.196   0.659   4.489 -0.4954  0.3853 -0.6789
   18MOL   H104 7278   0.243   0.731   4.248  0.7782  0.2369 -1.2379
   18MOL   H105 7279   0.485   1.199   4.084 -0.3840  0.0370  0.0923
   18MOL   H106 7280   0.566   1.232   3.937  0.3278  1.5388  1.4587
   18MOL   C107 7281   0.357   1.313   3.954 -0.5371  0.3128  0.0769
   18MOL   O108 7282   0.334   1.365   4.084  0.6051 -0.0437  0.2967
   18MOL   C109 7283   0.237   1.285   4.149 -0.2175  0.1288  0.3203
   18MOL   O110 7284   0.279   1.245   4.275 -0.3687 -0.7059  0.3957
   18MOL   C111 7285   0.289   1.341   4.375 -0.4780 -0.7371  0.0076
   18MOL   C112 7286   0.315   1.300   4.506 -0.3260  0.0813 -0.4064
   18MOL   C113 7287   0.309   1.389   4.616 -0.2750  0.0780 -0.2408
   18MOL   C114 7288   0.282   1.521   4.589  0.3486 -0.6651 -0.0845
   18MOL   C115 7289   0.256   1.567   4.461 -0.1576  0.0672  0.6242
   18MOL   C116 7290   0.269   1.480   4.352 -0.3486  0.1959  0.5038
   18MOL   C117 7291   0.399   1.413   3.856  0.0356  0.0588  0.5417
   18MOL   H118 7292   0.281   1.251   3.905  0.6124  0.3996 -1.8964
   18MOL   H119 7293   0.213   1.191   4.098 -2.4951  0.7334  0.2194
   18MOL   H120 7294   0.142   1.338   4.156 -0.6518 -0.4169 -1.1391
   18MOL   H121 7295   0.335   1.196   4.529  2.2262  0.6697  0.1186
   18MOL   H122 7296   0.320   1.361   4.719  0.9310  3.4244  0.6205
   18MOL   H123 7297   0.270   1.583   4.677  0.0942  1.2129 -1.3999
   18MOL   H124 7298   0.235   1.672   4.463  2.1818  0.6072 -0.9391
   18MOL   H125 7299   0.241   1.518   4.255  2.4932  0.8082 -0.1155
   18MOL   H126 7300   0.447   1.370   3.769 -2.2214  0.9073 -1.1968
   18MOL   H127 7301   0.481   1.472   3.896 -0.0357  1.6954 -1.6249
   18MOL   C128 7302   0.280   1.509   3.815 -0.0981  0.0753  0.4423
   18MOL   O129 7303   0.298   1.566   3.684  0.1871  0.4347 -0.2332
   18MOL   C130 7304   0.235   1.515   3.578 -0.0088 -0.6052  0.5833
   18MOL   O131 7305   0.100   1.486   3.611 -0.0785 -0.4140  0.3969
   18MOL   C132 7306   0.012   1.450   3.511 -0.6907  0.0846 -0.0826
   18MOL   C133 7307   7.854   1.436   3.544 -0.3547  0.5488  0.5984
   18MOL   C134 7308   7.756   1.403   3.446  0.9114 -0.1401  0.3171
   18MOL   C135 7309   7.791   1.388   3.313 -0.1053  0.2904  0.2150
   18MOL   C136 7310   7.930   1.406   3.278 -0.5286  0.4834  0.0243
   18MOL   C137 7311   0.047   1.434   3.376 -0.3886  0.0210 -0.7420
   18MOL   C138 7312   0.259   1.624   3.914  0.5011 -0.1619 -0.6733
   18MOL   H139 7313   0.189   1.449   3.817  1.2309 -1.9769  2.9596
   18MOL   H140 7314   0.277   1.418   3.551 -0.2507 -0.5320 -0.0502
   18MOL   H141 7315   0.243   1.597   3.508 -0.9020 -0.0798  1.0828
   18MOL   H142 7316   7.830   1.453   3.648  1.6635  0.9284  1.0089
   18MOL   H143 7317   7.656   1.386   3.482  0.5185  0.7265 -0.3477
   18MOL   H144 7318   7.713   1.354   3.246  0.8285 -1.4970 -0.0065
   18MOL   H145 7319   7.973   1.399   3.180 -2.3827  0.6303 -0.8316
   18MOL   H146 7320   0.149   1.453   3.346 -1.3942  2.5908 -2.7095
   18MOL   H147 7321   0.286   1.598   4.017 -1.2721 -0.9031 -0.3715
   18MOL   H148 7322   0.336   1.698   3.891  0.5875 -1.0682 -3.4070
   18MOL   C149 7323   0.114   1.676   3.931 -0.0632 -0.4777 -0.6881
   18MOL   O150 7324   0.100   1.745   4.054  0.2438 -0.7774  0.0151
   18MOL   C151 7325   7.963   1.702   4.122  0.3507 -0.7621  0.1106
   18MOL   O152 7326   7.964   1.578   4.188  0.0994 -0.2650 -0.0999
   18MOL   C153 7327   7.865   1.553   4.278  0.1153  0.9360  0.4917
   18MOL   C154 7328   7.741   1.624   4.281 -0.5012  0.3377 -0.1812
   18MOL   C155 7329   7.636   1.579   4.358  0.3829 -0.4282 -0.5731
   18MOL   C156 7330   7.658   1.487   4.462  0.6723 -0.4341  0.2944
   18MOL   C157 7331   7.776   1.416   4.464  0.4936 -0.4435 -0.3545
   18MOL   C158 7332   7.873   1.440   4.370 -0.2395 -0.0164 -1.2776
   18MOL   C159 7333   0.088   1.771   3.819 -0.8568  0.1381 -0.1084
   18MOL   H160 7334   0.048   1.591   3.913 -0.7918 -0.2487  0.8111
   18MOL   H161 7335   7.950   1.777   4.201 -1.2651 -0.8784 -0.0192
   18MOL   H162 7336   7.873   1.704   4.060  0.2736  1.2030  0.2519
   18MOL   H163 7337   7.724   1.717   4.229 -0.3574  0.3758 -0.1612
   18MOL   H164 7338   7.540   1.630   4.356  1.9957  2.7785  0.1274
   18MOL   H165 7339   7.576   1.470   4.530  0.2682 -1.1895 -0.3644
   18MOL   H166 7340   7.784   1.341   4.541  2.4928  0.2341  0.1362
   18MOL   H167 7341   7.964   1.383   4.384 -1.0713 -0.8259  1.0622
   18MOL   H168 7342   0.094   1.725   3.720 -0.7754 -1.2013  0.4960
   18MOL   H169 7343   0.158   1.852   3.840  0.1062 -0.6033 -0.4114
   18MOL   C170 7344   7.927   1.833   3.806  0.2010 -0.5004  0.1361
   18MOL   O171 7345   7.932   1.924   3.700  0.0801  0.1345  0.4794
   18MOL   C172 7346   7.973   2.053   3.734 -0.2582 -0.3050 -0.7092
   18MOL   O173 7347   7.867   2.123   3.810  0.0154 -0.5554  0.8359
   18MOL   C174 7348   7.753   2.158   3.739  0.8885 -0.1518 -0.0163
   18MOL   C175 7349   7.735   2.143   3.601 -0.2778  1.1554  0.1798
   18MOL   C176 7350   7.612   2.188   3.542  0.3925 -0.4917 -0.6284
   18MOL   C177 7351   7.517   2.260   3.619 -0.4785  0.6498 -0.1740
   18MOL   C178 7352   7.536   2.273   3.760 -0.4854 -0.4263 -0.4157
   18MOL   C179 7353   7.649   2.213   3.815 -0.6238  0.1264 -0.7327
   18MOL   C180 7354   7.815   1.735   3.765 -0.3828  0.0854 -0.4009
   18MOL   H181 7355   7.897   1.879   3.900 -0.0863 -0.0706 -0.1643
   18MOL   H182 7356   0.023   2.115   3.648  0.5953 -1.3662 -1.2319
   18MOL   H183 7357   0.095   2.052   3.783  0.2675  2.1382 -1.6313
   18MOL   H184 7358   7.818   2.118   3.536 -0.9879  0.1686 -0.3613
   18MOL   H185 7359   7.603   2.162   3.438  0.9945 -1.1974 -0.5041
   18MOL   H186 7360   7.428   2.294   3.567 -0.8759 -0.3470 -0.1446
   18MOL   H187 7361   7.470   2.334   3.820  1.5538  0.6187  0.8218
   18MOL   H188 7362   7.657   2.198   3.921 -0.2662 -1.5512 -0.9857
   18MOL   H189 7363   7.818   1.714   3.658  0.0646  1.7662 -0.7245
   18MOL   H190 7364   7.825   1.636   3.811 -0.6196 -0.2878 -1.1374
   18MOL   C191 7365   7.678   1.789   3.791 -0.2560  0.6337  0.2130
   18MOL   O192 7366   7.669   1.792   3.933 -0.6453 -0.3253  0.1278
   18MOL   C193 7367   7.621   1.907   3.999  0.1338  0.0925  0.0249
   18MOL   O194 7368   7.490   1.943   3.954 -0.3179  0.0482 -0.2083
   18MOL   C195 7369   7.387   1.857   3.993 -0.0705  0.0509  0.9148
   18MOL   C196 7370   7.401   1.727   4.053 -0.4900  0.7033 -0.5933
   18MOL   C197 7371   7.290   1.645   4.080 -0.2415 -0.0106 -0.2755
   18MOL   C198 7372   7.161   1.688   4.050 -0.1924 -0.0530  1.0506
   18MOL   C199 7373   7.144   1.808   3.980 -0.2383 -0.6016  0.0805
   18MOL   C200 7374   7.254   1.894   3.957  0.7258 -0.2528  0.0178
   18MOL   C201 7375   7.566   1.707   3.728  0.5160  0.3263 -0.1530
   18MOL   H202 7376   7.676   1.890   3.749  2.4864  0.1661 -1.1031
   18MOL   H203 7377   7.687   1.992   3.979 -1.0106  1.4658  1.8665
   18MOL   H204 7378   7.627   1.885   4.106 -1.5438  1.7008  0.4842
   18MOL   H205 7379   7.495   1.697   4.096 -0.7355 -0.6399 -0.9625
   18MOL   H206 7380   7.305   1.553   4.135 -1.2311  1.8212  3.1518
   18MOL   H207 7381   7.081   1.620   4.073  0.7718 -0.8515  2.1692
   18MOL   H208 7382   7.043   1.836   3.953 -0.3250 -0.2283  0.7874
   18MOL   H209 7383   7.240   1.985   3.902 -0.5478 -0.0333  0.6960
   18MOL   H210 7384   7.588   1.600   3.738 -5.0020 -0.8512  1.5502
   18MOL   H211 7385   7.480   1.727   3.793  0.4336 -0.0752 -0.1344
   18MOL   C212 7386   7.532   1.737   3.582  1.0772 -0.0381 -0.0738
   18MOL   O213 7387   7.633   1.684   3.499  0.0262 -0.5344  0.0532
   18MOL   C214 7388   7.685   1.777   3.406  0.0077  0.3329  0.0250
   18MOL   O215 7389   7.586   1.838   3.323 -0.0252  0.2070 -0.1599
   18MOL   C216 7390   7.590   1.807   3.193 -0.4629  0.1578 -0.3302
   18MOL   C217 7391   7.596   1.914   3.104 -0.1495  0.2338 -0.0346
   18MOL   C218 7392   7.610   1.893   2.969  0.3625  0.4302 -0.2416
   18MOL   C219 7393   7.627   1.760   2.920 -0.0759  0.1150  0.5161
   18MOL   C220 7394   7.621   1.653   3.015 -0.1341  0.0970  0.1056
   18MOL   C221 7395   7.593   1.671   3.152 -0.4832 -0.0863 -0.3670
   18MOL   C222 7396   7.392   1.697   3.544  0.6916 -0.3211 -0.5971
   18MOL   H223 7397   7.533   1.846   3.572 -2.3643 -0.0855 -1.7256
   18MOL   H224 7398   7.767   1.728   3.355 -0.4441  0.5966 -0.9584
   18MOL   H225 7399   7.727   1.857   3.468 -0.6726  0.4916  0.2893
   18MOL   H226 7400   7.575   2.013   3.144 -1.3147  0.2558 -0.6718
   18MOL   H227 7401   7.605   1.973   2.896  2.3289  0.3757 -0.4535
   18MOL   H228 7402   7.639   1.738   2.815  0.4894  0.1282  0.5739
   18MOL   H229 7403   7.631   1.551   2.982  1.8735  0.3790 -0.2142
   18MOL   H230 7404   7.594   1.589   3.223  0.5557 -0.3312 -0.6534
   18MOL   H231 7405   7.325   1.752   3.609  0.3741 -1.7053  0.2660
   18MOL   H232 7406   7.359   1.736   3.447  1.1163  2.9368  0.5071
   18MOL   C233 7407   7.361   1.546   3.550 -0.6793 -0.3756  0.2625
   18MOL   O234 7408   7.341   1.521   3.687 -0.3477  0.0049 -0.7680
   18MOL   C235 7409   7.342   1.382   3.728 -0.9601  0.6955 -0.4058
   18MOL   O236 7410   7.464   1.328   3.695  0.6246 -0.0581  0.0701
   18MOL   C237 7411   7.559   1.324   3.796  0.3872  0.5169  0.6317
   18MOL   C238 7412   7.555   1.400   3.916  0.2528  0.2012  0.8853
   18MOL   C239 7413   7.664   1.396   4.007  0.2546  0.8882  0.3814
   18MOL   C240 7414   7.782   1.325   3.977  0.0666  0.1981  0.6736
   18MOL   C241 7415   7.786   1.255   3.854 -0.0632 -0.5048  0.2301
   18MOL   C242 7416   7.678   1.249   3.767  0.1661 -0.4948  0.1336
   18MOL   C243 7417   7.230   1.529   3.475 -0.7479  0.0597 -0.0417
   18MOL   H244 7418   7.447   1.491   3.512  0.3239  0.7819  0.7981
   18MOL   H245 7419   7.262   1.322   3.685 -0.6073 -0.0718  0.0045
   18MOL   H246 7420   7.326   1.385   3.836  3.6116  1.6539  0.3289
   18MOL   H247 7421   7.474   1.468   3.935  0.9178  1.1482  0.3927
   18MOL   H248 7422   7.660   1.445   4.104 -1.9656  1.5706 -0.0320
   18MOL   H249 7423   7.868   1.325   4.042  0.7130  0.6053 -0.1763
   18MOL   H250 7424   7.874   1.202   3.820 -0.5744 -1.5595  0.5131
   18MOL   H251 7425   7.679   1.194   3.675 -0.3958  0.6246 -0.5512
   18MOL   H252 7426   7.173   1.452   3.527  2.1261 -0.8839  1.8070
   18MOL   H253 7427   7.171   1.619   3.495 -0.7497 -0.2411  1.3611
   18MOL   C254 7428   7.243   1.485   3.328 -0.4011 -0.1824 -0.0198
   18MOL   O255 7429   7.290   1.349   3.326  0.1174  0.6702  0.1817
   18MOL   C256 7430   7.424   1.348   3.289  0.0464 -0.2584  0.0814
   18MOL   O257 7431   7.442   1.324   3.153  0.0925  0.6721 -0.8379
   18MOL   C258 7432   7.471   1.194   3.108  0.0952  0.1571 -0.7601
   18MOL   C259 7433   7.438   1.081   3.182  0.5235 -0.4337  0.0623
   18MOL   C260 7434   7.438   0.953   3.128  0.0625 -0.5077  0.2627
   18MOL   C261 7435   7.491   0.936   3.000 -0.7737 -0.0413 -0.1165
   18MOL   C262 7436   7.542   1.051   2.929 -0.4612  0.3771 -0.6191
   18MOL   C263 7437   7.530   1.179   2.983  0.3603  0.1553  0.1556
   18MOL   C264 7438   7.106   1.477   3.251  0.0628 -0.0565 -0.1650
   18MOL   H265 7439   7.299   1.555   3.266  1.2619  0.3912  2.0426
   18MOL   H266 7440   7.465   1.276   3.359  2.4139  2.0972  1.2064
   18MOL   H267 7441   7.485   1.431   3.324  0.6192 -0.0582 -1.3634
   18MOL   H268 7442   7.389   1.089   3.277 -1.9081 -0.6786 -1.1332
   18MOL   H269 7443   7.398   0.873   3.189 -1.2501 -0.9936 -1.2158
   18MOL   H270 7444   7.483   0.838   2.954 -0.3571 -0.5687  0.9345
   18MOL   H271 7445   7.581   1.038   2.829  1.9154 -0.3080  0.3801
   18MOL   H272 7446   7.551   1.264   2.920  3.2346 -0.7025 -0.0808
   18MOL   H273 7447   7.100   1.374   3.216 -0.0994 -0.3569  0.7240
   18MOL   H274 7448   7.022   1.478   3.321  1.1461  3.0432  1.2135
   18MOL   C275 7449   7.068   1.592   3.161  1.0199 -0.3290 -0.7471
   18MOL   O276 7450   7.068   1.715   3.232 -0.0847 -0.2941 -0.1852
   18MOL   C277 7451   6.942   1.750   3.296  0.2421 -0.7485 -0.0859
   18MOL   O278 7452   6.964   1.775   3.433  0.4743 -0.0532 -0.0273
   18MOL   C279 7453   7.031   1.885   3.467  0.0190 -0.2610  0.4080
   18MOL   C280 7454   7.122   1.955   3.381 -0.0840  0.6084  0.8944
   18MOL   C281 7455   7.186   2.068   3.426  0.1488 -0.0476 -0.6669
   18MOL   C282 7456   7.151   2.113   3.553 -0.6603 -0.4344  0.1792
   18MOL   C283 7457   7.061   2.041   3.640  0.3308  0.3143 -0.5262
   18MOL   C284 7458   6.997   1.931   3.592 -0.1779 -0.5036 -0.2517
   18MOL   C285 7459   7.138   1.610   3.025 -0.1394  0.1225  0.3285
   18MOL   H286 7460   6.963   1.578   3.135  0.0201  1.6779  1.9826
   18MOL   H287 7461   6.867   1.673   3.285  0.5962 -1.0527 -0.3958
   18MOL   H288 7462   6.908   1.840   3.244  0.1850  1.1754  3.1024
   18MOL   H289 7463   7.149   1.915   3.284  1.2328 -0.1330  1.5441
   18MOL   H290 7464   7.254   2.121   3.361  0.9029 -0.2855 -0.0849
   18MOL   H291 7465   7.187   2.205   3.598  2.2627 -0.6547 -1.5466
   18MOL   H292 7466   7.030   2.091   3.731  0.6344 -0.2408 -0.1116
   18MOL   H293 7467   6.924   1.878   3.652 -2.5678  3.1981  0.2847
   18MOL   H294 7468   7.095   1.546   2.948  0.2203  0.6572 -0.3138
   18MOL   H295 7469   7.244   1.594   3.046 -0.0928 -0.9697 -0.7131
   18MOL   C296 7470   7.123   1.742   2.954 -0.1577  1.0101 -0.1089
   18MOL   O297 7471   7.180   1.732   2.820  0.3758  0.2090 -0.2113
   18MOL   C298 7472   7.300   1.792   2.806 -0.2227 -0.3427 -0.2814
   18MOL   O299 7473   7.374   1.769   2.690 -0.4840  0.3980  0.4238
   18MOL   C300 7474   7.402   1.640   2.648  0.1289 -0.0269  0.7573
   18MOL   C301 7475   7.468   1.629   2.523 -0.1339 -0.1661 -0.6899
   18MOL   C302 7476   7.510   1.510   2.476 -0.5864  0.0457 -0.9497
   18MOL   C303 7477   7.488   1.400   2.553  0.3132 -0.1537 -0.3530
   18MOL   C304 7478   7.433   1.404   2.687  0.2277  0.0992 -0.4597
   18MOL   C305 7479   7.386   1.531   2.735  0.0164  0.1752 -0.2353
   18MOL   C306 7480   6.979   1.770   2.916 -0.1559  0.1484  0.0816
   18MOL   H307 7481   7.174   1.823   3.007 -2.0349  0.5758  2.4544
   18MOL   H308 7482   7.362   1.786   2.896 -1.3822  0.7953  0.6194
   18MOL   H309 7483   7.293   1.901   2.804 -1.0727 -0.3969 -0.3584
   18MOL   H310 7484   7.480   1.712   2.454 -1.9929 -0.6726 -1.6620
   18MOL   H311 7485   7.551   1.498   2.376  3.1711 -0.6770  0.5851
   18MOL   H312 7486   7.508   1.303   2.510  1.5077 -0.8291  1.6282
   18MOL   H313 7487   7.421   1.314   2.746  0.5370 -0.1413 -0.7565
   18MOL   H314 7488   7.331   1.552   2.825 -0.1085  0.9254 -0.4839
   18MOL   H315 7489   6.918   1.764   3.007 -0.5512 -1.0742 -0.2536
   18MOL   H316 7490   6.931   1.703   2.845 -1.5330 -0.4210  1.5041
   18MOL   C317 7491   6.957   1.914   2.868 -0.1374  0.2122 -0.3382
   18MOL   O318 7492   6.999   2.010   2.967  0.1616  0.1728 -0.4386
   18MOL   C319 7493   7.043   2.129   2.920  0.6191 -0.3959 -0.4100
   18MOL   O320 7494   7.165   2.117   2.862  0.5596 -0.0478  0.6388
   18MOL   C321 7495   7.283   2.161   2.924 -0.6014 -0.2124 -0.1136
   18MOL   C322 7496   7.295   2.169   3.064  0.0943 -0.1550 -0.4422
   18MOL   C323 7497   7.411   2.226   3.125  0.4235  0.2968 -0.2755
   18MOL   C324 7498   7.523   2.255   3.045 -0.4236 -0.6082  0.3953
   18MOL   C325 7499   7.509   2.242   2.905  0.0114 -0.2912  1.5296
   18MOL   C326 7500   7.391   2.197   2.845  0.9978  0.7155 -1.0258
   18MOL   C327 7501   6.807   1.936   2.849 -0.0899  0.6573 -0.5014
   18MOL   H328 7502   7.002   1.932   2.770 -1.7055  0.5473 -1.0053
   18MOL   H329 7503   7.055   2.198   3.004 -2.1732  0.2326 -0.4739
   18MOL   H330 7504   6.970   2.170   2.850 -1.4762  0.1865  2.0267
   18MOL   H331 7505   7.210   2.155   3.130  1.4145 -2.4219  0.8353
   18MOL   H332 7506   7.403   2.240   3.232  1.3476  1.6424 -0.3686
   18MOL   H333 7507   7.614   2.298   3.084  0.4695 -0.3896 -1.8459
   18MOL   H334 7508   7.586   2.276   2.838 -1.0551  0.5893  0.7404
   18MOL   H335 7509   7.381   2.196   2.737  1.6433  0.8073 -1.0919
   18MOL   H336 7510   6.799   2.019   2.778  2.1216  0.6819 -0.7614
   18MOL   H337 7511   6.759   1.853   2.798  0.8622  0.3184 -0.8565
   18MOL   C338 7512   6.713   1.942   2.968 -0.2980  0.2448 -1.0355
   18MOL   O339 7513   6.631   2.056   2.941  0.4718 -0.3134  0.7337
   18MOL   C340 7514   6.673   2.174   2.992 -0.2049 -1.0104 -0.3004
   18MOL   O341 7515   6.681   2.164   3.128  0.2982 -0.0067 -0.2230
   18MOL   C342 7516   6.774   2.229   3.201  0.5781 -0.0555 -0.1063
   18MOL   C343 7517   6.839   2.346   3.150 -0.3724  0.3144  0.5819
   18MOL   C344 7518   6.904   2.429   3.245  0.3043  0.2512  0.3722
   18MOL   C345 7519   6.908   2.395   3.381 -0.6068  0.3711  0.2173
   18MOL   C346 7520   6.857   2.272   3.429 -0.7711  0.1111 -0.2310
   18MOL   C347 7521   6.798   2.188   3.335 -0.0611  0.6157  0.2323
   18MOL   C348 7522   6.614   1.823   2.995 -0.0075 -0.1318  0.1479
   18MOL   H349 7523   6.769   1.970   3.057  1.5936 -0.4619 -1.9567
   18MOL   H350 7524   6.593   2.244   2.970  1.1722  0.9477  0.8264
   18MOL   H351 7525   6.768   2.197   2.944 -1.2489  1.9067 -1.0240
   18MOL   H352 7526   6.830   2.381   3.048 -1.1418  1.8281  1.1531
   18MOL   H353 7527   6.942   2.524   3.211 -0.7051  0.1907 -0.9555
   18MOL   H354 7528   6.963   2.446   3.459 -0.7094 -1.4935  1.5418
   18MOL   H355 7529   6.879   2.243   3.530 -1.6475  2.5953  0.7097
   18MOL   H356 7530   6.751   2.102   3.379 -0.9099  0.0262 -1.7983
   18MOL   H357 7531   6.554   1.870   3.074  1.1984 -0.5749  1.3390
   18MOL   H358 7532   6.668   1.744   3.048  1.1242 -0.3236 -1.2831
   18MOL   C359 7533   6.505   1.776   2.885  0.9079  0.0081 -0.2093
   18MOL   O360 7534   6.410   1.882   2.868  0.2273 -0.4838  0.3075
   18MOL   C361 7535   6.413   1.926   2.742  0.3945  0.6472  0.3014
   18MOL   O362 7536   6.370   1.840   2.636  0.0757  0.1991 -0.6596
   18MOL   C363 7537   6.245   1.785   2.649 -0.1257  0.2072  0.0266
   18MOL   C364 7538   6.145   1.824   2.746 -0.0460 -0.2320  0.5344
   18MOL   C365 7539   6.025   1.754   2.760 -0.3124  0.3682 -0.2210
   18MOL   C366 7540   5.997   1.647   2.674 -0.3422 -0.2564  0.1935
   18MOL   C367 7541   6.096   1.601   2.592  0.0425 -0.5908  0.3689
   18MOL   C368 7542   6.217   1.674   2.563 -0.7166 -0.2741 -0.3854
   18MOL   C369 7543   6.426   1.652   2.929  0.1009  0.5541  1.0779
   18MOL   H370 7544   6.554   1.744   2.793  2.8309  3.0081 -0.3142
   18MOL   H371 7545   6.513   1.963   2.716 -0.3407  0.5482 -2.9429
   18MOL   H372 7546   6.357   2.019   2.733  0.6730  0.7707 -0.1784
   18MOL   H373 7547   6.163   1.907   2.813 -0.4198  0.8786 -0.7240
   18MOL   H374 7548   5.958   1.778   2.840  0.4512 -0.0604  0.5556
   18MOL   H375 7549   5.908   1.586   2.684 -1.1038  0.8147 -0.0758
   18MOL   H376 7550   6.084   1.505   2.543  0.2216 -1.0124  1.1372
   18MOL   H377 7551   6.289   1.636   2.493  0.9723 -0.0299  1.1838
   18MOL   H378 7552   6.337   1.634   2.869  0.8078 -0.2053  0.2475
   18MOL   H379 7553   6.387   1.688   3.025 -3.6215 -1.9269  0.6181
   18MOL   C380 7554   6.504   1.525   2.950 -1.1662 -0.1072  0.4669
   18MOL   O381 7555   6.497   1.460   2.826 -0.1034  0.2475  0.1671
   18MOL   C382 7556   6.610   1.393   2.776  0.2768 -0.5342 -0.1119
   18MOL   O383 7557   6.721   1.478   2.754  0.7149 -0.0674  0.1472
   18MOL   C384 7558   6.725   1.552   2.634  0.0070  1.0043  0.6128
   18MOL   C385 7559   6.849   1.595   2.589 -0.3672  0.3558  0.0686
   18MOL   C386 7560   6.867   1.669   2.473 -0.1144  0.0538  0.4704
   18MOL   C387 7561   6.758   1.689   2.381 -0.5963  0.4640  0.0714
   18MOL   C388 7562   6.632   1.642   2.419  0.4008 -0.4992  0.7148
   18MOL   C389 7563   6.617   1.575   2.545 -0.2096 -0.2447 -0.1808
   18MOL   C390 7564   6.449   1.437   3.062  0.6480  0.3869  0.5492
   18MOL   H391 7565   6.605   1.553   2.979  0.1676 -1.7884 -2.4233
   18MOL   H392 7566   6.646   1.305   2.828  1.5547 -0.6744 -1.2273
   18MOL   H393 7567   6.582   1.346   2.681  0.7763  0.5866 -0.8228
   18MOL   H394 7568   6.938   1.581   2.649  0.3216  0.4940 -0.9113
   18MOL   H395 7569   6.964   1.707   2.442 -0.6266  1.4217  0.5194
   18MOL   H396 7570   6.766   1.752   2.294 -2.6329  0.8499  0.1222
   18MOL   H397 7571   6.547   1.659   2.355 -0.9497 -0.1612  2.5634
   18MOL   H398 7572   6.521   1.543   2.583  0.0213 -0.5354  0.1538
   18MOL   H399 7573   6.345   1.426   3.033  0.5540  2.2551  0.1046
   18MOL   H400 7574   6.432   1.498   3.151  0.4943  1.1781 -0.0180
   18MOL   C401 7575   6.536   1.313   3.098 -0.2993  0.0773  0.0106
   18MOL   O402 7576   6.661   1.364   3.130 -0.4065  0.0985 -0.4253
   18MOL   C403 7577   6.777   1.286   3.117  0.8732 -0.2447  0.6019
   18MOL   O404 7578   6.839   1.311   2.996 -0.1320 -0.2016  0.4012
   18MOL   C405 7579   6.943   1.239   2.953  0.4719  0.5152 -0.1584
   18MOL   C406 7580   7.000   1.272   2.830  0.0337 -0.7120 -0.3227
   18MOL   C407 7581   7.116   1.210   2.784  0.3238  0.5263  0.4111
   18MOL   C408 7582   7.171   1.109   2.866 -0.6456 -0.5479  0.1931
   18MOL   C409 7583   7.119   1.074   2.990  0.0562 -0.4664  0.6392
   18MOL   C410 7584   7.005   1.141   3.030 -0.4353  0.3127  0.6267
   18MOL   C411 7585   6.477   1.222   3.205 -0.1473 -0.1529 -0.6130
   18MOL   H412 7586   6.556   1.246   3.015 -0.2590  0.0658  0.0293
   18MOL   H413 7587   6.751   1.182   3.135  0.2470 -0.2823 -0.4659
   18MOL   H414 7588   6.835   1.317   3.204 -0.8519  4.2768  0.2796
   18MOL   H415 7589   6.954   1.352   2.773  0.6489  1.8203  2.6157
   18MOL   H416 7590   7.158   1.232   2.687  0.1974 -1.0652 -0.0295
   18MOL   H417 7591   7.264   1.062   2.837 -0.0373  0.3204  0.6942
   18MOL   H418 7592   7.173   1.000   3.048  2.1506 -1.9290 -2.9925
   18MOL   H419 7593   6.978   1.133   3.134 -0.1031  0.1222  0.6986
   18MOL   H420 7594   6.370   1.209   3.189 -0.1702 -0.1914 -0.4365
   18MOL   H421 7595   6.474   1.274   3.300 -0.1940 -0.7755 -0.2677
   18MOL   H422 7596   6.522   1.124   3.222  0.2521  0.5011  2.3344
   19MOL     C1 7597   6.336   6.957   4.831 -0.7993  0.3737  0.1541
   19MOL     O2 7598   6.407   6.863   4.750  0.3909  0.0500  0.5728
   19MOL     C3 7599   6.505   6.798   4.817  1.0713 -0.1504 -0.2688
   19MOL     O4 7600   6.460   6.667   4.858 -0.1155 -0.6066  0.2897
   19MOL     C5 7601   6.455   6.570   4.762  0.2355 -0.3682 -0.4351
   19MOL     C6 7602   6.496   6.582   4.626  0.0588  0.7132 -0.2953
   19MOL     C7 7603   6.493   6.472   4.538  0.2284 -0.4000  0.0674
   19MOL     C8 7604   6.440   6.347   4.587 -0.1658  0.0528 -0.0276
   19MOL     C9 7605   6.409   6.334   4.723  0.2838 -0.5255  0.1026
   19MOL    C10 7606   6.412   6.445   4.806  0.2531  0.2236 -0.6607
   19MOL    C11 7607   6.222   6.890   4.915  0.8559 -0.0269  0.2499
   19MOL    H12 7608   6.397   7.011   4.903 -1.3603 -0.6141  1.3835
   19MOL    H13 7609   6.585   6.790   4.744 -0.1338 -0.7432 -1.5514
   19MOL    H14 7610   6.541   6.850   4.905 -1.6649  2.0734 -0.3847
   19MOL    H15 7611   6.511   6.682   4.589  0.4399  0.4588 -0.8282
   19MOL    H16 7612   6.526   6.487   4.436  0.8701  0.8941  0.4464
   19MOL    H17 7613   6.437   6.259   4.524 -0.4835 -0.3990  0.6170
   19MOL    H18 7614   6.387   6.234   4.758 -2.2267 -0.3931 -0.9307
   19MOL    H19 7615   6.382   6.434   4.910  2.5862  3.9964  0.5223
   19MOL    H20 7616   6.273   6.809   4.968  4.3512  2.8409  1.4052
   19MOL    H21 7617   6.148   6.846   4.849  0.5720  0.5359  0.2003
   19MOL    H22 7618   6.304   7.041   4.769  0.0036  0.0973 -0.6549
   19MOL    C23 7619   6.155   7.002   5.004  0.3826  0.7427 -0.8006
   19MOL    O24 7620   6.263   7.047   5.088 -0.3718 -0.1866  0.3263
   19MOL    C25 7621   6.247   7.156   5.176  0.1217  0.1082 -0.1760
   19MOL    O26 7622   6.152   7.128   5.279 -0.5517  0.5298 -0.1524
   19MOL    C27 7623   6.192   7.041   5.381 -0.0799  0.6091 -0.1764
   19MOL    C28 7624   6.096   7.029   5.487  0.3436  0.1032  0.3390
   19MOL    C29 7625   6.118   6.931   5.585  0.0222 -0.9526  0.3044
   19MOL    C30 7626   6.238   6.859   5.588  0.4240  0.0245  0.0818
   19MOL    C31 7627   6.342   6.867   5.492  0.1833 -0.5263 -0.4338
   19MOL    C32 7628   6.313   6.960   5.390 -0.2865 -0.9427 -0.0549
   19MOL    C33 7629   6.035   6.961   5.084 -0.0138 -0.0910 -0.0566
   19MOL    H34 7630   6.131   7.084   4.937  0.7685  1.3778 -0.1576
   19MOL    H35 7631   6.220   7.245   5.118  1.5230  2.4591  2.6327
   19MOL    H36 7632   6.344   7.180   5.219  0.0197 -0.0507  0.1499
   19MOL    H37 7633   6.005   7.086   5.485 -0.0453 -0.5458 -0.6101
   19MOL    H38 7634   6.033   6.918   5.650 -0.5828  1.1159 -0.0185
   19MOL    H39 7635   6.244   6.773   5.654  0.6472 -0.9864 -1.2228
   19MOL    H40 7636   6.436   6.816   5.504  0.2748 -0.0298  1.1424
   19MOL    H41 7637   6.391   6.970   5.316 -0.7680  2.8653 -0.1728
   19MOL    H42 7638   5.991   7.027   5.159  0.9612 -1.2770  1.6171
   19MOL    H43 7639   6.067   6.888   5.158  0.1857  1.7315  1.7164
   19MOL    C44 7640   5.905   6.906   5.016 -0.3390 -0.2835  0.7015
   19MOL    O45 7641   5.827   7.018   4.986 -0.1890 -0.0021  0.7097
   19MOL    C46 7642   5.804   7.053   4.852 -0.4920  0.2084 -1.1460
   19MOL    O47 7643   5.918   7.105   4.802 -0.1380  0.2135 -0.0788
   19MOL    C48 7644   5.916   7.126   4.664  0.4957 -0.0588 -0.0268
   19MOL    C49 7645   5.809   7.109   4.574 -0.1625  1.0527  0.0850
   19MOL    C50 7646   5.817   7.132   4.437 -0.4811  0.4796  0.2488
   19MOL    C51 7647   5.940   7.176   4.385 -0.1435 -0.2056 -0.0292
   19MOL    C52 7648   6.049   7.197   4.470 -0.2369  0.5108 -0.3952
   19MOL    C53 7649   6.030   7.173   4.606 -0.5437 -0.0981  0.3734
   19MOL    C54 7650   5.827   6.806   5.098  0.0103 -0.2961 -0.1890
   19MOL    H55 7651   5.923   6.856   4.920 -2.7628  1.0135 -0.4722
   19MOL    H56 7652   5.743   7.143   4.852  0.6993  1.0424 -1.7523
   19MOL    H57 7653   5.767   6.974   4.786 -0.5377 -1.9443  1.3816
   19MOL    H58 7654   5.710   7.083   4.608  0.0244 -1.6056 -1.2893
   19MOL    H59 7655   5.735   7.118   4.368  0.8360  3.4002 -1.9987
   19MOL    H60 7656   5.952   7.197   4.280  0.9337  0.5371  0.2338
   19MOL    H61 7657   6.151   7.218   4.443  0.2996  0.3026  1.3830
   19MOL    H62 7658   6.122   7.182   4.661 -1.6671 -3.1760  2.9369
   19MOL    H63 7659   5.889   6.741   5.159  0.1438 -1.0498 -1.1196
   19MOL    H64 7660   5.785   6.868   5.177  1.3109  1.9682 -1.2067
   19MOL    C65 7661   5.710   6.721   5.039 -0.4374  0.3878  0.4888
   19MOL    O66 7662   5.773   6.598   4.976  0.5858  0.2211 -0.0469
   19MOL    C67 7663   5.724   6.579   4.845 -0.2504  0.8205 -0.1743
   19MOL    O68 7664   5.756   6.688   4.761 -0.0859  0.0898  0.1415
   19MOL    C69 7665   5.699   6.690   4.636 -0.1117  0.0278  0.1689
   19MOL    C70 7666   5.583   6.623   4.593  0.4475 -0.2767  1.0611
   19MOL    C71 7667   5.538   6.642   4.458  0.1813  0.2854  0.2556
   19MOL    C72 7668   5.604   6.724   4.369  0.4521  0.4449 -0.2891
   19MOL    C73 7669   5.725   6.785   4.412 -0.0582  0.6624  0.0907
   19MOL    C74 7670   5.768   6.775   4.548 -0.4348  0.0327  0.3087
   19MOL    C75 7671   5.607   6.674   5.145 -0.0654 -0.6080 -0.3003
   19MOL    H76 7672   5.661   6.776   4.959 -1.7728  0.3205  1.2405
   19MOL    H77 7673   5.619   6.560   4.866 -0.2111  1.6184  0.7944
   19MOL    H78 7674   5.776   6.492   4.804 -0.0060  0.6895  0.4102
   19MOL    H79 7675   5.525   6.562   4.660 -1.0289 -2.2861 -1.9443
   19MOL    H80 7676   5.443   6.598   4.430 -0.2639  1.8040 -0.6599
   19MOL    H81 7677   5.564   6.740   4.270 -0.0432 -1.7636 -0.4558
   19MOL    H82 7678   5.776   6.847   4.340 -0.6508  1.6735  0.5210
   19MOL    H83 7679   5.863   6.814   4.581  0.0370 -0.0119 -0.9698
   19MOL    H84 7680   5.555   6.585   5.109 -0.8226 -0.4552  0.3960
   19MOL    H85 7681   5.668   6.652   5.233  1.1145  0.8343 -0.7445
   19MOL    C86 7682   5.490   6.784   5.177 -0.2249  0.4424  0.6545
   19MOL    O87 7683   5.422   6.792   5.049  0.3364 -0.6249  0.3683
   19MOL    C88 7684   5.389   6.924   5.026  0.1017 -0.0009 -0.4341
   19MOL    O89 7685   5.492   6.996   4.964 -0.4109  0.1387  0.1348
   19MOL    C90 7686   5.461   7.035   4.836  0.5284  0.2037 -0.0608
   19MOL    C91 7687   5.462   6.941   4.728  0.2026 -0.6758  0.6411
   19MOL    C92 7688   5.429   6.982   4.598  0.4334  0.6378  0.7453
   19MOL    C93 7689   5.424   7.117   4.571  0.9004 -0.3072  0.8827
   19MOL    C94 7690   5.430   7.207   4.672 -0.1498  0.0616  0.0553
   19MOL    C95 7691   5.442   7.172   4.807  0.1902  1.2718 -0.1517
   19MOL    C96 7692   5.386   6.732   5.277 -0.3851  0.9540 -0.2481
   19MOL    H97 7693   5.539   6.875   5.212  2.6931 -0.5022 -0.8032
   19MOL    H98 7694   5.359   6.973   5.119  0.9907  1.5340 -0.9362
   19MOL    H99 7695   5.301   6.928   4.961 -0.7978 -0.2745  0.7445
   19MOL   H100 7696   5.479   6.836   4.748  0.3834 -0.4109  1.8839
   19MOL   H101 7697   5.421   6.924   4.507 -0.4486  2.9731 -0.7171
   19MOL   H102 7698   5.428   7.154   4.469 -0.6001 -1.9418  0.1985
   19MOL   H103 7699   5.423   7.313   4.653 -0.5656  0.3226  1.5435
   19MOL   H104 7700   5.471   7.237   4.888  1.7864 -0.9374  1.1066
   19MOL   H105 7701   5.314   6.813   5.289 -1.5659 -0.0518 -0.5161
   19MOL   H106 7702   5.323   6.654   5.235 -0.8768 -0.0388  2.2570
   19MOL   C107 7703   5.413   6.697   5.423  0.3102  0.2586 -1.3870
   19MOL   O108 7704   5.444   6.815   5.491  0.1071 -0.5467 -0.1864
   19MOL   C109 7705   5.570   6.816   5.528 -0.0178 -0.1456  0.2595
   19MOL   O110 7706   5.610   6.706   5.606  0.1454 -0.6529  0.3487
   19MOL   C111 7707   5.741   6.658   5.605  0.7173  0.1683 -0.0716
   19MOL   C112 7708   5.837   6.685   5.507  0.3661  0.4364 -0.4411
   19MOL   C113 7709   5.967   6.623   5.520  0.2773  0.1821  0.3488
   19MOL   C114 7710   5.992   6.548   5.636  0.3393 -0.4275  1.0421
   19MOL   C115 7711   5.894   6.524   5.734 -0.4187 -0.4207 -0.1177
   19MOL   C116 7712   5.762   6.572   5.716  0.0045 -0.8012  0.5071
   19MOL   C117 7713   5.286   6.635   5.486  0.1621  0.5855 -0.4788
   19MOL   H118 7714   5.493   6.624   5.432  1.9250  2.3874  4.0969
   19MOL   H119 7715   5.576   6.896   5.603  3.7753 -0.0748  0.0080
   19MOL   H120 7716   5.630   6.845   5.442 -0.0080  2.8223  1.1818
   19MOL   H121 7717   5.813   6.739   5.417  0.8309  1.7619  0.2162
   19MOL   H122 7718   6.051   6.636   5.454  0.1599  1.3394  0.4213
   19MOL   H123 7719   6.096   6.524   5.655  1.0173  0.8028 -0.9995
   19MOL   H124 7720   5.912   6.459   5.819 -1.3959  1.3352  1.4807
   19MOL   H125 7721   5.678   6.547   5.779 -2.0456  0.9088 -1.4823
   19MOL   H126 7722   5.198   6.697   5.470 -2.3179 -2.4531  1.0392
   19MOL   H127 7723   5.295   6.640   5.594 -0.1024  0.6759 -0.4611
   19MOL   C128 7724   5.258   6.491   5.443  0.1098 -0.1172  0.5461
   19MOL   O129 7725   5.127   6.469   5.502 -0.0263  0.1567  0.4350
   19MOL   C130 7726   5.026   6.433   5.413  0.0332  0.5802  0.6780
   19MOL   O131 7727   5.026   6.291   5.399 -0.3443 -0.3820 -0.0881
   19MOL   C132 7728   4.953   6.221   5.501 -0.3772  0.3935 -0.4777
   19MOL   C133 7729   4.929   6.083   5.482  0.5257  0.2128 -0.8176
   19MOL   C134 7730   4.853   6.007   5.578  0.3578  0.9186 -0.0125
   19MOL   C135 7731   4.800   6.071   5.692  0.3076  0.3906 -0.9632
   19MOL   C136 7732   4.825   6.208   5.715  0.3128 -0.3288 -0.0727
   19MOL   C137 7733   4.894   6.282   5.618  0.4800  0.7281 -0.1176
   19MOL   C138 7734   5.349   6.388   5.502  0.9017 -0.2160  0.5776
   19MOL   H139 7735   5.245   6.488   5.335  0.5906 -0.3346  0.4920
   19MOL   H140 7736   5.028   6.466   5.309 -0.1555  1.6763  1.0132
   19MOL   H141 7737   4.933   6.476   5.451 -1.5805 -0.1885 -2.2319
   19MOL   H142 7738   4.982   6.039   5.399 -0.2752  1.6120 -2.0752
   19MOL   H143 7739   4.825   5.904   5.558  0.7124  0.7144  0.5169
   19MOL   H144 7740   4.750   6.016   5.771  0.4305 -0.2411 -1.3225
   19MOL   H145 7741   4.776   6.253   5.801 -0.1082 -2.7916  1.0226
   19MOL   H146 7742   4.909   6.387   5.638  0.6877  0.6044  0.3787
   19MOL   H147 7743   5.445   6.432   5.527  2.1811 -2.2635 -0.5643
   19MOL   H148 7744   5.317   6.355   5.601  0.9061  1.4147  1.1257
   19MOL   C149 7745   5.359   6.260   5.413 -0.1978 -0.6581 -0.0354
   19MOL   O150 7746   5.412   6.309   5.286 -0.0091  0.6215  0.0891
   19MOL   C151 7747   5.335   6.268   5.175  0.1447 -0.4214  0.0744
   19MOL   O152 7748   5.350   6.352   5.063  0.8526 -0.5733 -0.0096
   19MOL   C153 7749   5.461   6.322   4.989 -0.7146  0.2273 -0.5814
   19MOL   C154 7750   5.592   6.292   5.037 -0.4402 -0.5965  0.2647
   19MOL   C155 7751   5.695   6.241   4.957  0.7433 -0.3258  0.1066
   19MOL   C156 7752   5.665   6.234   4.822  1.4166  0.3137 -0.1736
   19MOL   C157 7753   5.542   6.269   4.766 -0.2517  0.2834 -0.6969
   19MOL   C158 7754   5.437   6.311   4.852 -0.2608 -0.4229  0.4532
   19MOL   C159 7755   5.449   6.165   5.473 -0.7959 -0.1921  0.0091
   19MOL   H160 7756   5.258   6.219   5.410 -0.1488 -0.9914  2.3857
   19MOL   H161 7757   5.369   6.168   5.146 -0.9292 -0.2638 -1.8024
   19MOL   H162 7758   5.231   6.259   5.205 -0.6509  2.5324 -1.6459
   19MOL   H163 7759   5.607   6.313   5.142 -0.7306 -2.3914  0.6837
   19MOL   H164 7760   5.790   6.225   5.006  1.6215  1.1232 -1.0887
   19MOL   H165 7761   5.739   6.209   4.747  1.9440 -1.6374  0.9436
   19MOL   H166 7762   5.528   6.268   4.659 -1.2679  1.0851 -0.5891
   19MOL   H167 7763   5.338   6.326   4.811 -1.0910 -2.3515  1.7029
   19MOL   H168 7764   5.454   6.171   5.582  0.0557  0.6670 -0.0589
   19MOL   H169 7765   5.542   6.210   5.438 -0.0708 -0.2741  1.7830
   19MOL   C170 7766   5.436   6.024   5.415 -0.1582  0.3004  0.2016
   19MOL   O171 7767   5.553   5.953   5.463  0.1369 -0.2693  0.5919
   19MOL   C172 7768   5.642   5.918   5.365  0.1282 -0.3180  0.2889
   19MOL   O173 7769   5.588   5.828   5.273 -0.0755 -0.1572 -0.0511
   19MOL   C174 7770   5.680   5.770   5.189 -0.1896 -0.0616 -0.0979
   19MOL   C175 7771   5.817   5.792   5.191 -0.5327  0.1857  0.4699
   19MOL   C176 7772   5.910   5.719   5.115 -0.0066 -0.0590  0.6187
   19MOL   C177 7773   5.867   5.611   5.032 -0.7475  0.0541  0.9765
   19MOL   C178 7774   5.728   5.591   5.022  0.4823  0.6209  0.1603
   19MOL   C179 7775   5.636   5.667   5.102  0.0584 -0.6077  0.0571
   19MOL   C180 7776   5.303   5.954   5.448 -0.4786 -0.4694 -0.1755
   19MOL   H181 7777   5.429   6.028   5.306  0.3995 -1.2259  0.0884
   19MOL   H182 7778   5.718   5.862   5.419  2.3959  0.4345 -2.0467
   19MOL   H183 7779   5.687   6.001   5.311 -0.8699 -0.2576 -0.4648
   19MOL   H184 7780   5.862   5.870   5.250  0.0210 -1.6824  2.6093
   19MOL   H185 7781   6.018   5.725   5.125  0.1440  2.0846 -1.8780
   19MOL   H186 7782   5.938   5.561   4.969 -0.0419 -0.3207  2.0640
   19MOL   H187 7783   5.698   5.514   4.952  2.1780  0.6619 -0.6253
   19MOL   H188 7784   5.531   5.642   5.097  0.7641 -3.4346 -1.2012
   19MOL   H189 7785   5.326   5.902   5.541  1.2816 -2.2652 -1.5431
   19MOL   H190 7786   5.225   6.023   5.480 -0.9799 -1.0498 -0.1372
   19MOL   C191 7787   5.240   5.874   5.326 -0.6547  0.3758  0.0011
   19MOL   O192 7788   5.194   5.961   5.227  0.0950  0.1458  0.6019
   19MOL   C193 7789   5.183   5.916   5.092 -0.6538 -1.1161 -0.3750
   19MOL   O194 7790   5.073   5.839   5.066  0.2008  0.4692 -0.7264
   19MOL   C195 7791   4.956   5.907   5.054  0.2377  0.4044 -0.9585
   19MOL   C196 7792   4.927   6.028   5.119  1.3431  0.5533  0.0512
   19MOL   C197 7793   4.801   6.088   5.098  0.5319 -0.0526 -0.2694
   19MOL   C198 7794   4.711   6.038   4.999  0.3775 -0.0418 -0.8889
   19MOL   C199 7795   4.736   5.911   4.954 -0.1461 -0.2722  0.3686
   19MOL   C200 7796   4.857   5.845   4.982 -0.7522  0.2452 -0.0172
   19MOL   C201 7797   5.146   5.761   5.371 -0.8430  0.1150 -0.0915
   19MOL   H202 7798   5.324   5.828   5.274 -0.1598  1.4104 -0.1120
   19MOL   H203 7799   5.277   5.863   5.075 -0.6369 -0.5513 -2.0465
   19MOL   H204 7800   5.183   6.006   5.031 -1.1215 -1.8658 -1.4784
   19MOL   H205 7801   4.994   6.069   5.194  3.3497 -0.9824 -0.8515
   19MOL   H206 7802   4.791   6.184   5.145 -0.9093 -0.3296  0.0095
   19MOL   H207 7803   4.617   6.088   4.984 -0.6638 -1.5520  0.4034
   19MOL   H208 7804   4.659   5.859   4.897  1.5563 -0.3550 -1.9578
   19MOL   H209 7805   4.864   5.748   4.935  0.1890  0.3359 -0.0817
   19MOL   H210 7806   5.103   5.793   5.467  0.0536 -0.2185  0.4257
   19MOL   H211 7807   5.062   5.748   5.303 -0.4626 -1.1682 -0.3251
   19MOL   C212 7808   5.228   5.625   5.379 -0.7620 -0.4263  0.3281
   19MOL   O213 7809   5.333   5.646   5.477 -0.2715 -0.5278 -0.4990
   19MOL   C214 7810   5.453   5.588   5.449 -0.3500 -0.6367  0.0777
   19MOL   O215 7811   5.458   5.458   5.499 -0.1246  0.2328 -0.2463
   19MOL   C216 7812   5.587   5.406   5.500  0.5992 -0.0721 -0.1548
   19MOL   C217 7813   5.703   5.467   5.457  0.5387 -0.0709  0.0195
   19MOL   C218 7814   5.828   5.407   5.443  0.6734  0.4271 -0.2115
   19MOL   C219 7815   5.833   5.270   5.474  0.1083  0.0478  1.1928
   19MOL   C220 7816   5.717   5.202   5.525 -0.3982  0.0085  0.9262
   19MOL   C221 7817   5.594   5.269   5.541 -0.1426  0.7004  0.1894
   19MOL   C222 7818   5.142   5.497   5.399  0.9185 -0.0774  0.4783
   19MOL   H223 7819   5.266   5.609   5.278 -2.5629  1.2265 -0.6391
   19MOL   H224 7820   5.526   5.642   5.509 -0.4986  0.2150 -0.5116
   19MOL   H225 7821   5.473   5.596   5.343 -0.0542 -1.4485  0.0668
   19MOL   H226 7822   5.706   5.566   5.412  0.0955  1.2874  2.8824
   19MOL   H227 7823   5.911   5.448   5.387  0.7429  0.2685 -0.2250
   19MOL   H228 7824   5.925   5.216   5.455 -0.6168 -0.2286 -1.8749
   19MOL   H229 7825   5.722   5.100   5.559 -1.9379 -0.0050  1.1232
   19MOL   H230 7826   5.504   5.223   5.580  1.0765 -1.1969  0.8730
   19MOL   H231 7827   5.062   5.502   5.326  0.0055  0.3473  1.4857
   19MOL   H232 7828   5.195   5.405   5.375  1.2856  0.3238 -0.2764
   19MOL   C233 7829   5.076   5.486   5.537  0.3068 -0.0599 -0.6019
   19MOL   O234 7830   4.941   5.459   5.541  0.1507  0.0438 -0.0278
   19MOL   C235 7831   4.860   5.526   5.639 -0.5466  0.7153  0.6830
   19MOL   O236 7832   4.730   5.522   5.594  0.1629 -0.3609  0.2473
   19MOL   C237 7833   4.684   5.599   5.497 -0.4331  0.4599 -0.2358
   19MOL   C238 7834   4.550   5.649   5.508 -0.1379 -0.3721 -0.2958
   19MOL   C239 7835   4.507   5.748   5.416 -0.5129 -0.4242  0.4687
   19MOL   C240 7836   4.593   5.802   5.321 -0.3195  0.3354  0.4570
   19MOL   C241 7837   4.717   5.742   5.300  0.3732 -0.2901 -0.0987
   19MOL   C242 7838   4.764   5.644   5.391  1.6867 -0.8004  0.0058
   19MOL   C243 7839   5.154   5.391   5.629 -0.4632 -0.2391  0.7751
   19MOL   H244 7840   5.086   5.587   5.578  1.0885 -0.4644  0.1989
   19MOL   H245 7841   4.903   5.619   5.678  1.2825 -0.5259  1.7565
   19MOL   H246 7842   4.852   5.466   5.729 -3.5238 -2.9408 -1.9008
   19MOL   H247 7843   4.489   5.616   5.590 -1.5344  1.4867 -0.5550
   19MOL   H248 7844   4.409   5.793   5.428  0.1145  0.7304  1.4625
   19MOL   H249 7845   4.574   5.882   5.252  1.1518  0.5723  0.3057
   19MOL   H250 7846   4.775   5.780   5.217 -1.8930 -1.5364 -2.3712
   19MOL   H251 7847   4.866   5.615   5.374  1.9837  0.1838  0.0846
   19MOL   H252 7848   5.260   5.402   5.607 -0.4770 -2.3151 -0.4546
   19MOL   H253 7849   5.136   5.421   5.732 -0.2413  0.0203  0.7387
   19MOL   C254 7850   5.136   5.232   5.633 -0.2384 -0.1063 -0.0748
   19MOL   O255 7851   5.170   5.185   5.499 -0.2239  0.0512 -0.6162
   19MOL   C256 7852   5.067   5.161   5.417 -0.1889  0.1050  0.4337
   19MOL   O257 7853   4.998   5.044   5.453  0.7018  0.4633 -0.1560
   19MOL   C258 7854   4.901   4.992   5.371  0.2804  0.0036  0.3897
   19MOL   C259 7855   4.844   4.871   5.417 -0.3830 -0.1498  0.0746
   19MOL   C260 7856   4.746   4.809   5.339 -0.2857  0.1390  0.4658
   19MOL   C261 7857   4.691   4.871   5.228 -0.0359 -0.0174 -0.4702
   19MOL   C262 7858   4.741   5.002   5.194 -0.2712 -0.2181 -0.1799
   19MOL   C263 7859   4.845   5.061   5.261  1.0070 -1.0223 -0.1295
   19MOL   C264 7860   5.232   5.165   5.738 -0.0761 -0.5610  0.2612
   19MOL   H265 7861   5.032   5.209   5.657  0.0283  0.2045  1.3629
   19MOL   H266 7862   5.120   5.149   5.323 -1.5511  1.1951 -0.4891
   19MOL   H267 7863   5.010   5.254   5.419 -0.6012 -0.1339 -0.1752
   19MOL   H268 7864   4.890   4.824   5.502 -0.9574 -2.1324 -0.6790
   19MOL   H269 7865   4.708   4.713   5.370 -0.7154 -0.6544 -2.3329
   19MOL   H270 7866   4.619   4.825   5.161  0.6509  0.6361 -1.6730
   19MOL   H271 7867   4.688   5.053   5.115 -0.2046 -1.5402 -1.0916
   19MOL   H272 7868   4.891   5.156   5.238  2.2896 -2.4779 -3.9663
   19MOL   H273 7869   5.334   5.198   5.715  0.3606 -1.8928  0.2484
   19MOL   H274 7870   5.208   5.204   5.837  0.3018  1.0864 -0.2674
   19MOL   C275 7871   5.231   5.011   5.756 -0.5102 -0.3960  0.3984
   19MOL   O276 7872   5.318   4.956   5.662  0.4956  0.3014  0.7898
   19MOL   C277 7873   5.263   4.857   5.576  0.4866  0.2329  0.2951
   19MOL   O278 7874   5.263   4.735   5.638  0.6298 -0.7501 -0.2216
   19MOL   C279 7875   5.189   4.639   5.571  0.6666  0.3822 -1.9338
   19MOL   C280 7876   5.178   4.521   5.637 -0.6949  0.1189 -0.0338
   19MOL   C281 7877   5.090   4.420   5.601 -0.4286  0.4396 -0.3561
   19MOL   C282 7878   5.021   4.429   5.475 -0.4649 -0.2822 -0.5670
   19MOL   C283 7879   5.028   4.552   5.413 -0.4308 -1.1905 -0.2341
   19MOL   C284 7880   5.116   4.656   5.452  0.2553  0.2506 -0.4644
   19MOL   C285 7881   5.297   4.977   5.894 -0.0833  0.3654  0.2268
   19MOL   H286 7882   5.129   4.976   5.740 -0.9522  1.4138 -0.9393
   19MOL   H287 7883   5.311   4.860   5.478  0.7600  1.2919  0.4553
   19MOL   H288 7884   5.160   4.891   5.562  1.1269  2.2099  0.2804
   19MOL   H289 7885   5.244   4.506   5.722 -0.6785 -0.2150 -0.1053
   19MOL   H290 7886   5.080   4.338   5.670  0.5517  0.5279 -0.0899
   19MOL   H291 7887   4.949   4.352   5.452 -1.5522 -0.2986  2.5817
   19MOL   H292 7888   4.979   4.579   5.320 -0.9974  0.5120  0.5385
   19MOL   H293 7889   5.115   4.746   5.392 -0.8197  1.3466  1.1499
   19MOL   H294 7890   5.274   4.871   5.910  0.6333  0.2114  0.2466
   19MOL   H295 7891   5.234   5.035   5.961  1.0598  2.5698 -0.5769
   19MOL   C296 7892   5.449   5.002   5.913 -0.4792  0.1399 -0.0276
   19MOL   O297 7893   5.457   5.146   5.902 -0.0901  0.2753  0.1590
   19MOL   C298 7894   5.579   5.206   5.870 -0.7443 -0.1415 -0.3742
   19MOL   O299 7895   5.644   5.235   5.989  0.4669 -0.4729 -0.2048
   19MOL   C300 7896   5.780   5.265   5.979 -0.2816  0.3014  0.0731
   19MOL   C301 7897   5.854   5.247   6.101 -0.6164 -0.2412 -0.1924
   19MOL   C302 7898   5.991   5.288   6.103 -1.4088  0.8161 -0.1257
   19MOL   C303 7899   6.049   5.350   5.990 -0.2990  0.2370 -0.3736
   19MOL   C304 7900   5.982   5.346   5.866  0.0445 -0.0337  0.1898
   19MOL   C305 7901   5.843   5.313   5.864  0.1201  0.1041 -0.1782
   19MOL   C306 7902   5.525   4.948   6.038 -0.7762  0.2389  0.2156
   19MOL   H307 7903   5.501   4.961   5.827 -0.7344 -2.4804  1.0214
   19MOL   H308 7904   5.545   5.302   5.831  1.2252  1.3208  1.4237
   19MOL   H309 7905   5.637   5.149   5.797  1.0948  2.9462 -1.4034
   19MOL   H310 7906   5.805   5.204   6.186  2.4413 -0.4088  1.5442
   19MOL   H311 7907   6.046   5.276   6.195 -2.1983 -0.2101  0.2230
   19MOL   H312 7908   6.149   5.392   5.993 -0.0152 -0.2984 -1.9702
   19MOL   H313 7909   6.037   5.383   5.781 -0.2539 -0.9652 -0.4259
   19MOL   H314 7910   5.789   5.331   5.772  2.0690 -1.1023 -1.6047
   19MOL   H315 7911   5.478   4.986   6.128  1.1231 -1.0885  1.7962
   19MOL   H316 7912   5.628   4.984   6.039 -1.6186  2.7724  3.3369
   19MOL   C317 7913   5.522   4.791   6.048 -0.5858  0.2241  0.2594
   19MOL   O318 7914   5.640   4.755   6.130 -0.9107 -0.2046  0.6888
   19MOL   C319 7915   5.607   4.767   6.263  0.3323 -0.3649  0.1789
   19MOL   O320 7916   5.611   4.896   6.312 -0.0184 -0.3319 -0.5680
   19MOL   C321 7917   5.739   4.943   6.358  0.0632 -0.3115 -0.2276
   19MOL   C322 7918   5.864   4.916   6.299 -0.3082  0.4487  0.0216
   19MOL   C323 7919   5.981   4.975   6.356  0.3736 -0.6069 -0.4774
   19MOL   C324 7920   5.978   5.044   6.482 -0.0282  1.0484  0.2782
   19MOL   C325 7921   5.853   5.072   6.538  0.5549  0.4851  0.1788
   19MOL   C326 7922   5.737   5.018   6.478  0.1544 -0.4047 -0.8417
   19MOL   C327 7923   5.537   4.717   5.909 -0.6656 -0.1209 -0.3533
   19MOL   H328 7924   5.427   4.769   6.097 -0.6826 -0.6372 -0.3066
   19MOL   H329 7925   5.667   4.701   6.325  1.5846 -1.1019 -1.7474
   19MOL   H330 7926   5.506   4.730   6.283  0.3930  0.0697  1.2852
   19MOL   H331 7927   5.877   4.853   6.212 -2.2481 -0.7879  0.5903
   19MOL   H332 7928   6.072   4.934   6.314 -0.2365 -0.2011 -2.2291
   19MOL   H333 7929   6.070   5.076   6.527  1.1600 -1.6341 -0.1529
   19MOL   H334 7930   5.849   5.127   6.630 -0.7972  1.7600 -0.6173
   19MOL   H335 7931   5.643   5.039   6.528  0.1653  1.6566 -1.6484
   19MOL   H336 7932   5.454   4.738   5.841 -0.9012 -2.0736 -0.6957
   19MOL   H337 7933   5.627   4.740   5.852  0.1173  1.7515  1.5309
   19MOL   C338 7934   5.535   4.562   5.920  0.3084 -0.2413  0.0431
   19MOL   O339 7935   5.399   4.523   5.948 -0.4068 -0.4273 -0.0912
   19MOL   C340 7936   5.377   4.428   6.054  0.5081  0.4657 -0.4360
   19MOL   O341 7937   5.435   4.466   6.178 -0.3679 -0.1928 -0.4091
   19MOL   C342 7938   5.407   4.382   6.289  0.2749 -0.4234 -0.2176
   19MOL   C343 7939   5.439   4.439   6.419  0.7686 -0.8833  0.5211
   19MOL   C344 7940   5.428   4.364   6.540 -0.1793  0.4897  0.1833
   19MOL   C345 7941   5.381   4.230   6.528 -0.3894  0.0977 -0.0554
   19MOL   C346 7942   5.324   4.179   6.404  0.1855 -0.5299  0.6050
   19MOL   C347 7943   5.341   4.254   6.285 -0.0724 -0.6488  0.4450
   19MOL   C348 7944   5.580   4.484   5.792 -0.3778  0.3107  0.2912
   19MOL   H349 7945   5.591   4.539   6.011 -0.9622  1.6576  1.3491
   19MOL   H350 7946   5.417   4.332   6.023 -2.2055 -1.3274  1.3854
   19MOL   H351 7947   5.269   4.428   6.066  0.6648  0.0594  1.0746
   19MOL   H352 7948   5.469   4.543   6.425 -0.0732 -0.5756 -0.4373
   19MOL   H353 7949   5.448   4.416   6.633  0.2917  1.4971 -0.4770
   19MOL   H354 7950   5.378   4.172   6.619  2.7058 -0.0898  0.0138
   19MOL   H355 7951   5.270   4.086   6.400  0.4430 -0.6080 -4.2003
   19MOL   H356 7952   5.315   4.204   6.193  0.7381 -0.1218 -0.0758
   19MOL   H357 7953   5.527   4.526   5.707 -0.6086  0.5336  0.5419
   19MOL   H358 7954   5.542   4.382   5.789  1.9451 -0.6067  0.9205
   19MOL   C359 7955   5.734   4.471   5.770 -0.1190 -0.3395  0.5782
   19MOL   O360 7956   5.766   4.467   5.635  0.1412  0.2162 -0.1146
   19MOL   C361 7957   5.829   4.571   5.573 -0.0276  0.1201  0.6634
   19MOL   O362 7958   5.757   4.689   5.586 -0.3838 -0.0999 -0.2149
   19MOL   C363 7959   5.715   4.755   5.470 -0.5670 -0.4781 -0.9252
   19MOL   C364 7960   5.814   4.781   5.373 -0.2868 -0.9127  0.3179
   19MOL   C365 7961   5.781   4.856   5.259 -0.5493  0.5194 -0.3053
   19MOL   C366 7962   5.654   4.909   5.247  0.0653  0.1547 -0.3766
   19MOL   C367 7963   5.560   4.890   5.349 -0.1874  0.5252 -0.5391
   19MOL   C368 7964   5.591   4.814   5.464 -0.4779 -0.4674  0.4203
   19MOL   C369 7965   5.817   4.358   5.838 -0.0527 -0.3372  0.1904
   19MOL   H370 7966   5.778   4.565   5.805  2.9728 -2.1177  1.6697
   19MOL   H371 7967   5.835   4.543   5.468  1.5858 -2.7491  1.4882
   19MOL   H372 7968   5.926   4.602   5.613  1.8184 -0.2717 -3.2642
   19MOL   H373 7969   5.916   4.748   5.386  1.4009  3.5353 -0.6863
   19MOL   H374 7970   5.853   4.878   5.181  0.3727 -0.8685  0.1450
   19MOL   H375 7971   5.621   4.969   5.163  2.2537 -0.2497 -1.5610
   19MOL   H376 7972   5.465   4.937   5.331 -0.7772 -0.5958 -0.3716
   19MOL   H377 7973   5.519   4.810   5.544 -0.3261 -3.9842  0.4839
   19MOL   H378 7974   5.918   4.354   5.798  0.9363  0.9485  2.5153
   19MOL   H379 7975   5.762   4.269   5.807 -1.4647  0.9377 -1.0845
   19MOL   C380 7976   5.828   4.368   5.986 -0.3181 -0.3034  0.5490
   19MOL   O381 7977   5.909   4.486   6.014  0.5226 -0.5024 -0.0685
   19MOL   C382 7978   5.897   4.542   6.139 -0.3513  0.9139 -0.2641
   19MOL   O383 7979   5.997   4.494   6.226 -0.4767  0.2081  0.1247
   19MOL   C384 7980   6.117   4.558   6.232 -0.4433  0.2237  0.4531
   19MOL   C385 7981   6.208   4.520   6.339 -0.2324  0.4015 -0.4742
   19MOL   C386 7982   6.331   4.578   6.352  0.5345  0.5729 -0.1157
   19MOL   C387 7983   6.375   4.669   6.257  0.2859 -0.6782 -0.1155
   19MOL   C388 7984   6.294   4.708   6.146  0.0530  0.0299  0.3404
   19MOL   C389 7985   6.169   4.646   6.132  0.2947 -1.5601 -0.1001
   19MOL   C390 7986   5.909   4.243   6.044  0.1943  1.2832 -0.4605
   19MOL   H391 7987   5.729   4.359   6.031 -0.0364 -2.4424  0.8191
   19MOL   H392 7988   5.917   4.648   6.121  2.3553  0.5409  0.3580
   19MOL   H393 7989   5.797   4.538   6.181  0.1648  1.3157  1.0112
   19MOL   H394 7990   6.171   4.457   6.418  2.0241 -1.0222 -0.5264
   19MOL   H395 7991   6.396   4.538   6.429  0.5759 -0.8962 -0.8841
   19MOL   H396 7992   6.462   4.731   6.276 -0.5656  0.6611 -0.5288
   19MOL   H397 7993   6.331   4.779   6.072  0.4467 -1.3194 -0.7836
   19MOL   H398 7994   6.116   4.663   6.040  1.4434 -2.5472 -0.9527
   19MOL   H399 7995   6.015   4.268   6.034  1.0096 -1.9467 -0.7698
   19MOL   H400 7996   5.896   4.149   5.990 -0.1591  0.9519  0.1949
   19MOL   C401 7997   5.885   4.208   6.195 -0.2657  0.1449  0.6001
   19MOL   O402 7998   5.810   4.087   6.182 -0.2800 -0.0611 -0.0506
   19MOL   C403 7999   5.699   4.080   6.270  0.2702 -0.3216  0.3864
   19MOL   O404 8000   5.730   4.083   6.403  0.0335  0.2173  0.0644
   19MOL   C405 8001   5.813   3.990   6.453  0.5746  0.9467  0.7097
   19MOL   C406 8002   5.836   3.866   6.389  0.8582 -0.0411 -0.0868
   19MOL   C407 8003   5.938   3.782   6.440  0.4133 -0.0485  0.2179
   19MOL   C408 8004   5.989   3.814   6.570  0.5017 -0.4632  0.0629
   19MOL   C409 8005   5.943   3.927   6.639  0.3270 -0.1293  0.7279
   19MOL   C410 8006   5.865   4.019   6.575 -0.4461 -0.1628 -0.9100
   19MOL   C411 8007   6.006   4.171   6.272  0.3971 -0.1054 -0.2830
   19MOL   H412 8008   5.828   4.281   6.253 -0.5714  0.7786 -0.4796
   19MOL   H413 8009   5.649   3.985   6.254  0.0378 -0.0955 -0.2221
   19MOL   H414 8010   5.627   4.156   6.241  3.0917  2.3157 -0.0008
   19MOL   H415 8011   5.783   3.835   6.300  1.8826 -3.0274  0.3041
   19MOL   H416 8012   5.959   3.687   6.391 -0.8355 -1.0389  1.5859
   19MOL   H417 8013   6.074   3.760   6.610 -0.8708 -2.4883  0.3111
   19MOL   H418 8014   5.985   3.952   6.735  1.3112  1.1021 -0.0081
   19MOL   H419 8015   5.831   4.109   6.625  1.7879 -0.2947  0.9084
   19MOL   H420 8016   6.054   4.091   6.216  2.9069  1.2655 -0.1932
   19MOL   H421 8017   5.979   4.146   6.375  1.1505 -1.4974 -0.4221
   19MOL   H422 8018   6.081   4.249   6.283 -0.1473  0.0602  2.7189
   20MOL     C1 8019   1.145   0.161   2.419 -0.1407 -0.6915 -0.5301
   20MOL     O2 8020   1.280   0.182   2.408 -0.1818  0.1074  0.0896
   20MOL     C3 8021   1.340   0.270   2.504  0.4101  0.1706 -0.0820
   20MOL     O4 8022   1.365   0.203   2.630 -0.1138 -0.0893  0.4009
   20MOL     C5 8023   1.480   0.123   2.640 -0.0978  1.0481 -0.2791
   20MOL     C6 8024   1.532   0.098   2.773  0.1899 -1.0946 -0.0022
   20MOL     C7 8025   1.648   0.020   2.788 -0.2709 -0.8038 -0.1349
   20MOL     C8 8026   1.714   7.946   2.681  0.2909 -0.0078  1.1223
   20MOL     C9 8027   1.658   7.959   2.559 -0.1410  0.3116  0.1673
   20MOL    C10 8028   1.546   0.064   2.535  0.3144 -0.8710  0.1093
   20MOL    C11 8029   1.098   0.057   2.323 -0.3811 -0.9665 -0.4759
   20MOL    H12 8030   1.123   0.120   2.518 -2.6047 -0.7723 -1.0842
   20MOL    H13 8031   1.433   0.312   2.464 -0.2865  2.1914  0.3726
   20MOL    H14 8032   1.275   0.355   2.518  0.7995  0.5632 -0.6171
   20MOL    H15 8033   1.485   0.147   2.857 -0.5451 -0.9090 -0.5145
   20MOL    H16 8034   1.680   7.968   2.888  0.4914 -1.6239 -0.5997
   20MOL    H17 8035   1.800   7.881   2.694  0.6715  0.1750 -0.3013
   20MOL    H18 8036   1.700   7.910   2.473  0.8769  0.4504  0.5720
   20MOL    H19 8037   1.502   0.086   2.438 -0.4583  1.1881  0.8961
   20MOL    H20 8038   0.992   0.040   2.342 -0.4360 -1.4713 -1.1987
   20MOL    H21 8039   1.154   7.943   2.351  1.5699  0.3636  0.0068
   20MOL    H22 8040   1.087   0.253   2.416  0.0746 -0.4838  1.2490
   20MOL    C23 8041   1.131   0.108   2.183 -0.5193 -0.1767 -0.0012
   20MOL    O24 8042   1.037   0.207   2.151 -0.2140  0.6405 -0.4429
   20MOL    C25 8043   1.096   0.321   2.099 -0.2493  0.3722  0.5709
   20MOL    O26 8044   1.158   0.310   1.967  0.0948 -0.2819  0.3012
   20MOL    C27 8045   1.078   0.296   1.856  0.0941  1.1156 -1.1127
   20MOL    C28 8046   1.143   0.274   1.734  0.3410  0.4572  0.1317
   20MOL    C29 8047   1.068   0.259   1.614  1.0762  0.4924 -0.0721
   20MOL    C30 8048   0.929   0.274   1.616  0.6579  0.2407 -0.2119
   20MOL    C31 8049   0.859   0.286   1.741  0.4550 -0.6997  0.3172
   20MOL    C32 8050   0.934   0.298   1.858 -0.1704  0.2066  0.2241
   20MOL    C33 8051   1.126   7.961   2.083  0.7830 -0.1097  0.2038
   20MOL    H34 8052   1.230   0.154   2.178  0.4009 -1.9039  1.5234
   20MOL    H35 8053   1.179   0.352   2.162 -1.2058  3.7382  0.2658
   20MOL    H36 8054   1.027   0.406   2.100 -0.8260 -0.0967  2.1986
   20MOL    H37 8055   1.250   0.277   1.723  0.4042 -2.6379 -0.4335
   20MOL    H38 8056   1.112   0.243   1.517  3.2180  1.3343  0.7310
   20MOL    H39 8057   0.861   0.261   1.532 -0.2588  0.3237  0.5122
   20MOL    H40 8058   0.752   0.293   1.748  0.7124  1.9159  2.4926
   20MOL    H41 8059   0.875   0.310   1.948  1.8469 -0.9041  1.7049
   20MOL    H42 8060   1.068   0.002   1.993  0.5135  1.9155  0.7349
   20MOL    H43 8061   1.077   7.877   2.133  0.2908  0.1719  0.1990
   20MOL    C44 8062   1.264   7.911   2.041 -0.0800  0.3375 -0.2712
   20MOL    O45 8063   1.251   7.816   1.932 -0.5809 -0.5743 -0.7289
   20MOL    C46 8064   1.266   7.873   1.808 -0.6120 -0.5054  0.1223
   20MOL    O47 8065   1.213   7.787   1.705  0.1436 -0.9484  0.4775
   20MOL    C48 8066   1.292   7.683   1.669 -0.0723 -0.1225 -0.2591
   20MOL    C49 8067   1.233   7.589   1.584  0.6403 -0.8611  0.1160
   20MOL    C50 8068   1.297   7.474   1.550  0.4337 -0.0396  0.2316
   20MOL    C51 8069   1.433   7.460   1.576 -0.3146 -0.0503 -0.0036
   20MOL    C52 8070   1.502   7.557   1.649  0.0891 -0.2272  0.9012
   20MOL    C53 8071   1.431   7.667   1.706 -0.5469 -0.0391 -0.5285
   20MOL    C54 8072   1.339   7.843   2.156 -0.5187 -0.5295  0.3736
   20MOL    H55 8073   1.331   0.019   2.021 -0.3540  0.8950  1.0797
   20MOL    H56 8074   1.372   7.896   1.796 -1.1380  1.6177 -0.6632
   20MOL    H57 8075   1.224   7.974   1.811 -1.9747 -1.0098 -1.1857
   20MOL    H58 8076   1.135   7.617   1.548  1.4936  1.0296 -0.8625
   20MOL    H59 8077   1.252   7.405   1.480  2.5662 -1.0348 -0.1989
   20MOL    H60 8078   1.490   7.373   1.545 -2.7829 -0.7547 -2.7408
   20MOL    H61 8079   1.601   7.536   1.688 -0.8933 -2.7245  2.1476
   20MOL    H62 8080   1.479   7.729   1.780 -1.1035  0.2220 -0.3837
   20MOL    H63 8081   1.350   7.917   2.235 -1.0509  0.9315 -0.8851
   20MOL    H64 8082   1.276   7.763   2.195 -1.7128 -0.0532 -0.5221
   20MOL    C65 8083   1.481   7.798   2.113  0.1201 -0.6675  0.5676
   20MOL    O66 8084   1.578   7.905   2.127  0.3366  0.7522  0.3207
   20MOL    C67 8085   1.682   7.924   2.037  0.6183 -0.7014 -0.3087
   20MOL    O68 8086   1.631   7.945   1.909  0.3452  0.3642 -0.1466
   20MOL    C69 8087   1.580   0.092   1.879  0.3665 -0.8758 -0.6656
   20MOL    C70 8088   1.553   0.120   1.744  0.2783 -0.0368  0.2493
   20MOL    C71 8089   1.506   0.247   1.712 -0.5677  0.0062 -0.3270
   20MOL    C72 8090   1.485   0.340   1.807  0.0161 -0.2447 -0.0746
   20MOL    C73 8091   1.502   0.313   1.941  0.3256  0.3214 -0.1176
   20MOL    C74 8092   1.550   0.191   1.983 -0.2332  0.2995 -0.4093
   20MOL    C75 8093   1.547   7.702   2.220 -0.4505 -0.0468  0.2195
   20MOL    H76 8094   1.474   7.749   2.016 -3.6263 -0.1225  0.4734
   20MOL    H77 8095   1.744   7.834   2.035  0.3978 -0.8420 -0.7346
   20MOL    H78 8096   1.741   0.036   2.064 -2.4571  2.2770 -2.8280
   20MOL    H79 8097   1.560   0.049   1.664  0.0417  1.7228 -1.3770
   20MOL    H80 8098   1.481   0.273   1.610  1.8161 -2.5376 -1.6086
   20MOL    H81 8099   1.451   0.438   1.777  1.6158  0.0335 -1.0442
   20MOL    H82 8100   1.473   0.386   2.015  0.2031  1.6896 -1.4871
   20MOL    H83 8101   1.551   0.172   2.089 -0.4174  0.1614 -0.4311
   20MOL    H84 8102   1.656   7.701   2.211 -0.4804  0.0826 -0.1595
   20MOL    H85 8103   1.521   7.735   2.320  1.4984 -1.7329  1.3185
   20MOL    C86 8104   1.509   7.556   2.207  0.5550  0.5851 -0.4045
   20MOL    O87 8105   1.608   7.485   2.133 -0.3779 -0.1322  0.0843
   20MOL    C88 8106   1.594   7.482   1.997  0.4308  0.1479 -0.4696
   20MOL    O89 8107   1.642   7.598   1.941 -0.4428 -0.2169 -0.0107
   20MOL    C90 8108   1.778   7.614   1.925 -0.0080  0.3267 -0.6920
   20MOL    C91 8109   1.880   7.569   2.018 -0.1329  0.4679  0.3945
   20MOL    C92 8110   2.016   7.588   1.987 -0.1979 -0.6421  0.2502
   20MOL    C93 8111   2.055   7.650   1.870 -0.4430 -0.2806 -0.0016
   20MOL    C94 8112   1.956   7.702   1.781 -0.2679 -0.3505  0.1733
   20MOL    C95 8113   1.817   7.690   1.815 -0.6387 -0.1578 -0.2144
   20MOL    C96 8114   1.508   7.489   2.345  0.4656 -0.2660 -0.3745
   20MOL    H97 8115   1.411   7.539   2.164 -0.5888 -1.1410  2.7298
   20MOL    H98 8116   1.488   7.465   1.983 -0.0053  1.6668  0.7339
   20MOL    H99 8117   1.649   7.395   1.962 -2.0870 -1.7407  0.1615
   20MOL   H100 8118   1.859   7.513   2.108 -0.1793 -1.5643 -0.8447
   20MOL   H101 8119   2.085   7.538   2.053 -0.1162 -0.6200  0.1820
   20MOL   H102 8120   2.157   7.664   1.838 -0.2062 -0.7193  0.5539
   20MOL   H103 8121   1.982   7.748   1.687 -0.6667  0.0755  0.2688
   20MOL   H104 8122   1.740   7.728   1.749 -0.1176  1.5083  0.1374
   20MOL   H105 8123   1.508   7.381   2.331  4.2061 -0.5467  1.1690
   20MOL   H106 8124   1.605   7.499   2.393 -0.6703  0.7412  1.7671
   20MOL   C107 8125   1.398   7.526   2.446 -0.9882 -0.5255  0.0386
   20MOL   O108 8126   1.315   7.412   2.456 -0.0637  0.3713 -0.4257
   20MOL   C109 8127   1.184   7.433   2.410  0.4522  0.2189  0.1334
   20MOL   O110 8128   1.170   7.501   2.289  0.2119 -0.8932  0.0772
   20MOL   C111 8129   1.163   7.431   2.171  0.3063 -0.1550 -0.1693
   20MOL   C112 8130   1.125   7.508   2.057 -0.2091  0.3900 -0.3912
   20MOL   C113 8131   1.131   7.442   1.927  0.1456 -0.1248  0.1019
   20MOL   C114 8132   1.174   7.311   1.906 -0.4384  0.0890  0.9227
   20MOL   C115 8133   1.219   7.236   2.019  0.0459  0.5126 -0.1054
   20MOL   C116 8134   1.211   7.301   2.145 -0.4222 -0.2251 -0.1013
   20MOL   C117 8135   1.458   7.552   2.583  0.3659  0.3519  0.7219
   20MOL   H118 8136   1.343   7.612   2.409 -0.9311 -1.0538 -1.3117
   20MOL   H119 8137   1.139   7.497   2.486  1.2259  0.2201  0.5981
   20MOL   H120 8138   1.135   7.335   2.416 -2.2759  1.3056 -2.7763
   20MOL   H121 8139   1.087   7.609   2.072  0.9152  0.3817  2.9032
   20MOL   H122 8140   1.105   7.504   1.842 -0.3707  1.7193  1.5649
   20MOL   H123 8141   1.182   7.274   1.805  1.5382 -1.4055  1.5824
   20MOL   H124 8142   1.248   7.132   2.022 -1.4257  0.1250  2.1440
   20MOL   H125 8143   1.251   7.246   2.229  1.2736  0.5475 -0.3725
   20MOL   H126 8144   1.539   7.626   2.576  1.5465 -1.0785 -1.4305
   20MOL   H127 8145   1.513   7.468   2.625  1.0792 -0.3962 -1.5916
   20MOL   C128 8146   1.358   7.609   2.688  0.4626 -0.2439 -0.1974
   20MOL   O129 8147   1.348   7.755   2.680  0.2691 -0.2631 -0.1517
   20MOL   C130 8148   1.226   7.819   2.663 -1.0340  0.0232 -0.1560
   20MOL   O131 8149   1.157   7.779   2.553 -0.5686  0.7663  0.3427
   20MOL   C132 8150   1.017   7.806   2.553  0.2988  0.3750 -0.1883
   20MOL   C133 8151   0.950   7.898   2.639 -0.2296 -0.7776 -0.4409
   20MOL   C134 8152   0.812   7.920   2.624 -0.1493  0.3427 -1.1138
   20MOL   C135 8153   0.739   7.845   2.534  0.0538 -0.2933  0.0000
   20MOL   C136 8154   0.809   7.761   2.443  0.2179 -0.6243  0.1019
   20MOL   C137 8155   0.949   7.735   2.451  0.0982 -0.5031 -0.4592
   20MOL   C138 8156   1.380   7.574   2.833 -0.3708 -0.3720  0.1375
   20MOL   H139 8157   1.257   7.576   2.665  1.1889 -0.8393 -2.6322
   20MOL   H140 8158   1.228   7.928   2.673 -0.9455 -0.1996  2.6617
   20MOL   H141 8159   1.166   7.799   2.752  1.4935 -1.5528  1.2476
   20MOL   H142 8160   1.013   7.962   2.699 -1.5578 -0.5040  0.6794
   20MOL   H143 8161   0.760   0.019   2.681 -0.1203  0.1786 -0.8735
   20MOL   H144 8162   0.636   7.874   2.515  0.9424  3.6063  0.7385
   20MOL   H145 8163   0.755   7.713   2.362 -0.2665 -0.7014  0.4671
   20MOL   H146 8164   1.004   7.670   2.385  1.7445  1.0680 -0.6764
   20MOL   H147 8165   1.396   7.467   2.833 -2.7322 -0.7484 -0.0405
   20MOL   H148 8166   1.469   7.631   2.859 -1.3601  0.8239  0.9466
   20MOL   C149 8167   1.275   7.596   2.941  0.1646  0.5644 -0.3462
   20MOL   O150 8168   1.174   7.504   2.915  0.3043 -0.1013  0.4233
   20MOL   C151 8169   1.048   7.551   2.893  0.5881  0.1352  0.2246
   20MOL   O152 8170   1.006   7.624   3.007  0.3558 -0.3212 -0.6583
   20MOL   C153 8171   0.961   7.542   3.107 -0.1480  0.0500 -0.7240
   20MOL   C154 8172   0.990   7.404   3.123 -0.3514 -0.4993  0.0088
   20MOL   C155 8173   0.926   7.330   3.227 -0.1034 -0.2480 -0.3093
   20MOL   C156 8174   0.837   7.397   3.314 -0.0797 -0.4800  0.8150
   20MOL   C157 8175   0.813   7.533   3.298  0.7454  0.0897  0.4317
   20MOL   C158 8176   0.880   7.607   3.198  0.4547  0.1123  0.2514
   20MOL   C159 8177   1.312   7.582   3.090 -0.0190  0.1110 -0.0220
   20MOL   H160 8178   1.247   7.701   2.932  1.3270  0.7950 -1.2820
   20MOL   H161 8179   1.052   7.618   2.808 -0.5705  0.4640  0.4248
   20MOL   H162 8180   0.984   7.464   2.879  0.0960  0.4727  0.3622
   20MOL   H163 8181   1.035   7.344   3.046  1.3311 -2.2587  2.2613
   20MOL   H164 8182   0.953   7.226   3.236  1.1330 -0.0331 -1.2167
   20MOL   H165 8183   0.791   7.337   3.391  1.1414 -2.3559  0.1260
   20MOL   H166 8184   0.739   7.585   3.356 -0.0455  0.5623 -0.9635
   20MOL   H167 8185   0.846   7.709   3.189  1.1812  0.5173  2.0153
   20MOL   H168 8186   1.234   7.622   3.155  1.1577 -0.9438  2.1119
   20MOL   H169 8187   1.392   7.649   3.123 -0.6514  1.6140 -1.4748
   20MOL   C170 8188   1.353   7.443   3.142 -0.4075 -0.6178 -0.6413
   20MOL   O171 8189   1.482   7.415   3.079 -0.0321  0.0148 -0.5577
   20MOL   C172 8190   1.502   7.296   3.019  0.0760  0.4581 -0.4021
   20MOL   O173 8191   1.618   7.298   2.943  0.0456 -0.3348 -0.0829
   20MOL   C174 8192   1.659   7.187   2.872  0.1235  0.5014  0.5351
   20MOL   C175 8193   1.779   7.202   2.797  0.2540  0.8456  0.9384
   20MOL   C176 8194   1.840   7.092   2.732 -0.4060 -0.1756  0.3399
   20MOL   C177 8195   1.780   6.968   2.744  0.4577 -0.1035 -0.0040
   20MOL   C178 8196   1.660   6.950   2.817 -0.4319  1.4080  0.0639
   20MOL   C179 8197   1.602   7.061   2.885 -0.7625  0.0923 -0.1690
   20MOL   C180 8198   1.366   7.443   3.300  0.0329 -0.0271 -0.2817
   20MOL   H181 8199   1.293   7.359   3.110 -2.1526  0.9875 -1.6856
   20MOL   H182 8200   1.416   7.275   2.957  0.3031 -1.1853 -0.1668
   20MOL   H183 8201   1.512   7.216   3.092 -1.0149  1.2176  0.6122
   20MOL   H184 8202   1.835   7.295   2.796  0.2154  0.8868 -1.8850
   20MOL   H185 8203   1.936   7.104   2.685 -1.3094 -0.9162 -1.7502
   20MOL   H186 8204   1.829   6.887   2.692  1.2151  0.7522 -0.6511
   20MOL   H187 8205   1.633   6.847   2.835  1.3612  0.9052 -0.0582
   20MOL   H188 8206   1.520   7.036   2.951  0.5009 -1.3022  0.9191
   20MOL   H189 8207   1.442   7.518   3.321 -1.1134  0.4937  2.2743
   20MOL   H190 8208   1.272   7.478   3.344  0.2033  0.7619 -0.5347
   20MOL   C191 8209   1.407   7.319   3.373  0.1353  0.6090 -0.3301
   20MOL   O192 8210   1.541   7.279   3.346 -0.2816 -0.3053 -0.3780
   20MOL   C193 8211   1.647   7.318   3.426  0.3062 -0.9066 -0.3730
   20MOL   O194 8212   1.676   7.448   3.409 -0.2144 -0.1563  0.5112
   20MOL   C195 8213   1.738   7.479   3.288 -0.1177 -0.0014  0.7229
   20MOL   C196 8214   1.839   7.405   3.231 -0.1140 -0.4524  0.3523
   20MOL   C197 8215   1.889   7.442   3.103  0.1465 -0.0419 -0.1801
   20MOL   C198 8216   1.845   7.562   3.036  1.5503 -0.2916  0.7571
   20MOL   C199 8217   1.759   7.647   3.103  0.0314 -1.1497 -0.8472
   20MOL   C200 8218   1.698   7.607   3.224 -0.3931  0.9451 -0.5403
   20MOL   C201 8219   1.320   7.198   3.337 -0.6795 -0.1201  0.1439
   20MOL   H202 8220   1.399   7.338   3.480 -1.5359  0.9618 -0.5126
   20MOL   H203 8221   1.730   7.251   3.405  0.4168 -0.7790 -0.3430
   20MOL   H204 8222   1.616   7.314   3.530 -0.4837 -0.7677 -0.5938
   20MOL   H205 8223   1.881   7.313   3.271 -0.9205 -2.5439 -3.3744
   20MOL   H206 8224   1.969   7.390   3.053  0.5354  0.9816 -0.6377
   20MOL   H207 8225   1.890   7.587   2.942  1.1150  0.9045  0.8529
   20MOL   H208 8226   1.735   7.739   3.051  1.1105  0.6365  1.7007
   20MOL   H209 8227   1.620   7.670   3.265 -0.1424 -0.2140  1.8392
   20MOL   H210 8228   1.215   7.219   3.321 -0.9641 -1.7040 -0.1300
   20MOL   H211 8229   1.354   7.163   3.239  1.7948  0.3381  0.8058
   20MOL   C212 8230   1.328   7.079   3.437 -0.1358 -0.2084 -0.7665
   20MOL   O213 8231   1.212   7.079   3.520  0.6143  0.3792  0.1481
   20MOL   C214 8232   1.201   7.175   3.618  0.3799 -0.2122  0.1015
   20MOL   O215 8233   1.165   7.291   3.549 -0.2302 -0.0407 -0.6562
   20MOL   C216 8234   1.137   7.407   3.624 -0.1326 -1.3290  0.0920
   20MOL   C217 8235   1.113   7.524   3.552 -0.2890  0.0508  0.2199
   20MOL   C218 8236   1.081   7.643   3.617 -0.1085  0.3437  0.7384
   20MOL   C219 8237   1.108   7.652   3.758  0.0257  0.7155 -0.7266
   20MOL   C220 8238   1.135   7.539   3.832 -0.5172 -0.4336  0.6737
   20MOL   C221 8239   1.142   7.414   3.769  0.1049 -0.1417 -0.0426
   20MOL   C222 8240   1.325   6.943   3.365 -0.1359 -0.2618  0.4580
   20MOL   H223 8241   1.419   7.089   3.497 -0.2273 -1.3227 -0.4388
   20MOL   H224 8242   1.296   7.168   3.672 -0.0005 -0.7021  0.7127
   20MOL   H225 8243   1.121   7.137   3.682  1.0455 -0.3552  0.8641
   20MOL   H226 8244   1.102   7.528   3.445 -0.2437  1.7498  0.2703
   20MOL   H227 8245   1.060   7.734   3.562 -0.5032 -0.6350 -0.7590
   20MOL   H228 8246   1.090   7.748   3.803  1.3010  0.5865  0.0722
   20MOL   H229 8247   1.153   7.542   3.938 -0.4606  0.5434  0.6468
   20MOL   H230 8248   1.172   7.328   3.827 -0.3111 -0.3637 -0.1515
   20MOL   H231 8249   1.326   6.867   3.444 -1.7497  0.9494  1.7031
   20MOL   H232 8250   1.225   6.933   3.324 -0.1008 -3.5798  0.9771
   20MOL   C233 8251   1.445   6.910   3.275  0.3804  0.2190  0.2049
   20MOL   O234 8252   1.563   6.950   3.344 -0.4418  0.2513  0.7071
   20MOL   C235 8253   1.670   6.993   3.271  0.2354  1.1337  0.4857
   20MOL   O236 8254   1.738   6.892   3.200  0.5874  0.4109 -0.7047
   20MOL   C237 8255   1.854   6.913   3.132 -0.0697 -0.6140  0.4187
   20MOL   C238 8256   1.917   6.808   3.071 -0.1370  0.6547  1.0174
   20MOL   C239 8257   2.041   6.824   3.003  0.0917  0.9230 -0.4240
   20MOL   C240 8258   2.094   6.954   2.982 -0.1135  0.2226  0.7969
   20MOL   C241 8259   2.030   7.061   3.038 -0.3805  0.0288 -0.4461
   20MOL   C242 8260   1.913   7.040   3.115 -0.1082 -0.0903 -0.4136
   20MOL   C243 8261   1.455   6.761   3.232  0.1393 -0.4474 -0.6640
   20MOL   H244 8262   1.440   6.966   3.181  2.4684  0.0429 -0.0300
   20MOL   H245 8263   1.729   7.025   3.357 -0.4318  0.5891  1.1594
   20MOL   H246 8264   1.644   7.079   3.209 -1.8512  1.9812  2.4282
   20MOL   H247 8265   1.870   6.712   3.082  1.2911 -0.0633  0.9807
   20MOL   H248 8266   2.096   6.741   2.961 -0.6997  0.0767  0.2071
   20MOL   H249 8267   2.192   6.966   2.938 -1.2986 -1.4789 -2.3987
   20MOL   H250 8268   2.066   7.162   3.024 -1.5008  0.5684  0.4626
   20MOL   H251 8269   1.866   7.127   3.159 -1.3598 -1.8157  1.7794
   20MOL   H252 8270   1.536   6.742   3.161 -1.5578 -0.5204 -2.6317
   20MOL   H253 8271   1.493   6.699   3.313 -2.0505 -1.1427 -0.1393
   20MOL   C254 8272   1.324   6.694   3.176 -1.0087 -0.2885  0.2315
   20MOL   O255 8273   1.322   6.738   3.040  0.2918 -0.4902 -0.0844
   20MOL   C256 8274   1.195   6.738   2.972 -0.0946 -0.7704 -0.0815
   20MOL   O257 8275   1.132   6.862   2.973 -0.2189 -0.2416 -0.3548
   20MOL   C258 8276   1.166   6.962   2.886  0.6043  0.7437  0.1694
   20MOL   C259 8277   1.090   7.077   2.890  0.0069  0.3155 -0.6546
   20MOL   C260 8278   1.126   7.187   2.815  0.5910  0.4485  0.5856
   20MOL   C261 8279   1.238   7.182   2.726  0.4957 -0.0317  0.5904
   20MOL   C262 8280   1.313   7.065   2.712 -0.4709 -0.7842  0.3198
   20MOL   C263 8281   1.274   6.960   2.794 -0.1369  0.0073  0.5153
   20MOL   C264 8282   1.326   6.539   3.176 -0.5520  0.3913 -0.1065
   20MOL   H265 8283   1.240   6.733   3.234  0.2833  0.9187  1.3160
   20MOL   H266 8284   1.125   6.660   3.003 -1.1673  0.6830  1.2351
   20MOL   H267 8285   1.217   6.705   2.871 -1.3341 -2.0970  0.0679
   20MOL   H268 8286   1.000   7.082   2.949 -1.2444  0.3092 -2.5241
   20MOL   H269 8287   1.064   7.276   2.806 -0.5348 -0.3411  0.4828
   20MOL   H270 8288   1.263   7.268   2.665  2.7289 -1.6002 -0.8191
   20MOL   H271 8289   1.396   7.054   2.644 -1.0218  0.6237 -0.5936
   20MOL   H272 8290   1.335   6.872   2.788  1.4866  1.0263  1.7801
   20MOL   H273 8291   1.310   6.500   3.277  1.8572 -0.7888 -0.1389
   20MOL   H274 8292   1.242   6.498   3.121  0.0242 -1.4520  0.3529
   20MOL   C275 8293   1.453   6.474   3.127 -0.7978  0.1907  0.2775
   20MOL   O276 8294   1.435   6.336   3.164 -0.0527 -0.3015  0.4237
   20MOL   C277 8295   1.552   6.262   3.193 -0.3813  0.4365 -0.5845
   20MOL   O278 8296   1.518   6.134   3.225 -0.2523 -0.0054  0.2591
   20MOL   C279 8297   1.468   6.055   3.128 -0.0520  0.0888  0.3541
   20MOL   C280 8298   1.440   5.919   3.160  0.9427  0.0366 -0.1986
   20MOL   C281 8299   1.397   5.831   3.061  0.8070 -0.3900  0.4778
   20MOL   C282 8300   1.360   5.878   2.932 -0.2228 -0.6426 -0.1304
   20MOL   C283 8301   1.373   6.012   2.898  0.4141 -0.1975  0.6247
   20MOL   C284 8302   1.433   6.098   2.998 -0.0011  0.4927  0.0766
   20MOL   C285 8303   1.457   6.474   2.967 -0.1466 -0.2115  0.2435
   20MOL   H286 8304   1.542   6.515   3.175 -1.5122  0.2766  1.5582
   20MOL   H287 8305   1.598   6.311   3.279 -2.1482  0.2582  0.4891
   20MOL   H288 8306   1.613   6.280   3.105  1.4549 -0.7604  0.4112
   20MOL   H289 8307   1.470   5.874   3.254 -1.3821 -1.3740 -0.0576
   20MOL   H290 8308   1.393   5.725   3.084  1.1252  0.0108  2.4705
   20MOL   H291 8309   1.316   5.813   2.858 -0.6818  0.1710 -0.5679
   20MOL   H292 8310   1.337   6.059   2.808 -0.5863  1.1306  1.6934
   20MOL   H293 8311   1.455   6.199   2.965  1.5960  0.2791  0.4677
   20MOL   H294 8312   1.435   6.574   2.929  0.9894 -0.0556 -0.0307
   20MOL   H295 8313   1.373   6.418   2.926 -0.5448  1.9148 -1.9257
   20MOL   C296 8314   1.591   6.437   2.907  0.4105 -0.0638 -0.1650
   20MOL   O297 8315   1.567   6.446   2.768 -0.4648  0.1979  0.3321
   20MOL   C298 8316   1.512   6.342   2.694  0.0991  0.5402  0.0656
   20MOL   O299 8317   1.373   6.311   2.723  0.3617  0.4123  0.8751
   20MOL   C300 8318   1.269   6.398   2.686 -0.2571 -0.1342 -0.4595
   20MOL   C301 8319   1.131   6.356   2.695  0.1152 -0.2877  0.2560
   20MOL   C302 8320   1.031   6.448   2.659  0.5380  1.1895  0.4031
   20MOL   C303 8321   1.063   6.577   2.625 -0.6359 -1.3726 -0.0088
   20MOL   C304 8322   1.196   6.623   2.626  0.3640 -0.7841  1.0788
   20MOL   C305 8323   1.301   6.534   2.649  0.4380 -0.1424  0.2695
   20MOL   C306 8324   1.701   6.530   2.947  0.4317  0.0725 -0.5439
   20MOL   H307 8325   1.621   6.334   2.924  0.1731  0.0617  1.1186
   20MOL   H308 8326   1.568   6.252   2.717  2.1390  1.1190 -2.3236
   20MOL   H309 8327   1.533   6.369   2.590  0.9028  1.7958  0.5349
   20MOL   H310 8328   1.110   6.257   2.731 -0.8290 -0.0900  0.2495
   20MOL   H311 8329   0.931   6.410   2.675  1.0163 -0.2545  0.1053
   20MOL   H312 8330   0.979   6.640   2.600  0.0642 -0.3596  0.1399
   20MOL   H313 8331   1.209   6.729   2.612 -0.7932 -0.3487  3.1435
   20MOL   H314 8332   1.401   6.572   2.662  0.1188  1.3587 -1.4778
   20MOL   H315 8333   1.714   6.531   3.055 -2.5488  1.0618 -0.1278
   20MOL   H316 8334   1.674   6.633   2.924  1.3974  0.6694  0.9462
   20MOL   C317 8335   1.843   6.489   2.901 -0.0986  0.8925 -0.0246
   20MOL   O318 8336   1.939   6.511   3.001 -0.0113 -0.0744 -0.1972
   20MOL   C319 8337   1.989   6.396   3.060  0.4317  0.2412  0.2240
   20MOL   O320 8338   1.882   6.311   3.103  0.0963  0.0618  0.0988
   20MOL   C321 8339   1.919   6.186   3.154  0.9375  0.1127 -0.6409
   20MOL   C322 8340   1.822   6.085   3.152 -0.1581 -0.3742  0.2218
   20MOL   C323 8341   1.849   5.959   3.205 -0.0820  0.0748  0.3551
   20MOL   C324 8342   1.972   5.937   3.268 -0.1460  0.8588  0.0550
   20MOL   C325 8343   2.070   6.036   3.280  0.0397 -0.1516  0.2705
   20MOL   C326 8344   2.044   6.166   3.226  0.0063  0.0156  0.0188
   20MOL   C327 8345   1.890   6.568   2.777  0.0340  0.3325  0.1404
   20MOL   H328 8346   1.846   6.383   2.873 -3.4327 -0.0848  2.9339
   20MOL   H329 8347   2.045   6.433   3.146 -0.7525  3.8224 -0.4586
   20MOL   H330 8348   2.070   6.346   3.006 -0.8123  1.4517 -2.9335
   20MOL   H331 8349   1.735   6.096   3.089 -0.3180 -0.8588  0.3560
   20MOL   H332 8350   1.777   5.880   3.194 -0.3813  0.1150  1.9038
   20MOL   H333 8351   1.987   5.837   3.308 -1.3691 -0.2785 -2.2530
   20MOL   H334 8352   2.163   6.016   3.332 -0.8065 -1.6498  1.2508
   20MOL   H335 8353   2.113   6.248   3.237 -0.1973  0.2974 -0.7592
   20MOL   H336 8354   1.819   6.540   2.698 -2.3182  0.1962  2.2362
   20MOL   H337 8355   1.880   6.674   2.797 -0.1537  0.5995 -1.3225
   20MOL   C338 8356   2.029   6.541   2.715 -0.7847  0.3189  0.2912
   20MOL   O339 8357   2.003   6.452   2.604  0.3477 -0.3387  0.1781
   20MOL   C340 8358   2.049   6.324   2.623  0.4140  0.0391  0.4336
   20MOL   O341 8359   1.978   6.255   2.719  0.0064 -0.5621  0.6432
   20MOL   C342 8360   1.868   6.171   2.692  0.6023  0.6755  0.6136
   20MOL   C343 8361   1.791   6.159   2.573  0.4028  0.6223 -0.0647
   20MOL   C344 8362   1.685   6.062   2.562  0.3255  0.0133  0.9915
   20MOL   C345 8363   1.654   5.970   2.663  0.4568  0.1037  0.8845
   20MOL   C346 8364   1.732   5.981   2.777  0.3612 -0.6499  0.2993
   20MOL   C347 8365   1.829   6.081   2.791  0.1772  0.3670 -0.1549
   20MOL   C348 8366   2.083   6.668   2.662  0.3999  0.2108 -0.3246
   20MOL   H349 8367   2.095   6.502   2.793  0.5608  0.9082 -0.5179
   20MOL   H350 8368   2.155   6.316   2.643  0.5667 -0.0892 -0.4437
   20MOL   H351 8369   2.046   6.276   2.526  1.8261 -2.1738  1.4518
   20MOL   H352 8370   1.807   6.229   2.492 -0.4182  0.6873 -0.1774
   20MOL   H353 8371   1.634   6.051   2.467 -0.3856  0.4101  1.3272
   20MOL   H354 8372   1.571   5.902   2.648  1.0863 -0.5008  0.0938
   20MOL   H355 8373   1.712   5.911   2.857  0.4812 -2.3310 -1.1149
   20MOL   H356 8374   1.890   6.088   2.880  1.1753 -3.1773 -0.4752
   20MOL   H357 8375   2.077   6.760   2.721 -0.0207 -0.4865  0.7327
   20MOL   H358 8376   2.027   6.692   2.572 -1.1400  0.8958  0.7954
   20MOL   C359 8377   2.233   6.655   2.618 -0.6174 -0.1037  0.7903
   20MOL   O360 8378   2.321   6.660   2.728 -0.0894  0.5775  0.1913
   20MOL   C361 8379   2.411   6.551   2.738  0.4994  0.1064 -0.5506
   20MOL   O362 8380   2.355   6.432   2.785  0.7756  0.0860  0.1795
   20MOL   C363 8381   2.361   6.405   2.923  0.8151  0.1668 -0.5502
   20MOL   C364 8382   2.346   6.277   2.968 -0.9323  0.4765 -0.5393
   20MOL   C365 8383   2.358   6.240   3.104  0.1386  0.0110 -0.2767
   20MOL   C366 8384   2.400   6.338   3.197  0.0778 -0.2112  0.4002
   20MOL   C367 8385   2.411   6.471   3.156  0.0295  0.1562  0.6787
   20MOL   C368 8386   2.385   6.500   3.024  0.1704  0.5090  0.2076
   20MOL   C369 8387   2.268   6.774   2.526 -0.2079 -0.5127  0.6454
   20MOL   H370 8388   2.251   6.568   2.555  0.9575  0.0096  1.0659
   20MOL   H371 8389   2.501   6.576   2.793  1.1567 -0.2803 -1.4468
   20MOL   H372 8390   2.454   6.520   2.643  0.3045 -0.0041 -0.6034
   20MOL   H373 8391   2.341   6.199   2.894 -1.5996  0.7390 -0.7764
   20MOL   H374 8392   2.345   6.134   3.122 -0.3507 -0.2469 -2.0170
   20MOL   H375 8393   2.418   6.308   3.299 -0.5026  0.0041  0.5651
   20MOL   H376 8394   2.423   6.551   3.228 -0.4032 -0.3667  1.3326
   20MOL   H377 8395   2.394   6.602   2.989  1.3931  0.1388 -0.5881
   20MOL   H378 8396   2.252   6.867   2.582  1.3730  0.0103  0.2523
   20MOL   H379 8397   2.207   6.790   2.437  0.9297 -0.8697 -0.1984
   20MOL   C380 8398   2.412   6.764   2.465 -0.5143  0.5690 -0.4806
   20MOL   O381 8399   2.442   6.893   2.408  0.3917  0.8101 -0.5061
   20MOL   C382 8400   2.551   6.954   2.468 -0.0545  0.0144  0.9782
   20MOL   O383 8401   2.535   6.975   2.609 -0.4513 -0.2666  0.2612
   20MOL   C384 8402   2.445   7.073   2.652 -0.1428 -0.6494  0.0463
   20MOL   C385 8403   2.339   7.128   2.581  0.5280  0.0312 -0.0615
   20MOL   C386 8404   2.228   7.187   2.647  0.7309  0.5411  0.4575
   20MOL   C387 8405   2.230   7.208   2.785  0.4466  0.5185  0.0437
   20MOL   C388 8406   2.342   7.166   2.855  0.5588  0.5787  0.2519
   20MOL   C389 8407   2.452   7.103   2.791  0.2369 -0.0365  0.2462
   20MOL   C390 8408   2.415   6.654   2.350 -0.4452 -0.1413  0.3542
   20MOL   H391 8409   2.484   6.746   2.545  0.1196  0.1997 -1.1347
   20MOL   H392 8410   2.647   6.907   2.452  0.3097  0.9418  0.4119
   20MOL   H393 8411   2.568   7.053   2.424 -0.6066 -0.3841 -0.1539
   20MOL   H394 8412   2.335   7.113   2.474 -1.0575 -0.8573  0.0990
   20MOL   H395 8413   2.134   7.195   2.593  1.2563 -1.6406 -0.8278
   20MOL   H396 8414   2.148   7.250   2.842 -0.9875 -2.3216  0.1311
   20MOL   H397 8415   2.345   7.174   2.963  0.7020 -2.6364  0.5516
   20MOL   H398 8416   2.534   7.056   2.842  0.6515  0.9969  0.5531
   20MOL   H399 8417   2.353   6.690   2.269  0.4338 -0.2258 -0.3732
   20MOL   H400 8418   2.358   6.566   2.379 -1.8554  0.1032 -1.6321
   20MOL   C401 8419   2.557   6.631   2.291 -0.2830  0.2453  0.6733
   20MOL   O402 8420   2.639   6.558   2.377  0.0134  0.2921 -0.1031
   20MOL   C403 8421   2.783   6.584   2.369 -0.8448  0.6156  0.0678
   20MOL   O404 8422   2.824   6.681   2.460  0.1012 -0.0813  0.1014
   20MOL   C405 8423   2.815   6.652   2.596 -0.6050 -0.8862  0.3738
   20MOL   C406 8424   2.828   6.764   2.684  0.1976  1.0407 -0.2095
   20MOL   C407 8425   2.804   6.751   2.822 -0.8824 -0.2501  0.2131
   20MOL   C408 8426   2.761   6.633   2.876 -0.5329 -0.1343  0.6751
   20MOL   C409 8427   2.755   6.517   2.787  0.0812  0.4522  0.4458
   20MOL   C410 8428   2.783   6.528   2.649 -0.1442  0.5251  0.8320
   20MOL   C411 8429   2.537   6.553   2.165  0.7519  0.3489  0.4161
   20MOL   H412 8430   2.602   6.728   2.270 -1.9715  0.3296 -2.9269
   20MOL   H413 8431   2.816   6.610   2.268  1.6850 -2.1228  0.1309
   20MOL   H414 8432   2.848   6.502   2.398 -0.4982  0.3868 -1.3527
   20MOL   H415 8433   2.840   6.866   2.651 -0.3332  1.1715 -0.0010
   20MOL   H416 8434   2.812   6.843   2.878  0.5149 -0.9856  1.2421
   20MOL   H417 8435   2.748   6.619   2.982  3.5721 -3.1983  0.9269
   20MOL   H418 8436   2.732   6.420   2.829 -1.8502 -0.0517 -1.6484
   20MOL   H419 8437   2.769   6.442   2.585 -1.8797  1.3287  0.1048
   20MOL   H420 8438   2.619   6.564   2.094 -1.5504  0.0884 -2.3567
   20MOL   H421 8439   2.456   6.594   2.104  2.2198  1.9589 -0.4750
   20MOL   H422 8440   2.525   6.444   2.165 -1.7719  0.6050 -0.5484
   21MOL     C1 8441   0.292   3.414   5.136  0.2492  0.0292 -0.0958
   21MOL     O2 8442   0.235   3.304   5.207 -0.0347 -0.7951 -0.2406
   21MOL     C3 8443   0.292   3.271   5.330 -0.3676 -0.0533 -0.4206
   21MOL     O4 8444   0.228   3.165   5.388  0.1549  0.6949 -0.2293
   21MOL     C5 8445   0.220   3.046   5.316 -0.1562 -0.5790  0.5897
   21MOL     C6 8446   0.284   3.010   5.197  0.4439 -0.4031 -0.4671
   21MOL     C7 8447   0.275   2.882   5.141 -0.1724 -0.3794  0.0199
   21MOL     C8 8448   0.191   2.789   5.205  0.0650  0.3545  0.1109
   21MOL     C9 8449   0.126   2.823   5.328  0.0448 -0.4931 -0.4520
   21MOL    C10 8450   0.147   2.950   5.378  0.2831 -0.2356 -0.1922
   21MOL    C11 8451   0.234   3.430   4.997  0.2007  0.1086 -0.2946
   21MOL    H12 8452   0.258   3.499   5.194 -0.1714 -1.1792  1.4541
   21MOL    H13 8453   0.400   3.260   5.322 -0.0732  2.7114 -0.8487
   21MOL    H14 8454   0.272   3.347   5.407 -1.0740  0.1360 -0.7782
   21MOL    H15 8455   0.336   3.093   5.151  0.1991 -1.0661 -1.9491
   21MOL    H16 8456   0.326   2.863   5.048  1.0746 -0.7241  0.7617
   21MOL    H17 8457   0.180   2.689   5.165  1.2319 -0.3428  1.4971
   21MOL    H18 8458   0.066   2.748   5.378  1.1089  0.1992  1.9291
   21MOL    H19 8459   0.103   2.995   5.466  3.0303 -0.0084  1.1141
   21MOL    H20 8460   0.126   3.429   5.009  0.2756  0.2552  0.4639
   21MOL    H21 8461   0.261   3.341   4.939  0.4096  1.1824 -1.8587
   21MOL    H22 8462   0.401   3.408   5.141  0.2698  1.0149  0.5645
   21MOL    C23 8463   0.268   3.558   4.928  0.3822 -0.2502 -0.2169
   21MOL    O24 8464   0.170   3.585   4.826 -0.6618  0.1037 -0.3129
   21MOL    C25 8465   0.077   3.685   4.856  0.2560  0.0906  0.0873
   21MOL    O26 8466   0.140   3.799   4.903 -0.5065 -0.9783  0.6289
   21MOL    C27 8467   0.209   3.882   4.813  0.1058 -0.0131 -0.5667
   21MOL    C28 8468   0.243   3.837   4.680 -0.3799  0.1430  0.1747
   21MOL    C29 8469   0.290   3.927   4.584 -0.1927 -0.0885 -0.2657
   21MOL    C30 8470   0.308   4.063   4.619  0.3220 -0.6837 -0.1631
   21MOL    C31 8471   0.294   4.107   4.755  0.1335 -0.1772  0.5461
   21MOL    C32 8472   0.242   4.018   4.851 -0.4399 -0.2491  0.1033
   21MOL    C33 8473   0.415   3.567   4.880 -0.2122  0.6301 -0.1475
   21MOL    H34 8474   0.260   3.634   5.005  0.1204 -0.7912  0.3008
   21MOL    H35 8475   0.001   3.646   4.924 -0.5896  1.7309  0.1179
   21MOL    H36 8476   0.024   3.709   4.764  0.4970  1.1883  0.2203
   21MOL    H37 8477   0.222   3.734   4.656  1.6119 -0.0049 -1.0390
   21MOL    H38 8478   0.304   3.898   4.481 -1.9473 -0.7125 -0.3399
   21MOL    H39 8479   0.341   4.140   4.551  2.1022 -1.5626 -0.3161
   21MOL    H40 8480   0.313   4.211   4.780  0.8352  0.0408 -0.8382
   21MOL    H41 8481   0.223   4.048   4.953  0.7531 -2.4137  0.9876
   21MOL    H42 8482   0.487   3.558   4.962 -0.2878 -3.0703 -0.4122
   21MOL    H43 8483   0.429   3.669   4.844 -0.2340  1.0289  0.9506
   21MOL    C44 8484   0.463   3.472   4.770  0.5532  0.1129  0.0966
   21MOL    O45 8485   0.529   3.367   4.835 -0.3571  0.2211 -0.3511
   21MOL    C46 8486   0.532   3.249   4.752 -0.3500  0.3635  0.0530
   21MOL    O47 8487   0.418   3.180   4.763 -0.0666  0.6822 -0.2594
   21MOL    C48 8488   0.415   3.047   4.720  0.3403 -0.4847 -0.5943
   21MOL    C49 8489   0.519   2.977   4.654  0.4538  0.6343 -0.0969
   21MOL    C50 8490   0.514   2.839   4.627 -0.8738 -0.2002 -0.3879
   21MOL    C51 8491   0.402   2.769   4.678 -0.0466  0.2946 -0.8426
   21MOL    C52 8492   0.296   2.836   4.731  0.3447  0.5114 -0.4269
   21MOL    C53 8493   0.306   2.975   4.757  0.6514  0.3012  0.2302
   21MOL    C54 8494   0.575   3.532   4.681  0.2935 -0.1578  0.3728
   21MOL    H55 8495   0.377   3.437   4.713  0.8220 -2.9265  1.4460
   21MOL    H56 8496   0.620   3.194   4.783 -0.8791  0.6256  2.1219
   21MOL    H57 8497   0.539   3.271   4.646 -1.3326  1.1743  0.1442
   21MOL    H58 8498   0.607   3.024   4.612  0.9783 -1.9609 -2.0085
   21MOL    H59 8499   0.597   2.786   4.583  0.5906  1.4934  0.2827
   21MOL    H60 8500   0.390   2.662   4.675 -1.7630  0.4819 -1.3477
   21MOL    H61 8501   0.218   2.775   4.773 -0.3275 -1.6634 -4.5252
   21MOL    H62 8502   0.221   3.024   4.803 -0.6974 -0.3424 -1.5330
   21MOL    H63 8503   0.654   3.573   4.745  3.1458 -2.4678 -1.5439
   21MOL    H64 8504   0.622   3.453   4.623  0.8620  0.9174 -0.6545
   21MOL    C65 8505   0.534   3.640   4.574  0.3128  0.0363  0.4055
   21MOL    O66 8506   0.652   3.696   4.518  0.4335 -0.0976  0.0534
   21MOL    C67 8507   0.652   3.824   4.471  0.3403  1.1735 -0.0923
   21MOL    O68 8508   0.627   3.920   4.565 -0.0543 -0.0456 -0.2641
   21MOL    C69 8509   0.679   4.044   4.552 -0.4213 -0.3307 -0.0709
   21MOL    C70 8510   0.746   4.090   4.437  0.5391 -0.0642  0.4971
   21MOL    C71 8511   0.803   4.220   4.425 -0.2171 -0.4976 -0.0517
   21MOL    C72 8512   0.789   4.308   4.534 -0.0925  0.0545  0.1237
   21MOL    C73 8513   0.720   4.264   4.644 -0.2166 -0.0381 -0.4910
   21MOL    C74 8514   0.676   4.135   4.656 -0.0017  0.4990 -0.2024
   21MOL    C75 8515   0.439   3.591   4.459  0.4343  0.4460 -0.1438
   21MOL    H76 8516   0.487   3.728   4.618 -2.4760 -0.4156 -1.5005
   21MOL    H77 8517   0.586   3.829   4.384 -1.8198 -1.5451  1.2814
   21MOL    H78 8518   0.752   3.836   4.430  0.1538  0.8969 -0.6393
   21MOL    H79 8519   0.762   4.027   4.350 -1.6264 -0.1683  0.1324
   21MOL    H80 8520   0.855   4.244   4.334  0.4627  1.7796  0.9094
   21MOL    H81 8521   0.830   4.408   4.532  0.2921 -0.1006 -2.4613
   21MOL    H82 8522   0.718   4.319   4.737  0.2682 -1.0433  0.1167
   21MOL    H83 8523   0.618   4.115   4.745  1.0322  1.4380  0.6965
   21MOL    H84 8524   0.354   3.542   4.505  0.3202 -0.5365 -1.3661
   21MOL    H85 8525   0.409   3.684   4.410  2.7376  1.3490  0.0659
   21MOL    C86 8526   0.509   3.503   4.349  0.3833  0.4232 -0.1250
   21MOL    O87 8527   0.419   3.413   4.290  0.4807 -0.3088 -0.0349
   21MOL    C88 8528   0.388   3.306   4.381 -0.4304  0.0888  0.3148
   21MOL    O89 8529   0.499   3.221   4.402  0.0118 -0.0383  0.5592
   21MOL    C90 8530   0.534   3.133   4.300  0.1198 -0.7757  0.0526
   21MOL    C91 8531   0.632   3.033   4.340  0.0333 -0.6981 -0.1582
   21MOL    C92 8532   0.654   2.921   4.257  0.1152 -0.2691  0.7788
   21MOL    C93 8533   0.584   2.900   4.140 -0.3733  0.5370 -0.2281
   21MOL    C94 8534   0.496   2.996   4.092 -0.7242 -0.5107 -0.1548
   21MOL    C95 8535   0.476   3.112   4.172  0.2997  0.4053  0.6643
   21MOL    C96 8536   0.558   3.587   4.228  0.5078  0.5908 -0.0533
   21MOL    H97 8537   0.592   3.452   4.396  0.2381 -1.5725 -1.9818
   21MOL    H98 8538   0.301   3.254   4.341  0.3657 -0.8427 -0.2348
   21MOL    H99 8539   0.370   3.334   4.485 -2.0798 -2.1983  0.6914
   21MOL   H100 8540   0.697   3.052   4.424  2.3906 -1.3011 -1.8089
   21MOL   H101 8541   0.735   2.854   4.283  1.0934  0.4845 -0.2698
   21MOL   H102 8542   0.605   2.811   4.082  1.1576 -0.8651  2.4041
   21MOL   H103 8543   0.458   2.982   3.992  1.1628 -3.4944 -0.5063
   21MOL   H104 8544   0.407   3.182   4.128  0.2922 -0.1797 -0.2753
   21MOL   H105 8545   0.478   3.637   4.172 -0.7296 -0.1234  1.0442
   21MOL   H106 8546   0.604   3.683   4.247  0.0406  0.4174  2.0336
   21MOL   C107 8547   0.665   3.522   4.135  0.2833 -0.3017 -0.5101
   21MOL   O108 8548   0.658   3.600   4.021  0.0158  0.3231  0.5542
   21MOL   C109 8549   0.570   3.558   3.920 -0.9906 -0.0169 -0.1052
   21MOL   O110 8550   0.548   3.662   3.829  0.5935  0.1094  0.4476
   21MOL   C111 8551   0.448   3.644   3.734  0.1564 -0.0287 -0.1500
   21MOL   C112 8552   0.394   3.755   3.664  0.5658  0.1424  0.3827
   21MOL   C113 8553   0.300   3.736   3.563 -0.0688  0.4254 -0.4316
   21MOL   C114 8554   0.258   3.610   3.526  0.3854  0.3582 -0.3284
   21MOL   C115 8555   0.308   3.499   3.590 -0.5781 -0.3992  0.6067
   21MOL   C116 8556   0.403   3.512   3.694  0.2460 -0.8686  0.2798
   21MOL   C117 8557   0.811   3.531   4.172  0.3248 -0.5007 -0.4038
   21MOL   H118 8558   0.641   3.416   4.123  1.6152 -0.3015 -3.5698
   21MOL   H119 8559   0.485   3.514   3.971  0.0594 -1.2406  0.6201
   21MOL   H120 8560   0.612   3.477   3.861 -0.1772 -0.1239  0.5988
   21MOL   H121 8561   0.419   3.856   3.695 -2.6121  1.1994 -0.2988
   21MOL   H122 8562   0.263   3.824   3.513 -1.4120 -0.3844 -0.8963
   21MOL   H123 8563   0.182   3.606   3.450 -0.1287  0.7578  0.1652
   21MOL   H124 8564   0.260   3.405   3.567  0.7933 -0.6820 -1.2271
   21MOL   H125 8565   0.437   3.419   3.738 -2.2718 -2.0303 -0.1521
   21MOL   H126 8566   0.814   3.476   4.265 -1.8929  1.8368  1.1314
   21MOL   H127 8567   0.835   3.637   4.182  1.1706 -0.5124 -2.0277
   21MOL   C128 8568   0.921   3.472   4.080  0.1233  0.5890 -0.5437
   21MOL   O129 8569   0.887   3.338   4.080 -0.4734 -0.4010 -0.1654
   21MOL   C130 8570   0.936   3.259   3.974  0.0577 -0.1207 -0.3980
   21MOL   O131 8571   0.910   3.301   3.849  0.1786  0.4425  0.2436
   21MOL   C132 8572   0.802   3.247   3.780 -0.6153  0.2280 -0.1669
   21MOL   C133 8573   0.708   3.160   3.836 -0.3948  0.1506  0.1825
   21MOL   C134 8574   0.601   3.107   3.760 -0.4264  0.1228 -0.1206
   21MOL   C135 8575   0.587   3.141   3.628  0.2398  0.1878 -0.4955
   21MOL   C136 8576   0.674   3.241   3.570 -0.2704 -0.2619 -0.5965
   21MOL   C137 8577   0.787   3.289   3.642 -0.0599  0.0920 -0.8300
   21MOL   C138 8578   1.068   3.492   4.133 -0.9099 -0.5846  0.1600
   21MOL   H139 8579   0.896   3.534   3.994  0.6172  0.5641 -0.7068
   21MOL   H140 8580   0.921   3.152   3.991  0.9126 -0.4369 -1.5723
   21MOL   H141 8581   1.044   3.261   3.987 -0.0504  0.1925  0.4985
   21MOL   H142 8582   0.728   3.111   3.930  0.2339  0.5776  0.2692
   21MOL   H143 8583   0.541   3.033   3.810 -0.4207  0.7474  0.8264
   21MOL   H144 8584   0.504   3.096   3.577  2.9515 -6.0366  0.1739
   21MOL   H145 8585   0.661   3.253   3.464  0.0701 -0.4642 -0.6652
   21MOL   H146 8586   0.862   3.353   3.598  1.3783 -1.9087 -1.3945
   21MOL   H147 8587   1.065   3.468   4.239 -1.8316 -1.9298 -0.1506
   21MOL   H148 8588   1.138   3.426   4.083  0.6125  2.4118 -1.8150
   21MOL   C149 8589   1.126   3.633   4.104  0.0684  0.1670 -0.5167
   21MOL   O150 8590   1.205   3.675   4.214 -0.1026 -0.5186  0.2377
   21MOL   C151 8591   1.136   3.740   4.318 -0.1366 -0.0473  0.0755
   21MOL   O152 8592   1.062   3.856   4.276 -0.8353  0.2654 -0.1857
   21MOL   C153 8593   1.126   3.970   4.244  0.3977  0.2298 -0.3932
   21MOL   C154 8594   1.268   3.986   4.233 -0.2678  0.3014  0.1122
   21MOL   C155 8595   1.320   4.116   4.202 -0.0073  0.0862  0.1259
   21MOL   C156 8596   1.228   4.227   4.201  0.3336  0.4571 -0.2197
   21MOL   C157 8597   1.090   4.207   4.203  0.1337 -0.8482  0.2444
   21MOL   C158 8598   1.039   4.079   4.228  0.0036  0.3491 -0.1764
   21MOL   C159 8599   1.213   3.642   3.974  0.2042  0.5729  0.4057
   21MOL   H160 8600   1.045   3.705   4.095  0.0601  0.3696  1.1166
   21MOL   H161 8601   1.057   3.675   4.356 -0.0994 -0.1685 -0.0520
   21MOL   H162 8602   1.209   3.773   4.391  0.2194  2.9561 -1.5860
   21MOL   H163 8603   1.333   3.902   4.251 -0.7115 -0.4961 -1.8226
   21MOL   H164 8604   1.426   4.136   4.206  0.1920 -0.9185 -0.0369
   21MOL   H165 8605   1.274   4.324   4.188  0.8903  0.0842 -1.0727
   21MOL   H166 8606   1.024   4.292   4.193  0.0185 -0.9604  0.0352
   21MOL   H167 8607   0.932   4.069   4.237  0.0452 -0.0556 -0.1408
   21MOL   H168 8608   1.310   3.596   3.991  0.3784  1.1556  1.0077
   21MOL   H169 8609   1.232   3.743   3.937 -0.5741  1.6660  2.8728
   21MOL   C170 8610   1.146   3.586   3.843 -1.1701  0.3355 -0.0783
   21MOL   O171 8611   1.045   3.687   3.821 -0.0285  0.2950 -0.6639
   21MOL   C172 8612   0.933   3.660   3.752 -0.4148 -0.1350 -0.8416
   21MOL   O173 8613   0.960   3.688   3.614 -0.5386 -0.1229 -1.1149
   21MOL   C174 8614   0.865   3.662   3.520  0.5062 -0.1959 -0.0109
   21MOL   C175 8615   0.916   3.641   3.388 -0.0222 -0.1631  0.8313
   21MOL   C176 8616   0.833   3.626   3.278 -0.3912  0.2919  0.0144
   21MOL   C177 8617   0.698   3.633   3.299  0.1328  0.8754 -0.0613
   21MOL   C178 8618   0.638   3.649   3.428 -0.1661 -0.2672 -0.6975
   21MOL   C179 8619   0.724   3.663   3.540 -0.5796  0.3562 -0.1068
   21MOL   C180 8620   1.238   3.580   3.713 -0.0043  0.3703  0.0815
   21MOL   H181 8621   1.109   3.488   3.872 -2.6600  0.0387 -2.8640
   21MOL   H182 8622   0.860   3.724   3.801  0.0908 -0.5633  0.4850
   21MOL   H183 8623   0.897   3.559   3.767 -1.2388  0.6182  2.5641
   21MOL   H184 8624   1.022   3.658   3.369 -0.5325 -0.0796 -2.1278
   21MOL   H185 8625   0.885   3.625   3.184 -1.7026  3.7026 -0.8088
   21MOL   H186 8626   0.631   3.634   3.214 -2.6078 -2.4442  1.8951
   21MOL   H187 8627   0.532   3.667   3.435  0.0946  1.1756 -0.2716
   21MOL   H188 8628   0.681   3.683   3.638  2.5256 -0.2626  1.4269
   21MOL   H189 8629   1.178   3.564   3.624 -0.0889 -0.3281  0.2615
   21MOL   H190 8630   1.272   3.682   3.697 -1.2809  0.4179 -2.5499
   21MOL   C191 8631   1.360   3.492   3.717 -0.6337 -0.1022 -0.8072
   21MOL   O192 8632   1.349   3.387   3.809 -0.3770 -0.6922  0.2953
   21MOL   C193 8633   1.283   3.272   3.770  0.1482  0.0380  0.1927
   21MOL   O194 8634   1.258   3.188   3.878  0.0696  0.0167 -0.4607
   21MOL   C195 8635   1.361   3.115   3.940 -0.4415  0.2738  0.1128
   21MOL   C196 8636   1.498   3.148   3.923  0.5370 -0.2304 -0.1581
   21MOL   C197 8637   1.591   3.088   4.010 -0.5106 -0.1997 -0.2565
   21MOL   C198 8638   1.554   2.998   4.109 -0.6605 -0.5172  0.6042
   21MOL   C199 8639   1.417   2.957   4.115  0.2517 -0.0242 -0.1220
   21MOL   C200 8640   1.324   3.013   4.032 -0.3697 -0.4386 -0.2385
   21MOL   C201 8641   1.505   3.556   3.737 -0.1102 -0.5392  0.2892
   21MOL   H202 8642   1.371   3.445   3.619 -1.3513  2.9340 -2.3919
   21MOL   H203 8643   1.336   3.224   3.688 -0.0177  0.9429 -0.4565
   21MOL   H204 8644   1.182   3.276   3.727 -0.0208  0.7955  0.6615
   21MOL   H205 8645   1.529   3.221   3.849  0.7610 -0.3791 -0.2115
   21MOL   H206 8646   1.696   3.111   4.001 -0.2690 -1.6765 -1.3389
   21MOL   H207 8647   1.620   2.986   4.194 -1.0965  0.0062  1.0211
   21MOL   H208 8648   1.383   2.899   4.200  0.2141 -0.3024 -0.3273
   21MOL   H209 8649   1.218   3.001   4.049 -0.3385 -1.6435 -0.8099
   21MOL   H210 8650   1.500   3.654   3.691 -2.5522  0.0101  1.5791
   21MOL   H211 8651   1.529   3.573   3.842  2.8043  1.8974 -0.7069
   21MOL   C212 8652   1.605   3.466   3.669  0.9443 -0.3563  0.0840
   21MOL   O213 8653   1.614   3.488   3.530  0.3727 -0.3222 -0.7810
   21MOL   C214 8654   1.652   3.380   3.452 -0.2023  0.1580 -0.0162
   21MOL   O215 8655   1.571   3.273   3.465 -0.1666 -0.4328 -0.3582
   21MOL   C216 8656   1.441   3.293   3.418 -0.7268  0.4786  0.0346
   21MOL   C217 8657   1.358   3.179   3.438 -0.3547 -0.4255  0.4666
   21MOL   C218 8658   1.219   3.184   3.404 -0.0732 -0.7134  0.3046
   21MOL   C219 8659   1.167   3.308   3.352 -0.1651 -0.1644  0.3197
   21MOL   C220 8660   1.250   3.419   3.332  0.0709 -0.2047  0.1418
   21MOL   C221 8661   1.386   3.409   3.357  0.3344 -0.9548 -1.1878
   21MOL   C222 8662   1.750   3.506   3.722  0.3070 -0.1607 -0.4293
   21MOL   H223 8663   1.586   3.363   3.696  0.4394  0.6014  3.7174
   21MOL   H224 8664   1.749   3.350   3.491 -1.2113  0.2608  2.6533
   21MOL   H225 8665   1.651   3.399   3.345 -0.8933  2.1591  0.3349
   21MOL   H226 8666   1.407   3.088   3.469  1.2259  0.1899 -0.1935
   21MOL   H227 8667   1.164   3.091   3.413 -1.3575 -0.0462 -0.5147
   21MOL   H228 8668   1.060   3.312   3.335  0.0050  0.7372 -0.5841
   21MOL   H229 8669   1.217   3.515   3.294  0.9517  0.1499  0.2470
   21MOL   H230 8670   1.448   3.493   3.330  1.5455 -1.8442 -1.2160
   21MOL   H231 8671   1.808   3.538   3.635 -1.4565  2.9750 -0.5477
   21MOL   H232 8672   1.738   3.606   3.763 -4.5425 -0.5222 -0.5812
   21MOL   C233 8673   1.823   3.416   3.818 -0.2482  0.1131 -0.5397
   21MOL   O234 8674   1.935   3.361   3.745  0.7468  0.1697 -0.3980
   21MOL   C235 8675   1.938   3.227   3.748  0.2141  0.1988  0.1909
   21MOL   O236 8676   1.826   3.182   3.686  0.1505 -0.5772  0.1391
   21MOL   C237 8677   1.816   3.051   3.657  0.0726  0.1859 -0.1081
   21MOL   C238 8678   1.688   3.006   3.631  0.0121  0.1096 -0.2597
   21MOL   C239 8679   1.664   2.871   3.600 -0.1685  0.3404  0.2525
   21MOL   C240 8680   1.768   2.781   3.591  0.6019  0.1594 -0.1265
   21MOL   C241 8681   1.897   2.830   3.619  0.3170  0.3269 -0.3423
   21MOL   C242 8682   1.924   2.963   3.653 -0.0706  0.0741 -0.1277
   21MOL   C243 8683   1.888   3.489   3.944  0.8447 -0.3450  0.4692
   21MOL   H244 8684   1.759   3.334   3.850 -3.3373  2.1672 -1.2657
   21MOL   H245 8685   1.945   3.193   3.851 -1.8105 -0.5624  0.0968
   21MOL   H246 8686   2.025   3.207   3.685  1.4712 -1.6420  2.4701
   21MOL   H247 8687   1.610   3.081   3.633  1.9342  2.1610 -0.6610
   21MOL   H248 8688   1.568   2.830   3.573  1.0100 -0.8012 -2.4355
   21MOL   H249 8689   1.754   2.676   3.569  0.8319  0.2106 -0.5217
   21MOL   H250 8690   1.983   2.763   3.617 -0.0056 -0.1704  1.3147
   21MOL   H251 8691   2.022   2.998   3.683 -0.0369 -2.1366  2.6127
   21MOL   H252 8692   1.967   3.424   3.983  0.9436 -0.1586  0.5787
   21MOL   H253 8693   1.940   3.572   3.896 -0.0003 -0.5724 -0.8459
   21MOL   C254 8694   1.784   3.527   4.057 -0.6750 -0.0600 -0.1831
   21MOL   O255 8695   1.711   3.407   4.066  0.4701  0.8327  0.8283
   21MOL   C256 8696   1.593   3.409   4.134  0.4465  0.4708 -0.4526
   21MOL   O257 8697   1.607   3.340   4.254  0.4611 -0.2376  0.0538
   21MOL   C258 8698   1.493   3.281   4.313 -0.5319  0.6759 -0.1959
   21MOL   C259 8699   1.515   3.180   4.410 -0.4963 -0.2008  0.5423
   21MOL   C260 8700   1.402   3.113   4.467  0.4074 -0.0349  0.1261
   21MOL   C261 8701   1.273   3.148   4.425  0.1830  0.4777  0.5240
   21MOL   C262 8702   1.257   3.232   4.313 -1.1551  0.5473  0.5595
   21MOL   C263 8703   1.364   3.310   4.271 -0.0094 -0.7141  0.0776
   21MOL   C264 8704   1.842   3.553   4.198  1.4090  0.6682  0.6362
   21MOL   H265 8705   1.728   3.611   4.017 -0.6155 -0.3734 -0.9285
   21MOL   H266 8706   1.518   3.362   4.070  0.0630 -0.9415  0.9991
   21MOL   H267 8707   1.545   3.505   4.154 -0.6620 -0.3903  1.1216
   21MOL   H268 8708   1.619   3.170   4.438  0.3790  2.6632 -1.4158
   21MOL   H269 8709   1.422   3.046   4.549  0.6469 -3.4547 -2.6187
   21MOL   H270 8710   1.181   3.110   4.467  0.9769 -1.2140  0.7812
   21MOL   H271 8711   1.162   3.253   4.266 -0.1227 -0.1446 -1.9306
   21MOL   H272 8712   1.340   3.376   4.190  0.3038 -0.3423  0.2824
   21MOL   H273 8713   1.771   3.588   4.273  0.6724 -2.4164  1.4873
   21MOL   H274 8714   1.870   3.451   4.227 -2.8640 -0.7704  0.1973
   21MOL   C275 8715   1.967   3.655   4.216  0.0334  0.2722  0.1603
   21MOL   O276 8716   1.922   3.783   4.269  0.3333 -0.1680 -0.3094
   21MOL   C277 8717   1.869   3.877   4.182  0.5077 -0.0145  0.4039
   21MOL   O278 8718   1.750   3.829   4.122  0.4789  0.2348 -0.0548
   21MOL   C279 8719   1.695   3.904   4.026  0.0151 -0.6973 -0.1978
   21MOL   C280 8720   1.744   4.029   3.976  1.0222 -0.0917  0.8083
   21MOL   C281 8721   1.673   4.113   3.888 -0.5888  0.0990  0.6310
   21MOL   C282 8722   1.552   4.062   3.836  0.3845  1.3289  0.0876
   21MOL   C283 8723   1.500   3.940   3.884 -1.0537 -0.3421 -0.7678
   21MOL   C284 8724   1.569   3.859   3.974 -0.2536 -0.4992 -0.0404
   21MOL   C285 8725   2.079   3.592   4.305 -0.0632 -0.1396  0.4985
   21MOL   H286 8726   2.009   3.672   4.117 -2.0269 -1.8332 -1.1171
   21MOL   H287 8727   1.936   3.893   4.097 -1.3553  0.8219 -0.9764
   21MOL   H288 8728   1.852   3.976   4.224 -1.0371  0.4983 -1.3204
   21MOL   H289 8729   1.828   4.076   4.025 -0.6937  3.2995  0.6113
   21MOL   H290 8730   1.716   4.209   3.866  0.1679 -0.5148 -0.6687
   21MOL   H291 8731   1.484   4.119   3.774  2.7042  1.7572 -2.1167
   21MOL   H292 8732   1.404   3.896   3.863 -1.1017 -1.1011  0.9336
   21MOL   H293 8733   1.521   3.769   4.008  0.8126 -0.3315  1.9565
   21MOL   H294 8734   2.104   3.498   4.257  1.4865  1.5162 -2.0669
   21MOL   H295 8735   2.037   3.563   4.401 -1.1221  1.6617  0.5963
   21MOL   C296 8736   2.210   3.671   4.292  0.2755 -0.5862  0.3255
   21MOL   O297 8737   2.253   3.706   4.154  0.0566  0.4027  0.6375
   21MOL   C298 8738   2.324   3.615   4.082 -1.1285 -0.0520  0.5468
   21MOL   O299 8739   2.464   3.613   4.123  1.2661 -0.0250 -0.0017
   21MOL   C300 8740   2.538   3.727   4.109  0.4073  0.3610  0.2552
   21MOL   C301 8741   2.490   3.850   4.062  0.4731  0.4517  0.1403
   21MOL   C302 8742   2.574   3.962   4.042 -0.4791  0.4281  0.4641
   21MOL   C303 8743   2.707   3.962   4.097 -0.1013 -0.4891  0.0582
   21MOL   C304 8744   2.757   3.839   4.135  0.2054  0.1866  0.9023
   21MOL   C305 8745   2.673   3.725   4.147 -0.2503  0.7975  0.2530
   21MOL   C306 8746   2.202   3.820   4.354  0.1209  0.1591  0.0364
   21MOL   H307 8747   2.293   3.626   4.345 -0.2597 -0.1467  1.5475
   21MOL   H308 8748   2.310   3.645   3.979  2.2715 -0.7893 -0.1859
   21MOL   H309 8749   2.291   3.512   4.099 -1.5057  0.0920  0.6753
   21MOL   H310 8750   2.387   3.867   4.033  0.2080  1.2375  1.4829
   21MOL   H311 8751   2.535   4.055   4.004 -2.2962 -0.9668 -1.1938
   21MOL   H312 8752   2.769   4.050   4.107 -0.8164  0.2269 -1.6370
   21MOL   H313 8753   2.862   3.829   4.161  0.4129  1.5887  0.6521
   21MOL   H314 8754   2.712   3.630   4.180  1.0682  0.5050 -1.9830
   21MOL   H315 8755   2.126   3.820   4.432 -0.5068  1.8735 -0.5569
   21MOL   H316 8756   2.169   3.885   4.273  0.5475 -0.8211 -0.9493
   21MOL   C317 8757   2.338   3.873   4.411  0.0759 -0.3276  0.1281
   21MOL   O318 8758   2.397   3.789   4.508 -0.1819 -0.0951  0.0649
   21MOL   C319 8759   2.522   3.742   4.464 -0.4234 -0.1555  0.0719
   21MOL   O320 8760   2.621   3.840   4.443 -0.0921  0.3960  0.3030
   21MOL   C321 8761   2.667   3.923   4.544 -0.1412  0.2792 -0.5027
   21MOL   C322 8762   2.779   4.003   4.504 -0.1705 -0.8076 -0.4891
   21MOL   C323 8763   2.830   4.096   4.600 -0.0338  0.0654  0.0355
   21MOL   C324 8764   2.762   4.115   4.720  0.8615 -0.0497  0.5741
   21MOL   C325 8765   2.647   4.041   4.755 -0.1749 -0.2831 -0.3828
   21MOL   C326 8766   2.601   3.943   4.665 -0.2542  0.0040 -0.1847
   21MOL   C327 8767   2.306   4.006   4.479 -0.0736  0.1490  0.5905
   21MOL   H328 8768   2.402   3.895   4.325 -2.9602 -1.0479 -2.3814
   21MOL   H329 8769   2.513   3.677   4.378 -1.0541 -0.1423  0.1290
   21MOL   H330 8770   2.560   3.679   4.545  3.0669  1.4326 -0.2127
   21MOL   H331 8771   2.811   3.995   4.401  1.4844 -0.3487 -0.0308
   21MOL   H332 8772   2.915   4.151   4.563 -0.8582  0.1159 -1.8597
   21MOL   H333 8773   2.810   4.192   4.778  1.0754  1.0350 -1.0079
   21MOL   H334 8774   2.607   4.053   4.855 -0.6746  0.7577 -0.7077
   21MOL   H335 8775   2.515   3.884   4.693  0.3807 -0.1919  1.4020
   21MOL   H336 8776   2.207   3.998   4.524  0.6642 -1.1295  2.0217
   21MOL   H337 8777   2.363   4.011   4.572 -0.7143 -1.7987  1.0994
   21MOL   C338 8778   2.320   4.131   4.396 -0.5978 -0.4919  0.3371
   21MOL   O339 8779   2.236   4.230   4.466  0.1406 -0.1900  0.1511
   21MOL   C340 8780   2.104   4.221   4.448  0.0952  0.6184  0.5315
   21MOL   O341 8781   2.067   4.240   4.312 -0.4395 -0.4623  0.2384
   21MOL   C342 8782   2.092   4.367   4.252  0.0734 -0.4352  0.2791
   21MOL   C343 8783   2.158   4.471   4.323  0.5179 -0.5519 -0.7146
   21MOL   C344 8784   2.178   4.591   4.253 -0.1444  0.4976 -0.0974
   21MOL   C345 8785   2.127   4.609   4.121 -0.1838 -0.0097  0.7377
   21MOL   C346 8786   2.053   4.502   4.058 -0.1166  0.3005  0.2370
   21MOL   C347 8787   2.039   4.377   4.121 -0.3554 -0.3965 -1.0744
   21MOL   C348 8788   2.462   4.183   4.380 -0.4146  0.0609 -0.2069
   21MOL   H349 8789   2.276   4.117   4.298 -0.3412 -0.9178  0.2842
   21MOL   H350 8790   2.066   4.303   4.508 -0.3518 -1.0154  2.5400
   21MOL   H351 8791   2.055   4.125   4.466 -4.1975  2.6938  0.3674
   21MOL   H352 8792   2.194   4.457   4.423  0.2135  1.2179 -0.3330
   21MOL   H353 8793   2.224   4.677   4.300  0.3920  0.5833 -0.7658
   21MOL   H354 8794   2.139   4.704   4.071 -0.5085  1.0015  2.5279
   21MOL   H355 8795   2.016   4.510   3.957  2.2686 -0.0715 -0.6908
   21MOL   H356 8796   1.987   4.295   4.074  0.8693 -1.8675  0.0804
   21MOL   H357 8797   2.525   4.094   4.374 -2.6055 -1.4044 -3.2747
   21MOL   H358 8798   2.489   4.218   4.479  0.9437 -1.1222 -0.1444
   21MOL   C359 8799   2.486   4.292   4.271 -0.2477  0.1464  0.3648
   21MOL   O360 8800   2.445   4.243   4.143 -0.3770 -0.1008  0.1979
   21MOL   C361 8801   2.407   4.341   4.048 -0.1501  0.2490  0.0498
   21MOL   O362 8802   2.509   4.361   3.958 -0.0109 -0.5950  0.4180
   21MOL   C363 8803   2.470   4.391   3.831 -0.4258  0.0899  0.5192
   21MOL   C364 8804   2.539   4.328   3.723  0.4001 -0.3391  0.9420
   21MOL   C365 8805   2.495   4.354   3.591  0.3743 -1.0101  0.8750
   21MOL   C366 8806   2.387   4.436   3.568  0.0796  0.2352  0.1671
   21MOL   C367 8807   2.319   4.499   3.672  0.7599  0.1829 -0.4495
   21MOL   C368 8808   2.361   4.475   3.806  0.0875 -0.6238 -0.0477
   21MOL   C369 8809   2.624   4.350   4.263 -0.6580  0.8134 -0.0776
   21MOL   H370 8810   2.412   4.367   4.297 -0.7126  0.0109 -0.5402
   21MOL   H371 8811   2.386   4.434   4.101 -1.0305  0.2386 -0.2884
   21MOL   H372 8812   2.310   4.308   4.012  0.1405 -0.6536  0.0680
   21MOL   H373 8813   2.624   4.263   3.740  0.5315 -0.1238  1.1188
   21MOL   H374 8814   2.539   4.309   3.503 -1.3238 -0.1332 -0.4506
   21MOL   H375 8815   2.355   4.454   3.466  0.6613 -0.5142 -0.1518
   21MOL   H376 8816   2.243   4.571   3.644 -0.1076  0.0609  1.4587
   21MOL   H377 8817   2.300   4.521   3.882 -1.5648 -1.5834 -0.7798
   21MOL   H378 8818   2.629   4.418   4.178  2.0686  0.6485 -0.1210
   21MOL   H379 8819   2.691   4.268   4.237 -2.0969 -0.8201  1.2566
   21MOL   C380 8820   2.672   4.436   4.382  0.0336 -0.1695 -0.0624
   21MOL   O381 8821   2.605   4.566   4.391  1.0115  0.3251 -0.6857
   21MOL   C382 8822   2.504   4.574   4.486  0.2033  0.7481 -0.2825
   21MOL   O383 8823   2.552   4.557   4.616  0.7235 -0.1490  0.2042
   21MOL   C384 8824   2.503   4.467   4.709  0.4250 -0.5615  1.4316
   21MOL   C385 8825   2.581   4.435   4.822 -0.2303  0.7605  0.1682
   21MOL   C386 8826   2.540   4.345   4.919  0.0222  0.3222 -0.2681
   21MOL   C387 8827   2.409   4.289   4.908 -0.1758  0.6652  0.1221
   21MOL   C388 8828   2.327   4.326   4.804 -0.0716 -0.2199  0.4877
   21MOL   C389 8829   2.376   4.403   4.694  0.2467  0.4252  0.4289
   21MOL   C390 8830   2.808   4.473   4.331 -0.2392 -0.0882 -0.5746
   21MOL   H391 8831   2.676   4.374   4.471  1.4599 -1.8087 -1.2362
   21MOL   H392 8832   2.466   4.675   4.473  0.7796  0.9418 -0.4817
   21MOL   H393 8833   2.426   4.504   4.455  1.7137 -0.7328 -0.8459
   21MOL   H394 8834   2.683   4.470   4.819 -0.0799  0.2337 -1.5494
   21MOL   H395 8835   2.606   4.320   5.001 -1.1375 -1.4079  0.1808
   21MOL   H396 8836   2.362   4.231   4.986 -0.1285  0.8949  0.3208
   21MOL   H397 8837   2.222   4.301   4.797 -0.1120 -0.5712  2.1958
   21MOL   H398 8838   2.303   4.421   4.616 -0.6335  0.7554  1.3270
   21MOL   H399 8839   2.801   4.514   4.231  0.5898 -2.4925 -1.6732
   21MOL   H400 8840   2.870   4.385   4.350 -2.3532 -1.5848 -0.4168
   21MOL   C401 8841   2.881   4.578   4.412  0.7140 -1.0694 -0.2613
   21MOL   O402 8842   2.879   4.542   4.547  0.0345 -0.1782  0.0203
   21MOL   C403 8843   2.866   4.647   4.641 -0.0663  0.1611  0.6091
   21MOL   O404 8844   2.967   4.738   4.646 -0.1886  0.0168  0.1336
   21MOL   C405 8845   3.089   4.692   4.694 -0.1792 -0.2378 -1.9254
   21MOL   C406 8846   3.192   4.779   4.719  0.0478 -0.5719 -0.6555
   21MOL   C407 8847   3.323   4.744   4.770  0.0649 -0.4448  0.5463
   21MOL   C408 8848   3.352   4.608   4.780  0.1330  0.0114  0.5706
   21MOL   C409 8849   3.246   4.515   4.765 -0.3011  0.5785  0.8254
   21MOL   C410 8850   3.118   4.555   4.731  0.3140  0.5302 -0.1396
   21MOL   C411 8851   3.029   4.593   4.366  0.0712 -0.1283  0.3065
   21MOL   H412 8852   2.842   4.680   4.405  1.4741 -0.6304  1.6504
   21MOL   H413 8853   2.860   4.611   4.744  0.2162 -2.2488 -0.2026
   21MOL   H414 8854   2.775   4.703   4.620  0.8839  1.9203  1.0180
   21MOL   H415 8855   3.174   4.883   4.697  1.8160 -0.1614 -0.2243
   21MOL   H416 8856   3.402   4.810   4.802 -0.7010  1.0943 -0.6452
   21MOL   H417 8857   3.444   4.578   4.829 -0.0842 -0.4896  0.6824
   21MOL   H418 8858   3.262   4.410   4.785 -2.3364 -0.1252 -1.0263
   21MOL   H419 8859   3.035   4.487   4.727 -1.2807  2.2705  2.0102
   21MOL   H420 8860   3.033   4.603   4.257  1.4743  2.7315  0.5875
   21MOL   H421 8861   3.086   4.504   4.393  0.4433  0.1393  0.4034
   21MOL   H422 8862   3.083   4.680   4.402 -2.7853  1.2893  1.2671
   22MOL     C1 8863   3.088   7.518   5.575 -0.5403 -0.5426 -0.5567
   22MOL     O2 8864   3.166   7.404   5.603 -0.2909  0.1214  0.0589
   22MOL     C3 8865   3.189   7.335   5.487  1.0788 -0.1890  0.4417
   22MOL     O4 8866   3.079   7.304   5.411 -0.1465  0.1579  0.0676
   22MOL     C5 8867   3.005   7.189   5.425 -0.1176 -0.9277  0.8070
   22MOL     C6 8868   3.040   7.082   5.509  0.1682 -0.6962  0.3989
   22MOL     C7 8869   2.961   6.964   5.512 -0.3977 -0.2198  0.2852
   22MOL     C8 8870   2.853   6.950   5.421  0.4028  0.0286  0.3436
   22MOL     C9 8871   2.828   7.053   5.330  0.5839 -0.9550  0.3188
   22MOL    C10 8872   2.910   7.167   5.325 -0.3385  0.2926 -0.5665
   22MOL    C11 8873   3.080   7.608   5.702 -0.0422  0.6498 -0.2820
   22MOL    H12 8874   3.145   7.574   5.501 -0.1681 -1.0136 -0.6231
   22MOL    H13 8875   3.257   7.393   5.426  0.1876  1.3783  0.9112
   22MOL    H14 8876   3.247   7.244   5.506  1.9646  0.5623  1.3897
   22MOL    H15 8877   3.117   7.096   5.583  0.1157  1.2867  0.1038
   22MOL    H16 8878   2.982   6.897   5.594  0.6376 -0.6428 -0.3112
   22MOL    H17 8879   2.781   6.874   5.446  0.4555  0.2202  1.0871
   22MOL    H18 8880   2.749   7.045   5.256  1.0041  0.7830 -0.3263
   22MOL    H19 8881   2.887   7.249   5.258 -1.6111 -0.6625 -1.3146
   22MOL    H20 8882   3.165   7.598   5.769 -0.8923 -0.3652  0.6668
   22MOL    H21 8883   3.003   7.569   5.769  0.1340  0.9556  0.0978
   22MOL    H22 8884   2.990   7.493   5.536 -0.3735 -0.5963 -0.9465
   22MOL    C23 8885   3.044   7.752   5.669 -0.5521  0.0058 -0.4486
   22MOL    O24 8886   3.128   7.801   5.562 -0.5733 -0.0826 -0.5598
   22MOL    C25 8887   3.077   7.912   5.496  0.3188  0.5849 -0.2918
   22MOL    O26 8888   2.987   7.871   5.396 -0.3127  0.0249  0.1301
   22MOL    C27 8889   3.047   7.804   5.297 -0.6090  0.4602  0.9856
   22MOL    C28 8890   3.156   7.859   5.228  0.1489  0.6222  1.4612
   22MOL    C29 8891   3.223   7.788   5.123  0.4971  0.1275  0.0686
   22MOL    C30 8892   3.182   7.654   5.101 -0.0525  0.5012 -0.7997
   22MOL    C31 8893   3.065   7.604   5.166  0.1780 -0.1842  0.3252
   22MOL    C32 8894   2.997   7.679   5.256  0.0717  0.1817 -0.0432
   22MOL    C33 8895   3.056   7.838   5.799  0.0933  0.2283 -0.4099
   22MOL    H34 8896   2.943   7.751   5.626 -0.5247 -2.1565 -0.5397
   22MOL    H35 8897   3.158   0.007   5.476  0.2536  1.8878  3.6837
   22MOL    H36 8898   3.011   7.965   5.564  1.5932  1.5228  0.2340
   22MOL    H37 8899   3.200   7.954   5.254  1.4562  0.9144 -1.5894
   22MOL    H38 8900   3.297   7.837   5.061  0.5095  1.8082  1.3794
   22MOL    H39 8901   3.225   7.586   5.029  0.3665 -0.6929  0.5688
   22MOL    H40 8902   3.021   7.509   5.140 -0.6123  0.6405 -1.4442
   22MOL    H41 8903   2.916   7.653   5.322 -1.6650  0.9325 -1.8254
   22MOL    H42 8904   3.068   7.943   5.771  1.3339 -0.0223 -0.8379
   22MOL    H43 8905   3.151   7.814   5.847  1.1735  3.3591 -0.8567
   22MOL    C44 8906   2.941   7.823   5.890 -0.2035 -0.1209  0.0594
   22MOL    O45 8907   2.826   7.869   5.821  1.1229 -0.1108  0.2743
   22MOL    C46 8908   2.702   7.829   5.878 -0.3084 -0.1246  0.2164
   22MOL    O47 8909   2.675   7.695   5.849 -0.8566  0.0354 -1.1087
   22MOL    C48 8910   2.685   7.655   5.716  0.2632  0.2323  0.7081
   22MOL    C49 8911   2.683   7.745   5.608 -0.3565 -0.2176  0.2550
   22MOL    C50 8912   2.693   7.691   5.478  0.2441 -0.7433  0.3022
   22MOL    C51 8913   2.704   7.557   5.450 -0.6096  0.7138 -0.5571
   22MOL    C52 8914   2.707   7.471   5.562 -0.4619  0.7347  0.7805
   22MOL    C53 8915   2.696   7.518   5.695  0.2037 -0.4850  0.1278
   22MOL    C54 8916   2.967   7.880   6.024  0.3795 -0.2857  0.4962
   22MOL    H55 8917   2.927   7.715   5.903 -1.9828  0.4264  3.3683
   22MOL    H56 8918   2.615   7.891   5.857 -0.3632 -0.4670 -0.5755
   22MOL    H57 8919   2.700   7.831   5.987  0.0917 -1.8714  0.2709
   22MOL    H58 8920   2.662   7.850   5.622 -0.8485 -0.1922 -0.6284
   22MOL    H59 8921   2.686   7.758   5.394 -0.9050  1.4013  2.0462
   22MOL    H60 8922   2.702   7.514   5.351  1.7232  3.2612 -1.7843
   22MOL    H61 8923   2.723   7.365   5.547  0.4209  0.5285  3.0635
   22MOL    H62 8924   2.689   7.448   5.777  0.9585  0.5218  1.0699
   22MOL    H63 8925   3.051   7.950   6.021 -0.6213  0.9152 -0.4964
   22MOL    H64 8926   2.887   7.950   6.048 -1.1969 -1.6964 -0.5354
   22MOL    C65 8927   2.993   7.786   6.142 -0.0332 -0.2011 -0.4359
   22MOL    O66 8928   3.083   7.680   6.101 -0.4068 -0.4372 -0.0192
   22MOL    C67 8929   3.067   7.550   6.137 -0.5692 -0.4188 -0.4405
   22MOL    O68 8930   2.972   7.497   6.056  0.4704 -0.1238  0.6018
   22MOL    C69 8931   2.976   7.359   6.042  0.0382  0.0125 -0.2722
   22MOL    C70 8932   2.933   7.306   5.915 -0.0379 -0.0697  0.0720
   22MOL    C71 8933   2.941   7.167   5.889 -0.5456 -0.0668  0.4719
   22MOL    C72 8934   2.999   7.081   5.990  0.6458  0.3060  0.5220
   22MOL    C73 8935   3.029   7.134   6.116  0.7142  0.1858 -0.7520
   22MOL    C74 8936   3.022   7.271   6.149  0.5556 -0.3419  0.1332
   22MOL    C75 8937   3.046   7.855   6.271 -0.6523  0.4649 -0.5881
   22MOL    H76 8938   2.900   7.733   6.163  0.6073 -1.4310 -0.6029
   22MOL    H77 8939   3.028   7.540   6.238 -0.7916 -1.1368 -0.5992
   22MOL    H78 8940   3.160   7.493   6.136 -0.8295 -0.8630  0.3856
   22MOL    H79 8941   2.887   7.372   5.843  0.5796  1.9207  1.4753
   22MOL    H80 8942   2.915   7.134   5.790  2.0226 -1.4686  0.2406
   22MOL    H81 8943   3.026   6.980   5.964  1.6123  0.6337  0.2271
   22MOL    H82 8944   3.053   7.075   6.204  0.0433  1.2575  0.1626
   22MOL    H83 8945   3.053   7.293   6.250 -0.2341  2.0218 -0.1060
   22MOL    H84 8946   3.073   7.778   6.343  1.7598  0.6733 -1.2314
   22MOL    H85 8947   3.131   7.917   6.242 -0.4545 -0.0541 -1.1220
   22MOL    C86 8948   2.944   7.956   6.332 -1.0737 -0.4313  0.1884
   22MOL    O87 8949   2.825   7.899   6.398 -0.4614 -0.1506 -0.9003
   22MOL    C88 8950   2.841   7.791   6.484  0.2908 -0.4988 -0.2617
   22MOL    O89 8951   2.849   7.669   6.416 -0.2437 -0.3039  0.1130
   22MOL    C90 8952   2.861   7.550   6.487 -0.1542  0.1683  0.0882
   22MOL    C91 8953   2.853   7.437   6.407  0.3719 -0.0693  0.2479
   22MOL    C92 8954   2.862   7.309   6.467  0.3150  0.1938  0.3400
   22MOL    C93 8955   2.884   7.304   6.608  0.4482  0.4791  1.0140
   22MOL    C94 8956   2.894   7.416   6.686 -0.4117 -0.0181 -0.3008
   22MOL    C95 8957   2.877   7.543   6.625 -0.1188  0.3523 -0.6979
   22MOL    C96 8958   3.012   0.076   6.427  0.4755 -0.7309  0.1197
   22MOL    H97 8959   2.895   0.036   6.253 -0.6599  1.2029  1.0683
   22MOL    H98 8960   2.761   7.784   6.557  0.8338  2.7292  0.7078
   22MOL    H99 8961   2.930   7.809   6.544 -0.8980 -1.6981  1.9248
   22MOL   H100 8962   2.843   7.438   6.300 -0.8061 -1.1757  0.3426
   22MOL   H101 8963   2.854   7.223   6.402 -0.8773 -0.2373  1.0541
   22MOL   H102 8964   2.900   7.206   6.651  3.6614 -0.0107 -1.1314
   22MOL   H103 8965   2.913   7.404   6.791  2.9899  2.1320 -0.5729
   22MOL   H104 8966   2.888   7.635   6.680 -0.1099 -1.0276  1.6662
   22MOL   H105 8967   3.040   0.043   6.527  0.2635 -2.9074 -0.5167
   22MOL   H106 8968   3.111   0.092   6.385  0.0970  3.7762  0.6454
   22MOL   C107 8969   2.952   0.225   6.430  0.0497 -0.8743 -0.6824
   22MOL   O108 8970   2.838   0.248   6.517  0.4287  0.2664 -0.1580
   22MOL   C109 8971   2.709   0.233   6.461  0.7240  0.5161 -0.2717
   22MOL   O110 8972   2.688   0.322   6.359 -0.3625  0.1192  0.2842
   22MOL   C111 8973   2.670   0.273   6.226 -0.2325  0.4886  0.2053
   22MOL   C112 8974   2.601   0.155   6.202 -0.4116  0.0928  0.5210
   22MOL   C113 8975   2.581   0.110   6.072  0.0944  0.6361  0.2135
   22MOL   C114 8976   2.642   0.176   5.966 -0.4253 -1.0470 -0.3126
   22MOL   C115 8977   2.726   0.289   5.993  0.1508  0.2215  0.1140
   22MOL   C116 8978   2.734   0.340   6.124  0.4617  0.0616 -0.4314
   22MOL   C117 8979   3.060   0.317   6.486  0.3180 -1.3766 -0.5403
   22MOL   H118 8980   2.921   0.261   6.332 -0.4999 -0.2041 -0.2744
   22MOL   H119 8981   2.624   0.238   6.529 -1.0860 -2.2763 -2.2528
   22MOL   H120 8982   2.701   0.127   6.437 -0.7770  0.7955 -1.0377
   22MOL   H121 8983   2.562   0.101   6.287  0.3065 -2.0989 -0.5235
   22MOL   H122 8984   2.513   0.029   6.052  0.8369  0.4020 -1.5054
   22MOL   H123 8985   2.633   0.151   5.862  0.9525 -3.2565  0.0651
   22MOL   H124 8986   2.761   0.340   5.905 -2.6633 -1.0441 -1.8391
   22MOL   H125 8987   2.799   0.422   6.153  1.3538 -0.2327 -1.5548
   22MOL   H126 8988   3.148   0.327   6.423  0.4558  1.5319  0.0479
   22MOL   H127 8989   3.110   0.277   6.574  1.4054  1.8831  0.4052
   22MOL   C128 8990   3.012   0.462   6.512  0.4101 -0.4075 -0.8213
   22MOL   O129 8991   2.993   0.524   6.385  0.0935 -0.0871 -0.2422
   22MOL   C130 8992   2.887   0.609   6.383 -0.2322 -0.4001 -0.9905
   22MOL   O131 8993   2.883   0.705   6.485 -0.5531  0.0232  0.2039
   22MOL   C132 8994   2.941   0.831   6.468  0.0562  0.4229  0.6619
   22MOL   C133 8995   3.016   0.871   6.357  0.4133  0.0922 -0.1029
   22MOL   C134 8996   3.061   1.006   6.349  0.5920 -0.6991 -0.1907
   22MOL   C135 8997   3.029   1.093   6.455  0.8297  0.4266  0.1582
   22MOL   C136 8998   2.953   1.057   6.563 -0.6401 -0.5211  0.7333
   22MOL   C137 8999   2.916   0.919   6.574  0.1159  0.1105 -0.3276
   22MOL   C138 9000   3.113   0.537   6.600 -0.7582 -0.0611 -0.0887
   22MOL   H139 9001   2.926   0.450   6.579  0.0526  3.3099 -0.5055
   22MOL   H140 9002   2.794   0.552   6.386  0.0557 -0.8297  0.1535
   22MOL   H141 9003   2.886   0.658   6.285 -1.3805  0.9616 -0.3170
   22MOL   H142 9004   3.043   0.809   6.273  0.8233  0.1462 -0.0095
   22MOL   H143 9005   3.118   1.039   6.263 -1.0480  0.0062 -1.0425
   22MOL   H144 9006   3.067   1.194   6.455  1.7570  0.1014  2.5171
   22MOL   H145 9007   2.936   1.125   6.644  0.1070 -1.0447  1.3343
   22MOL   H146 9008   2.870   0.882   6.665  1.8943  1.2471  1.0647
   22MOL   H147 9009   3.213   0.529   6.557  0.3709  1.0081  2.2468
   22MOL   H148 9010   3.101   0.645   6.589  0.2092  0.0362 -0.2347
   22MOL   C149 9011   3.106   0.494   6.751 -0.2291 -0.1217  0.0441
   22MOL   O150 9012   3.227   0.517   6.825 -0.0582 -0.4514  0.3162
   22MOL   C151 9013   3.328   0.427   6.799  0.6158 -0.6707  0.2777
   22MOL   O152 9014   3.293   0.296   6.824 -0.2158 -0.1598 -0.0983
   22MOL   C153 9015   3.258   0.263   6.951 -0.3345  0.2942 -0.4552
   22MOL   C154 9016   3.217   0.129   6.971 -0.1412 -0.0706 -0.0231
   22MOL   C155 9017   3.205   0.076   7.103 -0.0186  0.1726  0.0634
   22MOL   C156 9018   3.237   0.154   7.214  0.1174 -0.0685  0.3319
   22MOL   C157 9019   3.264   0.292   7.198  0.0590  0.2441  0.6598
   22MOL   C158 9020   3.290   0.341   7.068  0.1464 -0.1201 -0.4591
   22MOL   C159 9021   2.983   0.561   6.824 -0.1497  0.0714 -0.0027
   22MOL   H160 9022   3.091   0.386   6.753  1.0514 -0.3690 -2.5563
   22MOL   H161 9023   3.353   0.445   6.694 -0.8436 -2.6409 -0.4472
   22MOL   H162 9024   3.416   0.453   6.858  1.5117 -2.2522 -0.3414
   22MOL   H163 9025   3.206   0.067   6.883 -1.4814 -2.5642  1.8505
   22MOL   H164 9026   3.179   7.947   7.114 -2.2532  0.7770  0.7769
   22MOL   H165 9027   3.221   0.120   7.315 -1.2522 -0.3290  0.0419
   22MOL   H166 9028   3.255   0.360   7.282  0.6791 -1.3646  2.0410
   22MOL   H167 9029   3.328   0.442   7.064 -0.0382  0.0763  1.8684
   22MOL   H168 9030   2.904   0.595   6.758 -0.6038 -0.2614  0.3675
   22MOL   H169 9031   3.020   0.652   6.872 -1.9272  0.5750  0.4594
   22MOL   C170 9032   2.922   0.460   6.927 -0.5968 -0.2050  1.1021
   22MOL   O171 9033   2.835   0.527   7.022  0.0905  0.4703 -0.1655
   22MOL   C172 9034   2.873   0.516   7.155  0.2240 -0.4293 -0.0342
   22MOL   O173 9035   2.985   0.595   7.172 -0.6015 -0.0850  0.2742
   22MOL   C174 9036   3.052   0.590   7.289  0.0115  0.1378 -0.1942
   22MOL   C175 9037   3.164   0.674   7.295 -0.0866  1.1324  0.0769
   22MOL   C176 9038   3.245   0.673   7.413 -0.2651  0.2342  0.6510
   22MOL   C177 9039   3.217   0.588   7.522 -0.1790 -0.6834 -0.6385
   22MOL   C178 9040   3.095   0.507   7.517 -0.1780  0.4146 -0.3042
   22MOL   C179 9041   3.013   0.507   7.404 -0.3774 -0.8181  0.4073
   22MOL   C180 9042   2.836   0.348   6.850 -0.3467  0.2339  0.1096
   22MOL   H181 9043   3.006   0.407   6.973  1.0219  1.3381 -0.0386
   22MOL   H182 9044   2.886   0.412   7.182  1.5908 -0.1224  0.5445
   22MOL   H183 9045   2.793   0.550   7.221 -1.2031 -0.5742 -1.6407
   22MOL   H184 9046   3.193   0.745   7.219  2.2379  1.1326  0.9062
   22MOL   H185 9047   3.342   0.720   7.414 -0.1212  0.0304 -1.5213
   22MOL   H186 9048   3.285   0.570   7.604 -1.6239  0.5676  0.8448
   22MOL   H187 9049   3.068   0.451   7.605  1.2357 -1.9801 -1.3414
   22MOL   H188 9050   2.928   0.441   7.412  0.3770 -1.7805  0.5532
   22MOL   H189 9051   2.743   0.394   6.818 -0.1344  1.8208  1.6796
   22MOL   H190 9052   2.887   0.323   6.757  2.6201  0.5454  1.5950
   22MOL   C191 9053   2.808   0.222   6.924 -0.3906  0.4070 -0.5569
   22MOL   O192 9054   2.790   0.121   6.823  0.2128  0.1061 -0.2812
   22MOL   C193 9055   2.901   0.044   6.796 -0.9036 -0.4564  0.4163
   22MOL   O194 9056   2.948   7.949   6.904  0.2028 -0.0982 -0.3145
   22MOL   C195 9057   2.891   7.832   6.929 -0.2449 -0.0167  0.1398
   22MOL   C196 9058   2.767   7.786   6.871 -0.3433  0.8164 -0.1179
   22MOL   C197 9059   2.721   7.661   6.903  0.0116  0.6193  0.2255
   22MOL   C198 9060   2.795   7.570   6.982  0.4353  0.2848  0.6989
   22MOL   C199 9061   2.916   7.611   7.030  0.4596  0.5494  0.6805
   22MOL   C200 9062   2.961   7.739   7.017  0.4792 -0.3990  0.3183
   22MOL   C201 9063   2.664   0.223   7.000  0.2382 -0.0469 -0.6172
   22MOL   H202 9064   2.896   0.193   6.982  1.8794 -0.7588 -4.3994
   22MOL   H203 9065   2.979   0.116   6.772 -0.7999 -0.5173  0.5647
   22MOL   H204 9066   2.881   7.958   6.709 -0.4600 -0.4139  0.2844
   22MOL   H205 9067   2.699   7.851   6.818 -0.8973  0.8483  0.6250
   22MOL   H206 9068   2.627   7.629   6.859  0.3186 -0.0380  0.0477
   22MOL   H207 9069   2.758   7.469   6.998 -1.1070  0.6791 -0.3365
   22MOL   H208 9070   2.968   7.541   7.094  0.1656 -0.7186 -0.4565
   22MOL   H209 9071   3.052   7.749   7.073  0.1672 -2.5569  1.2470
   22MOL   H210 9072   2.660   0.323   7.043  0.4397  0.2562 -1.2887
   22MOL   H211 9073   2.584   0.205   6.928 -0.1779 -0.4574 -0.0531
   22MOL   C212 9074   2.658   0.125   7.116 -0.4234 -0.3966 -0.1516
   22MOL   O213 9075   2.773   0.149   7.193  0.1689  0.6091  0.7690
   22MOL   C214 9076   2.830   0.034   7.250  0.3353  0.2129 -0.7372
   22MOL   O215 9077   2.763   7.962   7.360  0.3326  0.2028 -0.2803
   22MOL   C216 9078   2.740   0.072   7.467 -0.2680  0.7512  0.4737
   22MOL   C217 9079   2.635   0.051   7.555  0.7808  0.3152 -0.0688
   22MOL   C218 9080   2.619   0.125   7.672 -0.1695  0.3873 -0.2952
   22MOL   C219 9081   2.701   0.235   7.698 -0.4789 -0.3473  0.9369
   22MOL   C220 9082   2.801   0.269   7.606 -0.3974 -0.1331 -0.2526
   22MOL   C221 9083   2.824   0.182   7.500 -0.2251  0.2272  0.2338
   22MOL   C222 9084   2.527   0.137   7.206 -0.3559  0.1573 -0.5120
   22MOL   H223 9085   2.674   0.029   7.066 -1.4518  0.5581 -2.4008
   22MOL   H224 9086   2.930   0.065   7.277  0.2130  0.8321 -0.9882
   22MOL   H225 9087   2.833   7.925   7.181  0.5485 -2.0765  2.0229
   22MOL   H226 9088   2.569   7.946   7.526  0.7916  0.0309  0.7115
   22MOL   H227 9089   2.529   0.114   7.731  0.9307 -1.2455  1.1263
   22MOL   H228 9090   2.683   0.300   7.782 -1.7759 -1.2185  1.3501
   22MOL   H229 9091   2.866   0.349   7.637  0.0914 -0.5006 -0.3224
   22MOL   H230 9092   2.910   0.201   7.438  0.1512  0.5260  0.8404
   22MOL   H231 9093   2.536   0.063   7.286  0.3988  0.6176 -0.1668
   22MOL   H232 9094   2.532   0.229   7.264  2.3186 -0.1035 -0.2464
   22MOL   C233 9095   2.394   0.122   7.134  0.3507  1.3793  0.7487
   22MOL   O234 9096   2.354   7.963   7.139 -0.2710  0.1301  0.4603
   22MOL   C235 9097   2.391   7.880   7.036 -0.1807 -0.0022 -0.2769
   22MOL   O236 9098   2.312   7.906   6.928 -0.2455  0.3520  0.1756
   22MOL   C237 9099   2.371   7.905   6.804 -1.1814  0.4217 -0.1636
   22MOL   C238 9100   2.439   7.789   6.759 -0.1121 -0.0106 -0.3944
   22MOL   C239 9101   2.490   7.768   6.628  0.1107  0.4016 -0.0682
   22MOL   C240 9102   2.478   7.872   6.533 -0.1832 -0.1364 -0.0311
   22MOL   C241 9103   2.418   0.017   6.579  0.3004  0.1379  0.5608
   22MOL   C242 9104   2.353   0.031   6.707  0.5221 -0.1073  0.3757
   22MOL   C243 9105   2.295   0.219   7.209 -0.1675  0.1866  0.3706
   22MOL   H244 9106   2.394   0.159   7.031 -0.0801 -0.9291 -0.0919
   22MOL   H245 9107   2.364   7.782   7.075  3.0778 -0.8555  0.0156
   22MOL   H246 9108   2.498   7.889   7.019  0.0874 -2.0204  0.2245
   22MOL   H247 9109   2.433   7.696   6.814 -0.0665  0.3281  0.1786
   22MOL   H248 9110   2.537   7.677   6.593  0.4537  0.4932  0.1558
   22MOL   H249 9111   2.511   7.860   6.430  0.2453 -0.4603  0.1397
   22MOL   H250 9112   2.403   0.099   6.511  1.7261  0.0230  0.0920
   22MOL   H251 9113   2.290   0.117   6.727 -0.0811 -0.1776 -1.2390
   22MOL   H252 9114   2.309   0.190   7.314 -0.2063 -0.6134  0.1545
   22MOL   H253 9115   2.334   0.320   7.205 -2.0382  0.8857 -0.8976
   22MOL   C254 9116   2.150   0.215   7.162 -0.2744 -0.8636  0.0419
   22MOL   O255 9117   2.127   0.261   7.029  0.7654 -0.0804 -0.6596
   22MOL   C256 9118   2.134   0.401   7.008 -0.0805  0.2009 -0.1992
   22MOL   O257 9119   2.267   0.455   7.014 -0.3716 -0.1217  0.5022
   22MOL   C258 9120   2.348   0.456   6.905 -0.6628 -0.2169  0.5004
   22MOL   C259 9121   2.462   0.534   6.920 -0.4758 -0.5839 -0.8096
   22MOL   C260 9122   2.544   0.567   6.811  0.4384  0.1240 -0.1478
   22MOL   C261 9123   2.515   0.510   6.682 -0.2171 -0.2471 -0.8147
   22MOL   C262 9124   2.403   0.424   6.670  0.6816 -0.2352  0.2858
   22MOL   C263 9125   2.316   0.407   6.780  0.8837  0.2863  0.0216
   22MOL   C264 9126   2.070   0.081   7.161  0.2933 -0.3315  0.0165
   22MOL   H265 9127   2.099   0.281   7.232  1.8925  0.2076  0.6559
   22MOL   H266 9128   2.075   0.450   7.086  0.6216 -0.0195  0.4817
   22MOL   H267 9129   2.092   0.427   6.911 -0.4623 -0.0903 -0.1124
   22MOL   H268 9130   2.477   0.586   7.014 -0.7188 -0.1304 -1.0204
   22MOL   H269 9131   2.621   0.643   6.814 -1.4335  2.0705 -0.1986
   22MOL   H270 9132   2.578   0.528   6.595 -0.2285 -0.2557 -0.8252
   22MOL   H271 9133   2.381   0.362   6.584 -2.2971 -1.6583  2.0083
   22MOL   H272 9134   2.234   0.338   6.763  0.5360  0.8461 -0.6051
   22MOL   H273 9135   1.976   0.118   7.121  1.5105  2.2310 -0.6326
   22MOL   H274 9136   2.100   0.005   7.089 -1.6586 -1.8825  0.8138
   22MOL   C275 9137   2.045   0.018   7.300  0.1553  0.2366  0.7444
   22MOL   O276 9138   1.951   0.100   7.367  0.1900  0.0433 -0.5388
   22MOL   C277 9139   1.952   0.092   7.501  0.1526 -0.2586 -0.3433
   22MOL   O278 9140   1.920   7.939   7.549 -0.2045  0.2991  0.1786
   22MOL   C279 9141   1.958   7.908   7.678 -1.4108 -0.9950  0.1452
   22MOL   C280 9142   1.983   0.027   7.783  0.3599 -0.4299  0.6508
   22MOL   C281 9143   2.007   0.002   7.915 -0.0253  0.4444 -0.6487
   22MOL   C282 9144   2.004   7.841   7.946  0.4775  0.0728  0.3236
   22MOL   C283 9145   1.983   7.739   7.850  0.2510 -0.2631  1.3058
   22MOL   C284 9146   1.969   7.775   7.718  0.3773  0.0574 -0.4731
   22MOL   C285 9147   2.001   7.839   7.285  0.1100  0.5802 -0.0794
   22MOL   H286 9148   2.135   0.024   7.362  0.5084  2.3730  0.0787
   22MOL   H287 9149   1.865   0.156   7.520  0.7388  0.2967  0.4625
   22MOL   H288 9150   2.045   0.129   7.542 -0.2110  2.3444 -1.7185
   22MOL   H289 9151   1.986   0.132   7.759 -0.0900 -0.0095  2.3762
   22MOL   H290 9152   2.028   0.085   0.006 -0.0613  1.2961 -1.7014
   22MOL   H291 9153   2.007   7.805   0.073  1.4557 -2.3469 -0.5129
   22MOL   H292 9154   1.986   7.635   7.879  4.0665 -0.7544 -0.4676
   22MOL   H293 9155   1.963   7.703   7.638 -2.0187 -0.8842  0.4945
   22MOL   H294 9156   1.930   7.837   7.202 -0.5001  0.0539  0.4551
   22MOL   H295 9157   1.945   7.801   7.370 -0.2612  1.0823 -0.0991
   22MOL   C296 9158   2.127   7.755   7.262  0.1893  0.6435  0.2925
   22MOL   O297 9159   2.197   7.743   7.377 -0.0939  0.0552 -0.5604
   22MOL   C298 9160   2.334   7.729   7.374  0.0674  0.2360 -0.1363
   22MOL   O299 9161   2.380   7.610   7.319 -0.2459  0.5010 -0.3065
   22MOL   C300 9162   2.515   7.580   7.335 -0.0880 -0.5174 -0.5848
   22MOL   C301 9163   2.607   7.659   7.406  0.2965  0.1200  0.6862
   22MOL   C302 9164   2.743   7.619   7.405  0.4287  0.2573  0.3027
   22MOL   C303 9165   2.782   7.492   7.351  0.1015 -0.2519  0.4166
   22MOL   C304 9166   2.683   7.412   7.292  0.0793  0.4989  0.1071
   22MOL   C305 9167   2.552   7.451   7.274  0.1507  0.3054  0.1212
   22MOL   C306 9168   2.081   7.615   7.214 -0.5154 -0.3338 -0.0185
   22MOL   H307 9169   2.186   7.797   7.181 -1.3870 -1.7709 -2.1920
   22MOL   H308 9170   2.354   7.734   7.481 -2.2375  0.9415  0.2902
   22MOL   H309 9171   2.381   7.822   7.340  0.0022  0.4635  0.3968
   22MOL   H310 9172   2.583   7.756   7.447 -1.8885 -0.0352 -0.1808
   22MOL   H311 9173   2.819   7.690   7.435 -0.8110  2.7174 -2.1086
   22MOL   H312 9174   2.886   7.465   7.338  0.0467 -0.3508  0.1750
   22MOL   H313 9175   2.706   7.314   7.253 -0.0965  0.4546  0.1102
   22MOL   H314 9176   2.480   7.385   7.227 -0.3109 -0.9302  2.4541
   22MOL   H315 9177   2.025   7.577   7.299 -2.8229  0.2363 -1.2180
   22MOL   H316 9178   2.172   7.555   7.206  1.3792  2.5147 -0.5096
   22MOL   C317 9179   1.994   7.602   7.089 -0.0181 -0.1461  0.1566
   22MOL   O318 9180   1.971   7.461   7.058  0.2050 -0.0288  0.4536
   22MOL   C319 9181   1.899   7.384   7.146 -0.1645  0.7755 -0.6754
   22MOL   O320 9182   1.761   7.413   7.146  0.6817  0.0136  0.0102
   22MOL   C321 9183   1.686   7.345   7.238  0.2883  0.4451 -0.8967
   22MOL   C322 9184   1.670   7.205   7.232  0.2325 -0.3058  0.3293
   22MOL   C323 9185   1.579   7.143   7.315 -0.4924  0.1766  0.0225
   22MOL   C324 9186   1.508   7.211   7.414  0.7753  0.5248 -0.1401
   22MOL   C325 9187   1.541   7.353   7.439  0.2872  0.5139  0.2337
   22MOL   C326 9188   1.625   7.416   7.347 -0.3361  0.0018  0.2235
   22MOL   C327 9189   2.071   7.653   6.966 -0.0170 -0.2816  0.1275
   22MOL   H328 9190   1.900   7.651   7.113  0.3152 -0.3042  1.8153
   22MOL   H329 9191   1.940   7.387   7.247  1.7580  0.6335 -1.4310
   22MOL   H330 9192   1.903   7.278   7.121 -0.9404  0.5270  0.2208
   22MOL   H331 9193   1.723   7.151   7.155 -2.2754 -3.3637  0.6368
   22MOL   H332 9194   1.557   7.040   7.291  1.1418 -0.5369  1.4813
   22MOL   H333 9195   1.443   7.147   7.470  0.6736 -0.3004 -1.1934
   22MOL   H334 9196   1.505   7.401   7.528 -0.0896 -0.6334  0.7056
   22MOL   H335 9197   1.651   7.520   7.358  2.2767 -0.5640 -0.3571
   22MOL   H336 9198   2.102   7.755   6.990 -1.2053  0.3531 -0.9743
   22MOL   H337 9199   2.170   7.608   6.958  1.9367  3.7505 -0.0442
   22MOL   C338 9200   1.989   7.651   6.838 -0.0754  0.0999  0.8235
   22MOL   O339 9201   1.902   7.762   6.839  0.0139  0.1618 -0.5659
   22MOL   C340 9202   1.771   7.729   6.868 -0.1664  0.3689  0.1182
   22MOL   O341 9203   1.727   7.641   6.765  0.1949 -0.1631 -0.0632
   22MOL   C342 9204   1.592   7.649   6.729  0.4638 -0.3291 -0.4903
   22MOL   C343 9205   1.566   7.670   6.588 -0.1278 -0.1318 -0.1305
   22MOL   C344 9206   1.429   7.682   6.552  0.7417 -0.3614  0.2815
   22MOL   C345 9207   1.325   7.663   6.646 -0.0712 -0.3489  0.1449
   22MOL   C346 9208   1.353   7.628   6.775 -0.9605 -0.0513  0.0622
   22MOL   C347 9209   1.488   7.624   6.824  0.7120  0.4084 -0.0730
   22MOL   C348 9210   2.075   7.665   6.711 -0.6698  0.0342  0.1124
   22MOL   H349 9211   1.960   7.546   6.836  1.1715 -0.2716  1.5349
   22MOL   H350 9212   1.713   7.821   6.878 -1.1467 -0.3148  0.7641
   22MOL   H351 9213   1.764   7.668   6.958 -0.1918 -1.3354 -1.0281
   22MOL   H352 9214   1.647   7.686   6.519 -0.3895 -0.5167 -0.5326
   22MOL   H353 9215   1.393   7.692   6.450 -2.2599 -0.7228  1.2437
   22MOL   H354 9216   1.225   7.670   6.606  0.6210  1.1729 -1.3520
   22MOL   H355 9217   1.277   7.609   6.849 -0.5729 -0.5940  0.3261
   22MOL   H356 9218   1.497   7.595   6.927 -1.8833 -2.5125 -0.5714
   22MOL   H357 9219   2.165   7.606   6.723 -0.9155  0.0823  2.5392
   22MOL   H358 9220   2.109   7.767   6.691  1.0408 -0.2938  1.2973
   22MOL   C359 9221   1.999   7.638   6.574 -0.5424 -0.9031  0.0531
   22MOL   O360 9222   1.986   7.491   6.569 -0.0470  0.5963  0.5360
   22MOL   C361 9223   1.871   7.443   6.510  0.0970  0.2170 -0.2418
   22MOL   O362 9224   1.858   7.461   6.369  0.0492 -0.0348 -0.7366
   22MOL   C363 9225   1.936   7.393   6.280 -0.0391 -0.5050  0.3501
   22MOL   C364 9226   1.898   7.407   6.145  0.1374  0.3514  0.0703
   22MOL   C365 9227   1.974   7.338   6.044 -0.3945  0.2449  0.0863
   22MOL   C366 9228   2.083   7.264   6.073 -0.6803  0.5183 -0.2041
   22MOL   C367 9229   2.119   7.259   6.211 -0.1957  0.0623 -0.3150
   22MOL   C368 9230   2.053   7.326   6.314 -0.8928 -0.6104  0.0781
   22MOL   C369 9231   2.077   7.689   6.447 -0.4139 -0.2349  0.6590
   22MOL   H370 9232   1.895   7.671   6.579 -0.6359 -1.3127  1.0150
   22MOL   H371 9233   1.781   7.487   6.553  2.2744  3.5531  1.0228
   22MOL   H372 9234   1.872   7.335   6.527  0.1017 -0.0306 -1.7455
   22MOL   H373 9235   1.804   7.456   6.124  0.3881  1.3867  1.3054
   22MOL   H374 9236   1.943   7.347   5.941  0.0782  1.0945  0.0139
   22MOL   H375 9237   2.140   7.208   6.001  0.2135 -0.8224  1.5029
   22MOL   H376 9238   2.208   7.203   6.236 -2.3022 -3.3518 -0.1412
   22MOL   H377 9239   2.084   7.325   6.418  2.6784 -2.7179 -0.9211
   22MOL   H378 9240   2.061   7.623   6.362  3.1495 -0.2465 -0.0885
   22MOL   H379 9241   2.184   7.691   6.467 -0.1113 -2.8437 -0.5641
   22MOL   C380 9242   2.035   7.832   6.409 -0.4687  0.1057  0.5563
   22MOL   O381 9243   1.899   7.820   6.365  0.3556 -0.3720 -0.4759
   22MOL   C382 9244   1.819   7.924   6.415 -0.5268 -0.2162 -0.1273
   22MOL   O383 9245   1.710   7.961   6.333 -0.5943  0.5837  0.0585
   22MOL   C384 9246   1.622   0.078   6.382 -0.1938 -0.4144 -0.1383
   22MOL   C385 9247   1.642   0.149   6.503  0.0115 -0.8137  0.6611
   22MOL   C386 9248   1.553   0.248   6.541  0.0434  0.0905  0.1023
   22MOL   C387 9249   1.443   0.279   6.460  0.4132 -0.6462  0.2049
   22MOL   C388 9250   1.418   0.200   6.344  0.6032 -0.4257 -0.8573
   22MOL   C389 9251   1.509   0.098   6.308  0.1251  0.6039  0.1386
   22MOL   C390 9252   2.124   7.881   6.291 -0.1042  0.0329 -0.9507
   22MOL   H391 9253   2.052   7.893   6.497  0.6355  0.8079 -0.1288
   22MOL   H392 9254   1.788   7.892   6.515 -0.0966 -0.9968 -0.2352
   22MOL   H393 9255   1.889   0.032   6.413 -0.9441  0.1411  0.1532
   22MOL   H394 9256   1.721   0.138   6.575 -0.7238 -1.0069  1.4573
   22MOL   H395 9257   1.558   0.309   6.631 -1.9266  0.5223 -0.0514
   22MOL   H396 9258   1.368   0.354   6.481 -0.1831 -0.8772 -1.0706
   22MOL   H397 9259   1.322   0.218   6.298 -0.9090  1.8739  2.9680
   22MOL   H398 9260   1.484   0.040   6.220 -0.6744  1.4311 -0.1804
   22MOL   H399 9261   2.093   7.836   6.197  0.7490  1.4591 -1.9391
   22MOL   H400 9262   2.229   7.857   6.312  0.0768  2.3845  1.0276
   22MOL   C401 9263   2.118   0.057   6.268  0.2016  0.3247 -0.4032
   22MOL   O402 9264   2.152   0.121   6.388 -0.6036  0.2918 -0.0093
   22MOL   C403 9265   2.132   0.260   6.392  0.0980  0.8216  0.1352
   22MOL   O404 9266   2.005   0.301   6.356 -0.4160  0.5887  0.5996
   22MOL   C405 9267   1.976   0.434   6.363 -0.4939 -0.1756 -0.1537
   22MOL   C406 9268   1.839   0.459   6.382 -0.0837 -0.2067  0.1616
   22MOL   C407 9269   1.794   0.593   6.388  0.8023 -0.2290  0.9961
   22MOL   C408 9270   1.881   0.703   6.381  0.0293 -0.3068  0.0141
   22MOL   C409 9271   2.014   0.674   6.356  0.0784 -0.0772 -0.0903
   22MOL   C410 9272   2.065   0.546   6.348 -1.0227 -0.1057  0.7043
   22MOL   C411 9273   2.223   0.084   6.159  1.1701 -0.0024 -0.3330
   22MOL   H412 9274   2.024   0.091   6.223 -0.0671  1.1955  0.7778
   22MOL   H413 9275   2.207   0.304   6.326  0.0991  0.7120  0.0623
   22MOL   H414 9276   2.153   0.305   6.489 -1.1785 -1.0889  1.3249
   22MOL   H415 9277   1.766   0.380   6.393 -0.1274 -0.5386 -2.2710
   22MOL   H416 9278   1.688   0.615   6.397  0.6677  0.2652 -1.3460
   22MOL   H417 9279   1.845   0.803   6.401  3.3708  0.4593  2.6524
   22MOL   H418 9280   2.086   0.754   6.345 -0.4114  0.6875  2.0618
   22MOL   H419 9281   2.168   0.525   6.327 -0.5408  0.5084  2.4032
   22MOL   H420 9282   2.236   0.189   6.133  0.3460  0.2790  0.3697
   22MOL   H421 9283   2.209   0.022   6.070  1.5498  0.4968 -0.7450
   22MOL   H422 9284   2.318   0.039   6.187  1.6334  0.8319 -0.5605
   23MOL     C1 9285   5.093   4.790   4.571  0.3298 -0.1268 -0.5330
   23MOL     O2 9286   4.967   4.776   4.503  0.0417 -0.5320 -0.6208
   23MOL     C3 9287   4.900   4.901   4.495  0.2104 -0.1511  0.3317
   23MOL     O4 9288   4.861   4.944   4.620  0.5745  0.4718 -0.6164
   23MOL     C5 9289   4.736   4.907   4.662 -0.3661  0.6008  0.9613
   23MOL     C6 9290   4.675   4.789   4.631  0.1471 -0.4402 -0.2476
   23MOL     C7 9291   4.551   4.758   4.681  0.0671 -0.1342 -0.1628
   23MOL     C8 9292   4.481   4.848   4.763  0.0936  0.4596  0.3837
   23MOL     C9 9293   4.545   4.968   4.800  0.5559 -0.1063 -0.3981
   23MOL    C10 9294   4.675   4.991   4.754  0.7585 -0.0073  0.2291
   23MOL    C11 9295   5.178   4.663   4.572 -0.9981 -0.5024  0.9781
   23MOL    H12 9296   5.145   4.877   4.532 -1.7662  0.3230 -2.4339
   23MOL    H13 9297   4.961   4.969   4.436 -1.8551  0.0463 -1.6128
   23MOL    H14 9298   4.813   4.880   4.434  0.5194 -0.5735  0.0333
   23MOL    H15 9299   4.721   4.728   4.554  2.5552 -0.7791  1.4007
   23MOL    H16 9300   4.503   4.664   4.660 -2.4242  0.9927  0.2164
   23MOL    H17 9301   4.385   4.819   4.803  1.1634 -1.6629  1.4736
   23MOL    H18 9302   4.491   5.036   4.864  0.6291 -0.7758  0.3747
   23MOL    H19 9303   4.729   5.076   4.793 -0.5971  0.8981  0.1643
   23MOL    H20 9304   5.205   4.624   4.473 -1.6468  2.2902 -0.3552
   23MOL    H21 9305   5.121   4.584   4.621 -1.3416 -0.2777  0.9457
   23MOL    H22 9306   5.079   4.809   4.678  0.5159  1.1948 -0.7350
   23MOL    C23 9307   5.314   4.687   4.637 -0.4253 -0.2227  0.0089
   23MOL    O24 9308   5.379   4.802   4.570 -0.4156 -0.0082  0.1211
   23MOL    C25 9309   5.488   4.854   4.638  0.1634  0.2125 -0.7758
   23MOL    O26 9310   5.607   4.803   4.594 -0.0082  0.0078 -0.1092
   23MOL    C27 9311   5.713   4.820   4.683 -0.1617 -0.0658 -0.6595
   23MOL    C28 9312   5.724   4.916   4.788 -0.8456 -0.6774 -0.0446
   23MOL    C29 9313   5.830   4.909   4.878  0.2130 -0.2861 -0.2261
   23MOL    C30 9314   5.930   4.823   4.857 -0.3184  0.0485  0.4578
   23MOL    C31 9315   5.931   4.731   4.759  0.2288 -0.2446  0.3844
   23MOL    C32 9316   5.827   4.731   4.664 -0.0095  0.0911  0.4869
   23MOL    C33 9317   5.404   4.561   4.648 -0.2082  0.0798  0.0657
   23MOL    H34 9318   5.305   4.710   4.743 -2.5660 -0.6441 -0.0550
   23MOL    H35 9319   5.478   4.848   4.746  0.6504  3.5383 -0.4788
   23MOL    H36 9320   5.497   4.959   4.610 -2.2446  1.1248  1.5980
   23MOL    H37 9321   5.641   4.985   4.789 -0.4162 -0.1561  0.0778
   23MOL    H38 9322   5.828   4.970   4.968 -0.4835  0.5635 -0.8068
   23MOL    H39 9323   6.005   4.827   4.934 -1.5918 -1.1169  1.7931
   23MOL    H40 9324   6.012   4.660   4.753  0.2080 -0.1769 -0.8372
   23MOL    H41 9325   5.825   4.645   4.599  0.1206 -0.6008  1.3961
   23MOL    H42 9326   5.510   4.586   4.653 -0.0555 -0.0448 -1.9722
   23MOL    H43 9327   5.400   4.520   4.546  1.8165 -2.1097  0.8252
   23MOL    C44 9328   5.355   4.463   4.754  0.2020  0.4670 -0.6547
   23MOL    O45 9329   5.398   4.508   4.879 -0.2090 -0.0512  0.4023
   23MOL    C46 9330   5.293   4.474   4.978  0.3691 -0.0595 -0.5188
   23MOL    O47 9331   5.180   4.561   4.983 -0.4956  0.2585  1.2523
   23MOL    C48 9332   5.196   4.695   4.992  0.0420  0.6250  0.0908
   23MOL    C49 9333   5.078   4.769   4.978 -0.6397  0.3752  0.3288
   23MOL    C50 9334   5.075   4.905   4.987 -0.3083 -0.8485 -0.3857
   23MOL    C51 9335   5.192   4.975   5.023  0.5865  1.1186  0.0726
   23MOL    C52 9336   5.314   4.906   5.042  0.2779 -0.1843 -0.3626
   23MOL    C53 9337   5.319   4.767   5.024  0.1961 -0.5848  0.3963
   23MOL    C54 9338   5.416   4.322   4.734 -0.0906  0.2841  0.0021
   23MOL    H55 9339   5.247   4.452   4.745  0.4723 -4.0848  0.8382
   23MOL    H56 9340   5.340   4.465   5.076  0.0539 -2.5620 -0.5685
   23MOL    H57 9341   5.247   4.379   4.953 -1.0832  0.0312  1.5972
   23MOL    H58 9342   4.986   4.713   4.974 -0.4735  0.1399 -0.1809
   23MOL    H59 9343   4.979   4.954   4.979  0.2019  0.4195  0.9584
   23MOL    H60 9344   5.178   5.082   5.031 -1.1524  0.8528  0.9368
   23MOL    H61 9345   5.400   4.960   5.079 -0.2784  0.3754  0.1561
   23MOL    H62 9346   5.416   4.721   5.030 -0.0272 -0.9451  1.2451
   23MOL    H63 9347   5.521   4.323   4.707  0.4331 -0.2074  1.8964
   23MOL    H64 9348   5.423   4.277   4.833  1.8308 -0.7671 -0.5829
   23MOL    C65 9349   5.348   4.229   4.629  0.5788 -0.7153 -0.6921
   23MOL    O66 9350   5.343   4.302   4.509 -0.2058 -0.7346 -0.4226
   23MOL    C67 9351   5.271   4.256   4.403  0.0127  0.2526 -0.0629
   23MOL    O68 9352   5.166   4.175   4.440 -0.3156  0.1389 -0.2155
   23MOL    C69 9353   5.051   4.233   4.487  0.0228  0.1293 -0.4549
   23MOL    C70 9354   5.027   4.377   4.494 -0.0449  0.1617  0.7106
   23MOL    C71 9355   4.905   4.420   4.540 -0.1197  0.1417 -0.5402
   23MOL    C72 9356   4.808   4.330   4.589  0.6189  0.2732  0.7903
   23MOL    C73 9357   4.834   4.191   4.588  0.1605 -0.4584 -0.7113
   23MOL    C74 9358   4.953   4.139   4.526 -0.2256  0.1378 -0.0236
   23MOL    C75 9359   5.415   4.094   4.611 -0.3463  0.1914  0.1396
   23MOL    H76 9360   5.247   4.209   4.665  0.8529  0.5079  0.8008
   23MOL    H77 9361   5.329   4.198   4.330  0.7735 -0.2084  0.8861
   23MOL    H78 9362   5.236   4.346   4.354 -0.8277 -1.4069 -2.6196
   23MOL    H79 9363   5.099   4.450   4.460  2.1590 -1.4219  1.8682
   23MOL    H80 9364   4.885   4.527   4.542 -1.9268 -0.2018  1.1525
   23MOL    H81 9365   4.719   4.377   4.627 -0.8355 -1.7003 -0.0832
   23MOL    H82 9366   4.756   4.123   4.619 -0.6119  1.0254  0.6563
   23MOL    H83 9367   4.966   4.032   4.518  2.9316  0.2633  2.5635
   23MOL    H84 9368   5.366   4.041   4.530 -1.4695 -1.2466  1.7410
   23MOL    H85 9369   5.518   4.106   4.577 -0.3774 -1.8425 -0.6805
   23MOL    C86 9370   5.405   4.006   4.737  0.3263  0.2667 -0.1278
   23MOL    O87 9371   5.271   3.983   4.768  0.0622  0.7892  0.6436
   23MOL    C88 9372   5.238   4.038   4.889 -0.3410 -0.3187 -0.6417
   23MOL    O89 9373   5.319   3.992   4.990  0.0977  0.1496 -0.4720
   23MOL    C90 9374   5.313   4.053   5.113  0.5469 -0.2027  0.4631
   23MOL    C91 9375   5.391   3.995   5.211 -0.0506 -0.3543 -0.2871
   23MOL    C92 9376   5.386   4.042   5.344  0.2286  0.1771  0.1876
   23MOL    C93 9377   5.296   4.138   5.381  0.1442 -0.1015  0.3584
   23MOL    C94 9378   5.214   4.193   5.280  0.9335  0.2789 -0.4997
   23MOL    C95 9379   5.221   4.149   5.149  0.0830  0.0861 -0.1560
   23MOL    C96 9380   5.471   3.872   4.695 -0.1017 -0.3650 -0.2155
   23MOL    H97 9381   5.453   4.049   4.824 -0.9811 -2.1879  1.8661
   23MOL    H98 9382   5.141   3.998   4.916 -1.6369  2.8421 -0.3798
   23MOL    H99 9383   5.227   4.147   4.882  0.2401 -0.2574 -0.7022
   23MOL   H100 9384   5.461   3.916   5.189  0.0613 -0.3100 -0.0977
   23MOL   H101 9385   5.452   3.987   5.410  2.5052  0.9116 -1.4043
   23MOL   H102 9386   5.304   4.158   5.487 -0.3544  0.3590  0.3075
   23MOL   H103 9387   5.149   4.278   5.294  1.1375  0.3314  0.1297
   23MOL   H104 9388   5.162   4.201   5.076  0.6976 -2.1930 -2.3331
   23MOL   H105 9389   5.391   3.840   4.628  1.3139 -0.4459 -1.8984
   23MOL   H106 9390   5.556   3.896   4.631 -1.1132 -0.6722 -1.6821
   23MOL   C107 9391   5.510   3.780   4.812  0.0784  0.4123 -0.5940
   23MOL   O108 9392   5.451   3.651   4.800 -0.2258  0.3750  0.4038
   23MOL   C109 9393   5.310   3.643   4.800 -0.5422  0.1194  0.6074
   23MOL   O110 9394   5.254   3.697   4.912  0.3809 -0.9813 -0.1679
   23MOL   C111 9395   5.161   3.624   4.983  0.3485 -0.6757  0.2206
   23MOL   C112 9396   5.147   3.644   5.118 -0.1187  0.4479 -0.1752
   23MOL   C113 9397   5.076   3.560   5.203 -0.3463 -0.6011 -0.1254
   23MOL   C114 9398   5.003   3.458   5.145  0.1515 -0.5805  0.5736
   23MOL   C115 9399   4.998   3.443   5.010 -0.0579 -0.4627 -0.4393
   23MOL   C116 9400   5.080   3.524   4.923 -0.3301 -0.0174  0.4028
   23MOL   C117 9401   5.665   3.761   4.810  0.9058 -0.4801  0.2351
   23MOL   H118 9402   5.478   3.818   4.909 -0.2320 -0.2918 -0.4166
   23MOL   H119 9403   5.297   3.536   4.789 -0.4452  0.0271  1.3893
   23MOL   H120 9404   5.268   3.699   4.717  1.6116  0.7547 -0.1008
   23MOL   H121 9405   5.208   3.723   5.160  1.9366 -2.4472  2.5171
   23MOL   H122 9406   5.068   3.584   5.308  3.5055 -1.1956  0.3885
   23MOL   H123 9407   4.954   3.392   5.216  1.1753 -1.2317  0.6832
   23MOL   H124 9408   4.935   3.366   4.969 -1.1958  0.8968 -1.3074
   23MOL   H125 9409   5.069   3.523   4.816  1.4097  0.4258  0.2048
   23MOL   H126 9410   5.703   3.735   4.711  0.5247 -0.1769  0.0086
   23MOL   H127 9411   5.684   3.674   4.873 -2.9173 -1.3031  0.3629
   23MOL   C128 9412   5.742   3.886   4.866  0.7510 -0.5168  0.5402
   23MOL   O129 9413   5.722   4.012   4.787  0.6007  0.5881  0.7844
   23MOL   C130 9414   5.778   4.128   4.849 -0.1582 -0.0714  0.5696
   23MOL   O131 9415   5.703   4.158   4.962  0.1076 -0.0684 -0.1307
   23MOL   C132 9416   5.702   4.285   5.019 -0.0761 -0.6939 -0.2664
   23MOL   C133 9417   5.772   4.399   4.970 -0.6983  0.0912 -0.5940
   23MOL   C134 9418   5.763   4.526   5.038  0.2872  0.2054 -0.4193
   23MOL   C135 9419   5.680   4.540   5.147 -1.0315  0.1404 -0.2283
   23MOL   C136 9420   5.603   4.429   5.193  0.2742 -0.0536  0.0426
   23MOL   C137 9421   5.613   4.303   5.127  0.1307  0.0764 -0.4370
   23MOL   C138 9422   5.889   3.847   4.879  0.1819 -0.6053 -0.1353
   23MOL   H139 9423   5.708   3.912   4.966 -2.3891  2.5639 -1.2019
   23MOL   H140 9424   5.759   4.210   4.778  0.6095  0.9683  1.5460
   23MOL   H141 9425   5.885   4.117   4.866  0.7794  3.3162 -2.4075
   23MOL   H142 9426   5.839   4.389   4.886 -0.0919  1.8203 -0.3410
   23MOL   H143 9427   5.819   4.614   5.011  1.0580  0.5150  2.0508
   23MOL   H144 9428   5.673   4.639   5.191  0.4683 -0.7434  2.1153
   23MOL   H145 9429   5.539   4.446   5.279  0.6186  0.3740  0.2196
   23MOL   H146 9430   5.538   4.230   5.150 -0.0591  0.4638  0.1986
   23MOL   H147 9431   5.910   3.746   4.844  0.0233 -1.6632  2.7034
   23MOL   H148 9432   5.948   3.914   4.817 -0.7496  2.2166  1.9175
   23MOL   C149 9433   5.947   3.854   5.024  0.1095 -0.1627 -0.1118
   23MOL   O150 9434   5.913   3.723   5.070  0.2787 -0.0154  0.3343
   23MOL   C151 9435   5.912   3.704   5.214  0.6210 -0.5287 -0.6622
   23MOL   O152 9436   5.871   3.573   5.240 -0.3909  0.3560  0.3726
   23MOL   C153 9437   5.744   3.537   5.205 -0.1033  0.8397 -0.8575
   23MOL   C154 9438   5.716   3.403   5.230  0.8574  0.0227  0.3296
   23MOL   C155 9439   5.589   3.350   5.194  0.6096  1.3380 -0.9210
   23MOL   C156 9440   5.489   3.429   5.138 -0.2744  0.7772  0.2623
   23MOL   C157 9441   5.525   3.565   5.108  0.3333 -0.1355  0.2992
   23MOL   C158 9442   5.645   3.621   5.149 -0.2861  0.9195 -0.7269
   23MOL   C159 9443   6.089   3.890   5.033 -0.1935  0.8293  0.0236
   23MOL   H160 9444   5.896   3.936   5.075  0.6270 -0.4510  0.8831
   23MOL   H161 9445   6.014   3.714   5.251  0.3858 -1.6429  0.3309
   23MOL   H162 9446   5.864   3.786   5.267  2.0058  0.2625 -0.6078
   23MOL   H163 9447   5.789   3.340   5.279  0.2837 -0.6152  0.3758
   23MOL   H164 9448   5.562   3.252   5.231 -0.3897  1.8622 -0.2434
   23MOL   H165 9449   5.388   3.394   5.121 -0.1413  1.4425 -1.9531
   23MOL   H166 9450   5.450   3.626   5.059  0.9516 -0.1179 -0.6289
   23MOL   H167 9451   5.664   3.725   5.128  0.7155  1.0494  0.7297
   23MOL   H168 9452   6.124   3.909   4.932  2.5009  0.3550  0.8199
   23MOL   H169 9453   6.138   3.795   5.055 -2.3206 -0.6741 -1.5017
   23MOL   C170 9454   6.127   3.997   5.142  0.4616  0.5369 -0.6671
   23MOL   O171 9455   6.271   4.002   5.157  0.0931 -0.1315  0.0522
   23MOL   C172 9456   6.318   3.953   5.274  0.3636 -0.6302  0.7020
   23MOL   O173 9457   6.277   3.817   5.290 -0.2447 -0.5562 -0.1852
   23MOL   C174 9458   6.358   3.729   5.356 -0.2661  0.2464 -0.1986
   23MOL   C175 9459   6.445   3.765   5.462  1.0022 -0.2731  0.7498
   23MOL   C176 9460   6.513   3.664   5.531  0.2296 -0.2557 -0.6830
   23MOL   C177 9461   6.504   3.532   5.493 -0.1385  0.4028  0.4038
   23MOL   C178 9462   6.418   3.494   5.392  0.0609 -0.1434  0.2494
   23MOL   C179 9463   6.337   3.591   5.324 -0.4153  0.5207 -0.1365
   23MOL   C180 9464   6.092   4.138   5.099  0.4024  0.5818 -0.2781
   23MOL   H181 9465   6.077   3.975   5.237  0.8480 -1.1418 -0.8346
   23MOL   H182 9466   6.294   4.002   5.369 -0.3929 -1.3542  0.8896
   23MOL   H183 9467   6.424   3.956   5.250 -0.0232  3.2214 -1.0201
   23MOL   H184 9468   6.451   3.868   5.494 -1.2390 -0.0132  0.3734
   23MOL   H185 9469   6.573   3.691   5.617 -1.2085 -2.0966  0.9308
   23MOL   H186 9470   6.549   3.452   5.551 -1.8789 -0.0444  1.1519
   23MOL   H187 9471   6.405   3.391   5.362 -0.9897 -0.5568  2.0165
   23MOL   H188 9472   6.273   3.561   5.242 -1.0014  0.2091  0.4348
   23MOL   H189 9473   6.158   4.175   5.020  0.2842  0.6325 -0.3541
   23MOL   H190 9474   5.996   4.139   5.046  0.5202  1.3826 -0.4933
   23MOL   C191 9475   6.086   4.253   5.207 -0.2885 -0.1278 -0.0602
   23MOL   O192 9476   5.967   4.221   5.277  0.2723  0.5405  0.0292
   23MOL   C193 9477   5.959   4.250   5.417 -0.9057 -0.2433  0.2177
   23MOL   O194 9478   6.028   4.158   5.496  0.2088  0.1855 -0.1629
   23MOL   C195 9479   5.957   4.046   5.532 -0.4942 -0.1186 -0.2931
   23MOL   C196 9480   6.009   3.969   5.640 -0.0740 -0.5945 -0.4533
   23MOL   C197 9481   5.955   3.846   5.673 -0.2425  0.1598  0.5779
   23MOL   C198 9482   5.841   3.802   5.607  0.7417 -0.9365  0.0367
   23MOL   C199 9483   5.781   3.887   5.508  0.6635  0.7786  0.1674
   23MOL   C200 9484   5.846   4.000   5.466  0.1453  0.3667 -0.1211
   23MOL   C201 9485   6.095   4.398   5.155  0.5279 -0.1408  0.0268
   23MOL   H202 9486   6.172   4.237   5.271  0.0525 -1.2782 -0.7998
   23MOL   H203 9487   5.856   4.267   5.447  0.0973  3.2076  1.9210
   23MOL   H204 9488   6.017   4.341   5.433 -2.5004  1.2345 -2.0310
   23MOL   H205 9489   6.109   3.996   5.670  0.1290 -0.3250 -1.3656
   23MOL   H206 9490   6.006   3.775   5.736 -0.6827  0.2801  1.0689
   23MOL   H207 9491   5.800   3.703   5.621 -1.8802  0.2785  1.0977
   23MOL   H208 9492   5.698   3.855   5.448 -1.5510  0.3665  3.3218
   23MOL   H209 9493   5.796   4.052   5.386 -2.2212  2.2152  2.4846
   23MOL   H210 9494   6.160   4.402   5.068  0.7267  1.4869  0.2234
   23MOL   H211 9495   5.996   4.416   5.113  0.4625 -1.6136 -0.4720
   23MOL   C212 9496   6.144   4.514   5.243  0.2321 -1.0070 -0.3321
   23MOL   O213 9497   6.260   4.481   5.317 -0.1744 -0.8932 -0.2109
   23MOL   C214 9498   6.306   4.582   5.405  0.0800  0.5389 -0.2461
   23MOL   O215 9499   6.241   4.589   5.528 -0.2774  0.7856  0.1885
   23MOL   C216 9500   6.254   4.477   5.614 -0.3367 -0.1623 -0.6950
   23MOL   C217 9501   6.186   4.488   5.736  0.0947  0.3589  0.0818
   23MOL   C218 9502   6.204   4.386   5.829 -0.2664 -0.1662 -0.3956
   23MOL   C219 9503   6.287   4.277   5.809  0.2884  0.6452  0.3524
   23MOL   C220 9504   6.346   4.263   5.681 -0.1887  0.0894 -0.5455
   23MOL   C221 9505   6.334   4.363   5.582  0.0925 -1.1651  0.3443
   23MOL   C222 9506   6.147   4.655   5.175 -0.4544 -0.0128 -0.3123
   23MOL   H223 9507   6.067   4.520   5.320  0.8389 -0.8923  0.2799
   23MOL   H224 9508   6.300   4.685   5.368  0.5352  0.7266  0.1919
   23MOL   H225 9509   6.414   4.569   5.417  0.1392 -1.1380 -2.2371
   23MOL   H226 9510   6.116   4.566   5.761 -0.9056 -1.0343  1.6976
   23MOL   H227 9511   6.152   4.385   5.924 -0.4912 -1.0051 -0.5171
   23MOL   H228 9512   6.308   4.200   5.882  1.9610  1.4119  0.6863
   23MOL   H229 9513   6.403   4.175   5.653  1.7583  1.5063 -1.1187
   23MOL   H230 9514   6.378   4.346   5.485 -1.1536  0.7949 -0.6118
   23MOL   H231 9515   6.064   4.649   5.105 -0.2669  0.1376 -0.5511
   23MOL   H232 9516   6.132   4.731   5.251 -1.1526 -1.2765  0.8353
   23MOL   C233 9517   6.280   4.677   5.089  0.2620 -0.0698 -0.8516
   23MOL   O234 9518   6.252   4.606   4.974  0.1998 -0.3866  0.5783
   23MOL   C235 9519   6.355   4.563   4.908 -0.5864 -1.0058  1.2217
   23MOL   O236 9520   6.409   4.454   4.982 -0.1556 -0.7119  0.4422
   23MOL   C237 9521   6.468   4.353   4.917  0.1448  0.1758 -0.8648
   23MOL   C238 9522   6.523   4.363   4.787 -0.8730 -0.8605 -0.1630
   23MOL   C239 9523   6.582   4.253   4.724  0.8732  0.1935 -0.0939
   23MOL   C240 9524   6.573   4.126   4.781  0.3111  0.7698 -1.1537
   23MOL   C241 9525   6.538   4.114   4.917 -0.7425  0.9052 -0.1496
   23MOL   C242 9526   6.488   4.229   4.986  0.0175 -1.0164  0.5229
   23MOL   C243 9527   6.294   4.830   5.062 -0.2691  0.3381 -0.0859
   23MOL   H244 9528   6.366   4.648   5.149  1.2412  2.4197 -0.9990
   23MOL   H245 9529   6.428   4.642   4.890 -1.9716 -0.2242 -1.2730
   23MOL   H246 9530   6.307   4.529   4.816  0.0974  1.7441 -0.1928
   23MOL   H247 9531   6.528   4.461   4.742 -0.2477 -1.0022 -0.4033
   23MOL   H248 9532   6.614   4.265   4.622  0.9966  1.3332  0.0820
   23MOL   H249 9533   6.613   4.035   4.741 -0.1291  0.0994 -0.0902
   23MOL   H250 9534   6.530   4.019   4.968 -2.1327  0.7905 -0.5482
   23MOL   H251 9535   6.470   4.229   5.092  1.2378  2.3082  0.8054
   23MOL   H252 9536   6.244   4.847   4.967 -1.2305  1.1049  0.5383
   23MOL   H253 9537   6.250   4.886   5.145  0.7503  0.5249  0.3383
   23MOL   C254 9538   6.427   4.903   5.047 -0.2923  0.1340 -0.2371
   23MOL   O255 9539   6.404   5.035   4.998 -0.2697 -0.0806  0.1432
   23MOL   C256 9540   6.386   5.062   4.862 -0.9160 -0.2644 -0.1163
   23MOL   O257 9541   6.270   5.012   4.803 -0.5675 -0.1719  0.5783
   23MOL   C258 9542   6.156   5.092   4.826  0.2770 -0.9485 -0.2889
   23MOL   C259 9543   6.058   5.110   4.722  0.6720  0.6837  0.8322
   23MOL   C260 9544   5.946   5.197   4.747  0.8185  0.7252 -0.0690
   23MOL   C261 9545   5.925   5.258   4.870  0.7787 -0.1762 -0.4527
   23MOL   C262 9546   6.015   5.233   4.978 -0.1344 -0.1743  0.1121
   23MOL   C263 9547   6.128   5.147   4.955  0.3538  0.1485  0.5362
   23MOL   C264 9548   6.526   4.916   5.162 -0.5270 -0.6109  0.1845
   23MOL   H265 9549   6.475   4.855   4.961  2.3422 -0.0608  1.2860
   23MOL   H266 9550   6.470   5.022   4.805 -1.3579  1.2630 -1.8842
   23MOL   H267 9551   6.398   5.168   4.841  0.8411 -0.0248  1.9606
   23MOL   H268 9552   6.069   5.047   4.635  1.5346  0.4134  1.1331
   23MOL   H269 9553   5.869   5.195   4.672  1.4324 -0.5077 -0.6798
   23MOL   H270 9554   5.838   5.319   4.885  1.2379  0.7306 -1.4177
   23MOL   H271 9555   6.004   5.279   5.075  1.5077 -0.4791  0.4571
   23MOL   H272 9556   6.183   5.132   5.047 -0.2592 -1.2699  0.6855
   23MOL   H273 9557   6.597   4.989   5.125 -0.3177 -1.6940 -1.5982
   23MOL   H274 9558   6.473   4.969   5.241  0.4578  0.5379  0.0951
   23MOL   C275 9559   6.611   4.792   5.200 -0.4412  0.4747 -0.2464
   23MOL   O276 9560   6.665   4.752   5.074 -0.1322  0.0378  0.0236
   23MOL   C277 9561   6.705   4.622   5.068  0.2580  0.4087 -0.5486
   23MOL   O278 9562   6.778   4.594   4.955  0.4874 -0.1625  0.0004
   23MOL   C279 9563   6.885   4.665   4.914  0.0456  0.4796  0.1496
   23MOL   C280 9564   6.927   4.642   4.780  1.0807  0.3760 -0.2361
   23MOL   C281 9565   7.049   4.706   4.736  0.2445  0.2356 -0.0507
   23MOL   C282 9566   7.120   4.792   4.821  0.3426 -0.5160 -0.3566
   23MOL   C283 9567   7.072   4.818   4.947 -0.6137 -0.4584  0.2513
   23MOL   C284 9568   6.959   4.749   4.997 -0.0706 -0.2301  0.3415
   23MOL   C285 9569   6.728   4.831   5.298  0.1920 -0.2349 -0.5466
   23MOL   H286 9570   6.544   4.717   5.241 -0.8328  0.4766 -0.8727
   23MOL   H287 9571   6.614   4.563   5.057 -0.3975  0.8955  1.9202
   23MOL   H288 9572   6.757   4.592   5.158 -0.0604 -0.8692 -0.7795
   23MOL   H289 9573   6.869   4.572   4.723  1.9133 -0.6539  0.1614
   23MOL   H290 9574   7.084   4.687   4.636  0.8408  0.0502  0.1889
   23MOL   H291 9575   7.216   4.833   4.793  0.0925  0.4250  0.1353
   23MOL   H292 9576   7.134   4.868   5.020 -0.8784 -0.5862  0.5635
   23MOL   H293 9577   6.934   4.767   5.101 -1.3204  1.2963 -0.2104
   23MOL   H294 9578   6.793   4.909   5.259  0.3642  0.2060  0.6131
   23MOL   H295 9579   6.786   4.740   5.314  1.7488  0.9396  0.5648
   23MOL   C296 9580   6.673   4.890   5.433  0.0257  0.1803  0.1401
   23MOL   O297 9581   6.580   4.787   5.476  0.3361  0.0069  0.3499
   23MOL   C298 9582   6.488   4.822   5.562 -0.0931 -0.0665  0.0001
   23MOL   O299 9583   6.384   4.892   5.496 -0.1518  0.2631  0.1611
   23MOL   C300 9584   6.268   4.917   5.570 -0.5117 -0.0127  0.4200
   23MOL   C301 9585   6.154   4.953   5.495  0.3116  0.0761  0.1581
   23MOL   C302 9586   6.025   4.965   5.558 -0.2492  0.4405  0.1348
   23MOL   C303 9587   6.027   4.948   5.700 -0.5439  0.7328  0.2543
   23MOL   C304 9588   6.149   4.931   5.773 -0.1498 -0.4337  0.4161
   23MOL   C305 9589   6.272   4.913   5.712  0.4239 -0.3978 -0.1881
   23MOL   C306 9590   6.784   4.919   5.525  0.2765 -0.5761  0.2432
   23MOL   H307 9591   6.606   4.973   5.413 -1.4365 -0.0922  3.5299
   23MOL   H308 9592   6.534   4.881   5.641 -1.2699 -0.3535  0.9152
   23MOL   H309 9593   6.441   4.736   5.609  1.1103  0.2594  1.8612
   23MOL   H310 9594   6.160   4.950   5.387  2.0101  1.0169  0.2174
   23MOL   H311 9595   5.935   4.982   5.501 -0.8666  0.0435  0.9879
   23MOL   H312 9596   5.934   4.949   5.755  0.8392  0.6607  2.6509
   23MOL   H313 9597   6.131   4.945   5.879 -6.2312  1.7155 -0.6854
   23MOL   H314 9598   6.362   4.902   5.771 -0.4309 -2.5225  0.7683
   23MOL   H315 9599   6.877   4.920   5.469 -1.8296 -1.4236 -3.3689
   23MOL   H316 9600   6.804   4.838   5.595  0.2763 -0.4237  0.4209
   23MOL   C317 9601   6.779   5.036   5.618 -0.1369 -0.1298 -0.1703
   23MOL   O318 9602   6.789   5.172   5.564 -0.3765  0.2739  0.2678
   23MOL   C319 9603   6.684   5.218   5.484  0.3280 -0.3026  0.1292
   23MOL   O320 9604   6.563   5.228   5.547  0.4290  0.3100  0.0443
   23MOL   C321 9605   6.553   5.309   5.660  0.0075 -0.1799 -0.4005
   23MOL   C322 9606   6.428   5.324   5.710  0.8128  0.2562  0.5247
   23MOL   C323 9607   6.398   5.411   5.813 -0.0382 -0.1391 -0.6106
   23MOL   C324 9608   6.498   5.500   5.868 -0.2167  0.1868 -0.6185
   23MOL   C325 9609   6.629   5.488   5.818  0.3796  1.0732  0.5235
   23MOL   C326 9610   6.657   5.395   5.716  0.0177 -0.4782  0.1428
   23MOL   C327 9611   6.888   5.028   5.732  0.1888  0.0078  0.6654
   23MOL   H328 9612   6.685   5.031   5.674  0.4883  1.7291  1.0884
   23MOL   H329 9613   6.675   5.169   5.387 -0.8339 -1.4022  0.7786
   23MOL   H330 9614   6.721   5.317   5.458  1.5747 -0.8913 -0.3901
   23MOL   H331 9615   6.350   5.261   5.670  1.3673 -0.3479  0.3774
   23MOL   H332 9616   6.295   5.411   5.845  0.7516 -0.9726  2.0856
   23MOL   H333 9617   6.471   5.560   5.953 -0.8954  2.6716 -2.5200
   23MOL   H334 9618   6.704   5.546   5.868 -0.0497  0.7598  1.5543
   23MOL   H335 9619   6.752   5.395   5.664 -0.6196  0.4168 -1.0631
   23MOL   H336 9620   6.896   4.925   5.766 -1.2019  0.2281  1.6690
   23MOL   H337 9621   6.989   5.054   5.699 -0.8123  2.7883 -0.3691
   23MOL   C338 9622   6.839   5.113   5.851  0.1529 -0.2847 -0.3886
   23MOL   O339 9623   6.737   5.033   5.915 -0.2716  0.5759 -0.0802
   23MOL   C340 9624   6.633   5.096   5.983 -0.5117 -0.9406  0.6201
   23MOL   O341 9625   6.675   5.149   6.101 -0.0768  0.6549  0.3749
   23MOL   C342 9626   6.696   5.059   6.211  0.6197 -0.4137  0.4615
   23MOL   C343 9627   6.747   4.929   6.191 -0.0136  0.3031  0.4426
   23MOL   C344 9628   6.777   4.843   6.297  0.0077 -0.5986  0.2472
   23MOL   C345 9629   6.765   4.894   6.427  0.4714  0.1776  0.1484
   23MOL   C346 9630   6.730   5.028   6.447 -0.4454 -0.9923 -0.1935
   23MOL   C347 9631   6.693   5.112   6.337 -0.0498  0.1778 -0.2063
   23MOL   C348 9632   6.951   5.141   5.955 -0.1526 -0.1347 -0.4130
   23MOL   H349 9633   6.804   5.213   5.826  2.3349  0.2252 -1.5590
   23MOL   H350 9634   6.553   5.023   5.997 -0.4333 -1.2775 -0.5764
   23MOL   H351 9635   6.589   5.171   5.917  0.5107 -0.9007 -0.0290
   23MOL   H352 9636   6.780   4.904   6.091  1.8278  0.5146  0.9863
   23MOL   H353 9637   6.794   4.739   6.273 -0.9479 -0.5794 -0.5408
   23MOL   H354 9638   6.793   4.828   6.508  0.0501  2.2067  1.9809
   23MOL   H355 9639   6.744   5.056   6.551  0.4772 -2.2970  0.0432
   23MOL   H356 9640   6.670   5.217   6.352 -0.2770 -0.1984  2.2187
   23MOL   H357 9641   6.999   5.053   5.997 -0.6738  0.2064  0.9214
   23MOL   H358 9642   6.915   5.195   6.043  0.4149  0.4731 -0.5414
   23MOL   C359 9643   7.074   5.227   5.911 -0.4676 -0.3032 -0.1449
   23MOL   O360 9644   7.152   5.269   6.030  0.3751 -0.6198  0.4369
   23MOL   C361 9645   7.216   5.186   6.122  0.1323 -0.7819 -0.0218
   23MOL   O362 9646   7.130   5.138   6.215  0.4622  0.2823 -0.1650
   23MOL   C363 9647   7.086   5.227   6.311 -0.8274  0.9722 -0.9941
   23MOL   C364 9648   7.029   5.163   6.421  0.5888  0.9989  0.3492
   23MOL   C365 9649   6.986   5.227   6.535  0.4583 -0.7906  0.5393
   23MOL   C366 9650   7.024   5.365   6.550  0.8184  0.3399  0.2240
   23MOL   C367 9651   7.075   5.436   6.438 -0.2233  0.1547  0.3967
   23MOL   C368 9652   7.105   5.372   6.317  0.6338 -0.3433 -0.5500
   23MOL   C369 9653   7.027   5.363   5.848  0.4087 -0.4709 -0.7273
   23MOL   H370 9654   7.147   5.175   5.848  0.3175  2.5542 -1.6842
   23MOL   H371 9655   7.288   5.256   6.164 -0.4921  0.5586 -1.1282
   23MOL   H372 9656   7.262   5.102   6.070 -1.5828 -1.2771 -0.7801
   23MOL   H373 9657   6.998   5.060   6.429 -0.9247  1.4439  0.4122
   23MOL   H374 9658   6.944   5.175   6.619  0.6017 -0.8179  0.5957
   23MOL   H375 9659   6.995   5.410   6.643  0.4722  1.0897 -0.2394
   23MOL   H376 9660   7.094   5.540   6.458  0.5199 -0.1018  1.0681
   23MOL   H377 9661   7.155   5.435   6.244 -1.5287  0.6254 -1.2332
   23MOL   H378 9662   6.940   5.414   5.890  1.5277  0.1616  0.8576
   23MOL   H379 9663   6.983   5.330   5.754 -1.2527  1.3865 -0.6430
   23MOL   C380 9664   7.137   5.462   5.817  0.2972  0.4314  0.0186
   23MOL   O381 9665   7.080   5.590   5.839 -0.8188 -0.6316  0.5614
   23MOL   C382 9666   7.109   5.645   5.962 -0.7405 -0.8469  0.1113
   23MOL   O383 9667   7.249   5.655   5.988 -0.2817 -0.3253 -1.0920
   23MOL   C384 9668   7.297   5.713   6.105  0.4267 -0.5816  0.3770
   23MOL   C385 9669   7.215   5.748   6.217 -0.7083  0.1846 -0.3728
   23MOL   C386 9670   7.266   5.811   6.334 -0.0931  0.4973  0.1536
   23MOL   C387 9671   7.401   5.839   6.340 -0.3317 -0.0478 -0.8682
   23MOL   C388 9672   7.488   5.799   6.237  0.1945 -0.8402  0.4539
   23MOL   C389 9673   7.435   5.729   6.122 -0.6531 -0.6127  0.1330
   23MOL   C390 9674   7.184   5.451   5.671 -0.3826 -0.6287  0.4293
   23MOL   H391 9675   7.230   5.446   5.872  0.4515  1.2991  0.0023
   23MOL   H392 9676   7.071   5.746   5.966  0.4773 -0.3686 -0.1653
   23MOL   H393 9677   7.065   5.585   6.042  2.6051 -2.3164  0.9762
   23MOL   H394 9678   7.107   5.749   6.209 -0.8225 -0.5826  0.9974
   23MOL   H395 9679   7.194   5.835   6.411 -0.0541 -0.3406  0.4488
   23MOL   H396 9680   7.440   5.896   6.423 -0.6710 -0.7951 -0.1878
   23MOL   H397 9681   7.595   5.812   6.248  0.2002  0.2751 -0.7933
   23MOL   H398 9682   7.496   5.690   6.043  0.1401 -0.3923  0.6352
   23MOL   H399 9683   7.100   5.480   5.608 -0.1510  0.6000  0.6864
   23MOL   H400 9684   7.200   5.344   5.656  1.1982 -0.3302 -0.1841
   23MOL   C401 9685   7.310   5.520   5.629  0.6732 -0.3007  0.4057
   23MOL   O402 9686   7.345   5.484   5.497  0.1168 -0.0861  0.1525
   23MOL   C403 9687   7.476   5.436   5.480  0.4492 -1.5378  0.3129
   23MOL   O404 9688   7.500   5.324   5.556 -0.6709 -0.2110  0.0189
   23MOL   C405 9689   7.428   5.212   5.524 -0.3266  0.3505 -0.2015
   23MOL   C406 9690   7.466   5.098   5.599 -0.3527 -0.3022 -0.4394
   23MOL   C407 9691   7.401   4.975   5.578 -0.1494 -0.3927 -0.0673
   23MOL   C408 9692   7.292   4.967   5.495 -0.4068 -0.4111  0.3265
   23MOL   C409 9693   7.251   5.076   5.416 -0.1938  0.5533 -0.0864
   23MOL   C410 9694   7.320   5.201   5.434 -0.3757  0.1148 -0.4523
   23MOL   C411 9695   7.288   5.666   5.605  0.5577  0.8420 -0.4183
   23MOL   H412 9696   7.391   5.504   5.701  0.0693 -1.7434  0.8014
   23MOL   H413 9697   7.535   5.519   5.518  0.4460 -0.0814 -2.7312
   23MOL   H414 9698   7.500   5.410   5.377  0.0458  0.0140 -0.1863
   23MOL   H415 9699   7.532   5.100   5.684 -1.3816  1.9663  0.3511
   23MOL   H416 9700   7.432   4.892   5.641 -1.3328 -1.0402 -0.3196
   23MOL   H417 9701   7.238   4.874   5.490 -0.3643 -0.4434  0.4587
   23MOL   H418 9702   7.169   5.073   5.346 -1.2375 -0.7282  1.1570
   23MOL   H419 9703   7.280   5.293   5.392 -3.6634 -0.1736  1.7885
   23MOL   H420 9704   7.238   5.685   5.511  1.9391  2.3102 -0.8952
   23MOL   H421 9705   7.381   5.719   5.584  0.3219  0.9413 -1.2021
   23MOL   H422 9706   7.235   5.714   5.687  1.9933 -0.6247  1.4297
   24MOL     C1 9707   0.739   1.112   4.843 -0.0717 -0.2740 -0.3447
   24MOL     O2 9708   0.603   1.084   4.860 -0.4474 -0.1118 -0.2466
   24MOL     C3 9709   0.560   1.125   4.988 -0.0746  0.7663 -0.3209
   24MOL     O4 9710   0.591   1.026   5.087  0.1666  0.0229  0.0073
   24MOL     C5 9711   0.532   1.046   5.210 -1.0721 -0.3078 -0.5097
   24MOL     C6 9712   0.439   1.149   5.237 -0.5832 -0.3449  0.7929
   24MOL     C7 9713   0.377   1.148   5.361  0.6033  0.3099  0.1012
   24MOL     C8 9714   0.420   1.061   5.458 -0.1411  0.2701 -0.4553
   24MOL     C9 9715   0.523   0.971   5.432  0.0474 -0.3935 -0.4804
   24MOL    C10 9716   0.570   0.956   5.303 -0.0558  0.3691  0.1691
   24MOL    C11 9717   0.797   1.021   4.728  0.8221  0.7284 -0.6665
   24MOL    H12 9718   0.751   1.218   4.824  0.8346 -0.3626 -0.2639
   24MOL    H13 9719   0.590   1.225   5.019  0.3600  0.2408  0.9792
   24MOL    H14 9720   0.453   1.140   4.971 -0.7910 -1.0868  2.2091
   24MOL    H15 9721   0.409   1.223   5.165 -1.0800 -0.5378  0.8005
   24MOL    H16 9722   0.297   1.218   5.382  0.0725 -0.3954  0.4494
   24MOL    H17 9723   0.370   1.067   5.553 -1.7719 -0.3052 -1.2519
   24MOL    H18 9724   0.548   0.906   5.514 -0.9590  1.7242  1.5668
   24MOL    H19 9725   0.637   0.876   5.277  1.1027  1.2127  0.5314
   24MOL    H20 9726   0.723   1.018   4.648  0.4648  0.7288 -0.3366
   24MOL    H21 9727   0.811   0.920   4.765 -2.0266  0.6515  0.2641
   24MOL    H22 9728   0.799   1.097   4.932  1.2048  1.9217 -0.8110
   24MOL    C23 9729   0.933   1.077   4.664  0.2848 -0.0685  0.1026
   24MOL    O24 9730   0.904   1.205   4.621 -0.0208  0.1290  0.2353
   24MOL    C25 9731   0.986   1.304   4.668  0.2306 -0.7326  0.5652
   24MOL    O26 9732   0.959   1.323   4.808 -0.1747  0.4891 -0.0470
   24MOL    C27 9733   1.065   1.378   4.880 -0.6683 -0.1411  0.2789
   24MOL    C28 9734   1.073   1.357   5.019 -1.0843  0.1931  0.0679
   24MOL    C29 9735   1.172   1.418   5.098  0.9059 -0.2452 -0.2004
   24MOL    C30 9736   1.272   1.501   5.037 -0.1495  0.3419  0.2231
   24MOL    C31 9737   1.270   1.515   4.898  0.3350  0.1294 -0.0471
   24MOL    C32 9738   1.169   1.447   4.819 -0.1410  0.2933 -0.0120
   24MOL    C33 9739   0.966   0.985   4.543  0.4075  0.2186  0.1841
   24MOL    H34 9740   1.006   1.075   4.745  0.6724  1.9170 -0.1628
   24MOL    H35 9741   0.964   1.393   4.608  0.7497 -1.1631 -0.2763
   24MOL    H36 9742   1.089   1.274   4.650  0.5203 -0.3385  1.5266
   24MOL    H37 9743   0.993   1.298   5.061 -1.7419  1.1718  0.2010
   24MOL    H38 9744   1.179   1.393   5.202 -2.5504 -0.2352  0.0729
   24MOL    H39 9745   1.352   1.552   5.089  1.9117 -1.4525 -1.0812
   24MOL    H40 9746   1.337   1.574   4.838 -0.6823 -0.4273 -1.7502
   24MOL    H41 9747   1.176   1.465   4.713  1.7992  0.1794  0.0802
   24MOL    H42 9748   0.887   1.004   4.471  0.4331 -0.4578 -0.0279
   24MOL    H43 9749   0.967   0.877   4.557  2.6543  0.3985  1.7405
   24MOL    C44 9750   1.102   1.019   4.470 -0.9719  0.3736 -0.0616
   24MOL    O45 9751   1.112   0.947   4.352 -0.0483 -0.2581  0.6300
   24MOL    C46 9752   1.049   1.001   4.237  0.3623  0.9836 -0.2187
   24MOL    O47 9753   1.093   1.130   4.214  0.2481  0.6246 -0.2176
   24MOL    C48 9754   1.212   1.145   4.150  0.4495  0.5084  0.3248
   24MOL    C49 9755   1.242   1.264   4.091  0.2299  0.1302  0.4003
   24MOL    C50 9756   1.353   1.281   4.008  0.6657  0.0532  0.2221
   24MOL    C51 9757   1.445   1.176   3.994  0.1939  0.0937  0.6803
   24MOL    C52 9758   1.425   1.060   4.066  0.1773 -0.3417  0.1698
   24MOL    C53 9759   1.306   1.040   4.134 -0.8213  0.4599 -0.0068
   24MOL    C54 9760   1.219   0.961   4.560 -0.1173 -0.3770  0.0819
   24MOL    H55 9761   1.125   1.124   4.456 -1.0659  0.1868 -1.8181
   24MOL    H56 9762   0.941   1.007   4.244  0.3797 -0.4199  1.6192
   24MOL    H57 9763   1.048   0.942   4.145  2.2475  1.5156 -0.5921
   24MOL    H58 9764   1.167   1.341   4.095  0.2341  0.2434 -1.2754
   24MOL    H59 9765   1.354   1.373   3.951  3.0862  1.3443  2.2196
   24MOL    H60 9766   1.538   1.189   3.941 -0.7429  0.9089 -0.8113
   24MOL    H61 9767   1.505   0.987   4.068  0.7516  0.2918  0.4605
   24MOL    H62 9768   1.285   0.943   4.177 -1.4089  0.6251  0.0817
   24MOL    H63 9769   1.213   1.006   4.659  2.0280  3.0106 -1.2399
   24MOL    H64 9770   1.198   0.854   4.566 -2.5091  0.1110  1.0885
   24MOL    C65 9771   1.358   1.006   4.508  0.3266 -1.1440  0.2042
   24MOL    O66 9772   1.370   1.140   4.558  0.0506  0.3927  0.5890
   24MOL    C67 9773   1.464   1.214   4.489  0.1237  0.8871 -0.6504
   24MOL    O68 9774   1.489   1.331   4.552  0.1161 -0.6388 -0.0507
   24MOL    C69 9775   1.414   1.441   4.515 -0.4262  0.6438 -0.4111
   24MOL    C70 9776   1.445   1.560   4.586  0.0637 -0.2554  0.2083
   24MOL    C71 9777   1.359   1.672   4.587 -0.5000 -0.4057 -0.5098
   24MOL    C72 9778   1.245   1.674   4.497 -1.1215 -0.1848  0.0674
   24MOL    C73 9779   1.219   1.556   4.426 -0.0057 -0.8397  0.4158
   24MOL    C74 9780   1.299   1.440   4.435  0.0422  0.0737  0.1706
   24MOL    C75 9781   1.472   0.930   4.560  0.6521 -0.1256 -0.4712
   24MOL    H76 9782   1.359   0.993   4.400 -1.0369 -1.0159  0.1592
   24MOL    H77 9783   1.433   1.212   4.384  0.6525 -2.0667 -0.7943
   24MOL    H78 9784   1.567   1.179   4.488  0.5077  1.9648  0.1767
   24MOL    H79 9785   1.535   1.561   4.646 -1.0814  0.0497  1.9263
   24MOL    H80 9786   1.394   1.760   4.639  5.0237 -0.6410 -3.5092
   24MOL    H81 9787   1.180   1.759   4.493 -0.6041  0.2726  1.1846
   24MOL    H82 9788   1.140   1.554   4.353 -1.4324  2.2226  1.7930
   24MOL    H83 9789   1.271   1.349   4.384  2.9609 -1.2463  0.8448
   24MOL    H84 9790   1.569   0.979   4.570  0.8846 -0.3565 -1.4564
   24MOL    H85 9791   1.445   0.919   4.665  0.2227  0.2979 -0.5332
   24MOL    C86 9792   1.504   0.794   4.486  0.0008 -0.4860  0.3041
   24MOL    O87 9793   1.623   0.733   4.536 -0.1753  0.4277 -0.0585
   24MOL    C88 9794   1.611   0.649   4.649 -0.6143  0.0260  0.3621
   24MOL    O89 9795   1.552   0.711   4.768 -0.1532 -0.2427  0.1785
   24MOL    C90 9796   1.535   0.625   4.872 -0.0139  0.2182  0.3894
   24MOL    C91 9797   1.646   0.573   4.945 -0.2813 -0.0996 -0.1792
   24MOL    C92 9798   1.629   0.482   5.049  0.0352 -0.1904  0.7034
   24MOL    C93 9799   1.499   0.437   5.071  0.5820  0.3070  0.1932
   24MOL    C94 9800   1.387   0.479   5.000 -0.4492  0.7799  0.8262
   24MOL    C95 9801   1.400   0.583   4.904 -0.2290  0.2052  0.4111
   24MOL    C96 9802   1.391   0.693   4.453 -0.3913  0.1951  0.4391
   24MOL    H97 9803   1.537   0.821   4.386 -1.3201  0.7925  0.1835
   24MOL    H98 9804   1.712   0.618   4.677  0.4683  2.1299 -1.0825
   24MOL    H99 9805   1.551   0.559   4.640  1.7603 -1.6341  0.6683
   24MOL   H100 9806   1.743   0.614   4.921 -0.1260 -0.7318 -0.6522
   24MOL   H101 9807   1.713   0.464   5.114  1.5482  0.1342 -1.1311
   24MOL   H102 9808   1.480   0.349   5.131 -0.1383  0.4132  0.1195
   24MOL   H103 9809   1.289   0.444   5.031 -1.5484  2.4717 -0.6456
   24MOL   H104 9810   1.315   0.621   4.850  0.3653  1.4929  0.3492
   24MOL   H105 9811   1.359   0.658   4.551 -2.5808  0.4565 -0.1497
   24MOL   H106 9812   1.306   0.745   4.408  0.1431 -0.9206 -1.8970
   24MOL   C107 9813   1.438   0.571   4.361  0.4017 -0.9878  0.3233
   24MOL   O108 9814   1.343   0.466   4.387 -0.1094  0.1913  0.4432
   24MOL   C109 9815   1.400   0.341   4.423  0.0685 -0.3825  0.1733
   24MOL   O110 9816   1.459   0.353   4.549 -0.0108  0.9604 -0.2519
   24MOL   C111 9817   1.539   0.248   4.600 -0.2564  0.3478 -0.5368
   24MOL   C112 9818   1.535   0.116   4.551  0.7816 -0.0895  0.2875
   24MOL   C113 9819   1.621   0.019   4.601  0.7317  0.1250  0.6712
   24MOL   C114 9820   1.712   0.057   4.697 -0.3669 -1.3546 -0.2894
   24MOL   C115 9821   1.713   0.182   4.753  0.0233 -0.0946 -0.1300
   24MOL   C116 9822   1.624   0.274   4.709  0.2737  0.1098 -0.2761
   24MOL   C117 9823   1.417   0.598   4.208 -0.1308 -0.4129 -0.1304
   24MOL   H118 9824   1.542   0.542   4.377  0.9629  0.8382  0.0801
   24MOL   H119 9825   1.465   0.304   4.344  0.4196  0.8710 -0.1405
   24MOL   H120 9826   1.314   0.275   4.425  0.2852 -0.6106  2.5154
   24MOL   H121 9827   1.466   0.095   4.471  0.3487 -2.5855  1.2835
   24MOL   H122 9828   1.610   7.891   4.572 -0.1319  0.7013 -1.1368
   24MOL   H123 9829   1.780   7.958   4.737  0.0794 -2.3303 -2.8149
   24MOL   H124 9830   1.773   0.207   4.839  0.4411  2.4910 -1.1316
   24MOL   H125 9831   1.620   0.365   4.768 -1.1844 -1.4682  2.1563
   24MOL   H126 9832   1.436   0.701   4.178  0.6514 -0.1523  1.2200
   24MOL   H127 9833   1.310   0.588   4.187  0.0715 -0.2022 -1.2567
   24MOL   C128 9834   1.493   0.504   4.109 -0.1075  0.6137  0.8315
   24MOL   O129 9835   1.630   0.551   4.107  0.3298  0.3913  0.2011
   24MOL   C130 9836   1.730   0.451   4.118 -0.2971  0.3808  0.4727
   24MOL   O131 9837   1.739   0.382   4.240 -0.4452 -0.0669 -0.2259
   24MOL   C132 9838   1.806   0.443   4.344 -0.5779 -0.1028 -0.1294
   24MOL   C133 9839   1.837   0.355   4.446  0.2692  0.1193  0.3978
   24MOL   C134 9840   1.920   0.407   4.552 -0.7606  0.4528 -0.1506
   24MOL   C135 9841   1.964   0.544   4.555  0.0606  0.1458 -0.2119
   24MOL   C136 9842   1.919   0.635   4.450 -0.6503 -0.5514  0.8214
   24MOL   C137 9843   1.846   0.579   4.339 -0.2054  0.0343  0.6196
   24MOL   C138 9844   1.434   0.506   3.968 -0.6324  0.2603 -0.2299
   24MOL   H139 9845   1.495   0.406   4.157  0.6993  0.6522  0.8839
   24MOL   H140 9846   1.828   0.491   4.093 -1.1984  1.5677 -1.2801
   24MOL   H141 9847   1.708   0.383   4.036  0.5823 -1.4995  1.7814
   24MOL   H142 9848   1.819   0.250   4.434  3.8748 -0.6045  0.5850
   24MOL   H143 9849   1.964   0.335   4.618 -2.3616 -0.1182  0.3091
   24MOL   H144 9850   2.017   0.580   4.642 -1.2272  1.3062  0.1201
   24MOL   H145 9851   1.954   0.737   4.440 -2.1978 -0.0643  0.3499
   24MOL   H146 9852   1.835   0.642   4.253 -0.6143  1.4356  1.6777
   24MOL   H147 9853   1.391   0.605   3.951  0.8776  1.4277  2.3099
   24MOL   H148 9854   1.492   0.478   3.881 -2.1250 -0.5973 -0.9620
   24MOL   C149 9855   1.300   0.418   3.960 -0.5374  0.2463 -0.1620
   24MOL   O150 9856   1.247   0.443   3.828  0.1293 -0.6486  0.2053
   24MOL   C151 9857   1.137   0.527   3.821 -0.2788  0.2969  0.3205
   24MOL   O152 9858   1.176   0.654   3.862  0.6728 -0.5856 -0.2773
   24MOL   C153 9859   1.084   0.753   3.858 -0.5719 -0.1841 -0.1196
   24MOL   C154 9860   0.943   0.740   3.873 -0.1990 -1.3029  0.1305
   24MOL   C155 9861   0.868   0.860   3.893  0.4239  0.0547 -0.5317
   24MOL   C156 9862   0.932   0.984   3.882  0.2882  0.2376  0.2272
   24MOL   C157 9863   1.071   0.999   3.871  0.0189 -0.0183 -0.0671
   24MOL   C158 9864   1.147   0.882   3.853 -0.1267 -0.6619  0.2404
   24MOL   C159 9865   1.317   0.263   3.973  0.4079  0.6120 -0.6419
   24MOL   H160 9866   1.227   0.449   4.035  0.3336  2.1555 -0.0582
   24MOL   H161 9867   1.108   0.532   3.717 -0.1742  1.1984  0.3305
   24MOL   H162 9868   1.063   0.487   3.890 -0.2445  2.8783  1.9550
   24MOL   H163 9869   0.888   0.647   3.872 -0.3034 -1.2309 -1.6864
   24MOL   H164 9870   0.762   0.846   3.910  0.6643 -2.4582 -0.9809
   24MOL   H165 9871   0.871   1.071   3.902  1.3351  1.1241 -0.3986
   24MOL   H166 9872   1.118   1.096   3.868  0.2230 -0.1003  0.5170
   24MOL   H167 9873   1.254   0.893   3.846  0.0848 -0.9732  2.6867
   24MOL   H168 9874   1.342   0.228   4.073 -0.1906 -1.7004 -1.2700
   24MOL   H169 9875   1.409   0.240   3.919  0.8521  0.8607  0.0161
   24MOL   C170 9876   1.202   0.175   3.925  0.6596 -0.0357 -0.6494
   24MOL   O171 9877   1.242   0.041   3.897  0.2661  0.7993  0.7373
   24MOL   C172 9878   1.284   0.011   3.770 -0.1454 -0.0948 -0.4809
   24MOL   O173 9879   1.177   0.034   3.678 -0.0332  0.2976  0.4004
   24MOL   C174 9880   1.196   7.969   3.546 -0.5548  0.4292 -0.0351
   24MOL   C175 9881   1.320   7.913   3.503  0.9774 -0.0403  0.2357
   24MOL   C176 9882   1.332   7.860   3.372 -0.0076  0.6529  0.3968
   24MOL   C177 9883   1.225   7.875   3.282  0.2785  0.0504 -0.2644
   24MOL   C178 9884   1.105   7.935   3.325 -0.1154 -0.9831 -0.3752
   24MOL   C179 9885   1.086   0.010   3.452 -0.2529 -0.1487 -0.6589
   24MOL   C180 9886   1.093   0.164   4.039 -0.1427  0.1962 -0.2851
   24MOL   H181 9887   1.160   0.224   3.838 -1.1995  1.3230  0.9717
   24MOL   H182 9888   1.325   7.885   3.773  0.2385  0.0140 -1.6354
   24MOL   H183 9889   1.367   0.077   3.745  1.9450 -2.0869  0.9737
   24MOL   H184 9890   1.402   7.886   3.568  1.3941 -0.1315 -0.3249
   24MOL   H185 9891   1.430   7.817   3.355  0.0782  1.2317 -0.6417
   24MOL   H186 9892   1.243   7.842   3.181 -0.2701 -1.2649  0.0485
   24MOL   H187 9893   1.031   7.944   3.247 -0.1849  0.0613 -0.1991
   24MOL   H188 9894   0.995   0.061   3.482  0.7419  0.9469  0.5715
   24MOL   H189 9895   1.115   0.080   4.104  0.5922 -0.2816 -1.1301
   24MOL   H190 9896   1.094   0.250   4.106  0.2844 -0.0097 -0.0212
   24MOL   C191 9897   0.946   0.152   3.988  0.1159  0.4160  0.0662
   24MOL   O192 9898   0.907   0.271   3.918 -0.4180 -0.2093 -0.2158
   24MOL   C193 9899   0.799   0.279   3.826  0.4269 -0.3296 -0.0379
   24MOL   O194 9900   0.793   0.416   3.791  0.4649 -0.4778  0.0103
   24MOL   C195 9901   0.698   0.446   3.691 -0.4011  0.3417  0.1134
   24MOL   C196 9902   0.674   0.581   3.668  0.2139 -0.2082 -0.4331
   24MOL   C197 9903   0.591   0.622   3.559 -0.4666  0.0642  0.0708
   24MOL   C198 9904   0.539   0.530   3.474  0.5280  0.0376  0.7271
   24MOL   C199 9905   0.559   0.393   3.492  0.8172 -0.2771 -0.5714
   24MOL   C200 9906   0.636   0.355   3.605  0.4246  0.1838 -0.5624
   24MOL   C201 9907   0.834   0.134   4.098 -0.3601  0.2362  0.4342
   24MOL   H202 9908   0.959   0.069   3.919  3.5725  3.2655 -2.8644
   24MOL   H203 9909   0.701   0.257   3.870  0.0478  1.6965  0.1922
   24MOL   H204 9910   0.815   0.220   3.736 -1.0140  0.0133 -0.5425
   24MOL   H205 9911   0.715   0.663   3.724 -0.0045  0.0132 -0.5980
   24MOL   H206 9912   0.578   0.728   3.543 -0.5527  0.0203 -0.1486
   24MOL   H207 9913   0.482   0.570   3.391  1.5655 -1.7892 -0.9185
   24MOL   H208 9914   0.521   0.327   3.416  2.0043 -1.7781  0.1028
   24MOL   H209 9915   0.638   0.248   3.613 -0.3688  0.1990 -0.0321
   24MOL   H210 9916   0.844   0.207   4.178 -0.8659  0.0211  0.6919
   24MOL   H211 9917   0.737   0.154   4.053  0.1054 -2.7924 -2.1002
   24MOL   C212 9918   0.811   0.006   4.175 -0.0333 -0.6459 -0.6081
   24MOL   O213 9919   0.787   7.874   4.085  0.2697  0.2900 -0.2225
   24MOL   C214 9920   0.653   7.857   4.059 -0.6054  0.4613  0.3815
   24MOL   O215 9921   0.597   7.960   3.979 -1.0101  0.2649  0.0625
   24MOL   C216 9922   0.588   7.953   3.842  0.1925  0.1724 -0.0251
   24MOL   C217 9923   0.498   0.060   3.776  0.1195 -0.0896 -0.7722
   24MOL   C218 9924   0.470   0.044   3.642 -0.5744  0.1116  0.7330
   24MOL   C219 9925   0.532   7.914   3.569  0.1425 -0.1088 -0.4307
   24MOL   C220 9926   0.635   7.842   3.629  0.0993  0.1760 -0.4146
   24MOL   C221 9927   0.661   7.859   3.771  0.2075  0.1402 -0.3439
   24MOL   C222 9928   0.923   7.929   4.263  0.6747  0.2131 -0.2973
   24MOL   H223 9929   0.731   0.012   4.249 -1.1324 -0.2802 -1.7980
   24MOL   H224 9930   0.587   7.869   4.145 -0.3307  2.7641  0.2988
   24MOL   H225 9931   0.631   7.760   4.015  2.6959 -0.1286 -0.0884
   24MOL   H226 9932   0.441   0.140   3.821  0.6770  0.1435 -0.4907
   24MOL   H227 9933   0.391   0.108   3.604 -0.3528 -0.2455 -0.3452
   24MOL   H228 9934   0.507   7.897   3.465  1.9973 -2.4498 -0.5300
   24MOL   H229 9935   0.677   7.754   3.581  0.8176  0.5946 -0.5597
   24MOL   H230 9936   0.733   7.801   3.826  1.7471  2.3837  0.0784
   24MOL   H231 9937   0.877   7.839   4.302  5.0301 -2.0081  0.0196
   24MOL   H232 9938   1.005   7.898   4.198  1.4489 -1.4236  1.4283
   24MOL   C233 9939   0.975   0.044   4.373  0.5979 -0.3370  0.2322
   24MOL   O234 9940   0.864   0.102   4.443  0.0841  0.0367 -0.4536
   24MOL   C235 9941   0.876   0.238   4.467  0.2947 -0.4803 -0.7092
   24MOL   O236 9942   0.998   0.271   4.544 -0.1444 -0.0322 -0.8063
   24MOL   C237 9943   1.005   0.226   4.677 -0.3982 -0.3409 -0.2588
   24MOL   C238 9944   1.123   0.264   4.748 -0.0169 -0.4204 -0.0158
   24MOL   C239 9945   1.148   0.221   4.878  0.3892 -0.1470 -0.4401
   24MOL   C240 9946   1.048   0.150   4.951 -1.1372  0.3082  0.2072
   24MOL   C241 9947   0.927   0.121   4.884  0.2230  0.0350 -0.2444
   24MOL   C242 9948   0.903   0.150   4.750  0.2671 -0.7994 -0.4478
   24MOL   C243 9949   1.063   7.955   4.472  0.4010  0.5575  0.8321
   24MOL   H244 9950   1.031   0.112   4.309 -0.4374  1.1542  0.8813
   24MOL   H245 9951   0.791   0.267   4.529  0.7100  0.6840 -0.6552
   24MOL   H246 9952   0.876   0.312   4.387  0.0122 -0.4716 -0.6998
   24MOL   H247 9953   1.190   0.328   4.691 -1.8929  1.3240 -0.3319
   24MOL   H248 9954   1.238   0.257   4.925 -2.1528  0.8527  3.8942
   24MOL   H249 9955   1.051   0.118   5.055 -0.2281  0.9081  0.3689
   24MOL   H250 9956   0.845   0.063   4.923 -0.0827  0.1430 -0.7276
   24MOL   H251 9957   0.806   0.138   4.705  0.7058  2.5793 -2.4923
   24MOL   H252 9958   1.100   0.051   4.546  1.0071  0.6355  0.4575
   24MOL   H253 9959   0.995   7.896   4.533 -0.2201  0.2829 -0.1128
   24MOL   C254 9960   1.195   7.884   4.431  0.4661  0.4840  0.5154
   24MOL   O255 9961   1.265   0.003   4.345 -0.8287 -0.1026 -0.7367
   24MOL   C256 9962   1.325   7.921   4.228 -0.1096 -0.3583 -0.7393
   24MOL   O257 9963   1.458   7.894   4.241 -0.3660 -0.6634 -0.1598
   24MOL   C258 9964   1.536   7.930   4.130  0.0329  0.2996 -0.1366
   24MOL   C259 9965   1.502   7.894   3.996  0.8719  0.6814 -0.3366
   24MOL   C260 9966   1.593   7.924   3.897  0.0545 -0.6072 -0.4722
   24MOL   C261 9967   1.718   0.011   3.927 -0.1154  0.5230 -0.1884
   24MOL   C262 9968   1.744   0.057   4.059 -0.4748 -0.2572 -0.3831
   24MOL   C263 9969   1.650   0.026   4.158  0.4739  0.1561  0.3978
   24MOL   C264 9970   1.284   7.851   4.551  0.1368 -0.3882  0.3149
   24MOL   H265 9971   1.165   7.796   4.374  2.1542  0.3240 -0.1573
   24MOL   H266 9972   1.312   0.020   4.149 -0.7801 -0.1096 -0.3967
   24MOL   H267 9973   1.259   7.846   4.185  0.1063 -0.2035 -1.3451
   24MOL   H268 9974   1.422   7.823   3.983  2.7367 -1.8545  1.5356
   24MOL   H269 9975   1.572   7.880   3.801  1.7761  0.3157 -1.2937
   24MOL   H270 9976   1.800   0.023   3.857  0.5066 -0.2450  0.3988
   24MOL   H271 9977   1.839   0.094   4.093 -0.4409 -0.6044 -0.0949
   24MOL   H272 9978   1.663   0.057   4.261  1.2825 -0.0846  0.3716
   24MOL   H273 9979   1.390   7.859   4.528 -0.1543  0.2552 -0.8950
   24MOL   H274 9980   1.282   7.937   4.618 -2.7693  1.0040 -1.4427
   24MOL   C275 9981   1.262   7.715   4.619  0.0175  0.4295  0.3987
   24MOL   O276 9982   1.278   7.610   4.522  0.3225  0.1260 -0.2015
   24MOL   C277 9983   1.177   7.509   4.507  0.0390 -0.0388  0.3331
   24MOL   O278 9984   1.076   7.556   4.420  0.5999 -0.7816 -0.4039
   24MOL   C279 9985   0.984   7.460   4.384 -0.4723 -0.5300  0.1216
   24MOL   C280 9986   0.972   7.328   4.431  0.5640 -0.1240  0.0481
   24MOL   C281 9987   0.865   7.246   4.380 -0.0211  0.5773  0.0078
   24MOL   C282 9988   0.789   7.289   4.270 -0.2664 -0.1918  0.6346
   24MOL   C283 9989   0.803   7.412   4.216 -0.1980 -0.9118  0.7610
   24MOL   C284 9990   0.894   7.502   4.279 -0.1587  0.6220  0.7641
   24MOL   C285 9991   1.359   7.700   4.733 -0.4452  0.4060  0.4845
   24MOL   H286 9992   1.155   7.724   4.641  0.0360  2.3945 -0.2153
   24MOL   H287 9993   1.131   7.485   4.603  1.0307 -2.8177  0.1640
   24MOL   H288 9994   1.224   7.421   4.464  1.3013  0.4767  0.6480
   24MOL   H289 9995   1.041   7.288   4.505  0.0564 -2.0571 -0.4821
   24MOL   H290 9996   0.864   7.144   4.417 -1.5403  0.6463  0.1862
   24MOL   H291 9997   0.714   7.216   4.244 -0.4094 -0.4045  1.6079
   24MOL   H292 9998   0.745   7.429   4.127  0.8251 -2.3030 -0.1960
   24MOL   H293 9999   0.906   7.603   4.242 -0.4430  0.6265  0.6854
   24MOL   H29410000   1.455   7.740   4.700  0.0355 -1.6914 -0.8226
   24MOL   H29510001   1.371   7.595   4.762  0.5482  0.5184  0.4955
   24MOL   C29610002   1.304   7.777   4.856  0.1963 -0.8699  0.2334
   24MOL   O29710003   1.195   7.720   4.919  0.1596  0.1987 -0.4973
   24MOL   C29810004   1.075   7.786   4.910  0.0313 -0.3235 -0.7433
   24MOL   O29910005   0.976   7.728   4.990  0.2210 -0.3304  0.2305
   24MOL   C30010006   0.911   7.618   4.932  0.2446 -1.0979  0.7373
   24MOL   C30110007   0.901   7.584   4.795  0.2631 -0.0472 -0.1303
   24MOL   C30210008   0.830   7.476   4.752  0.5772 -0.1233  0.1758
   24MOL   C30310009   0.771   7.390   4.842 -0.0576  0.1265  0.1204
   24MOL   C30410010   0.775   7.417   4.982 -0.0684 -0.0897  0.3133
   24MOL   C30510011   0.851   7.528   5.026  0.0252 -0.3083  0.1047
   24MOL   C30610012   1.424   7.775   4.959  0.0841  0.2607 -0.5304
   24MOL   H30710013   1.290   7.885   4.844 -1.3192 -1.0915 -0.0029
   24MOL   H30810014   1.050   7.808   4.806  2.3953  0.0234 -1.2491
   24MOL   H30910015   1.089   7.877   4.969 -0.8511 -0.6540 -0.0197
   24MOL   H31010016   0.950   7.639   4.716  1.1577  0.3983  0.7220
   24MOL   H31110017   0.828   7.467   4.645  0.1914  0.6954  0.1127
   24MOL   H31210018   0.719   7.300   4.810  0.1621  0.1715 -0.3618
   24MOL   H31310019   0.736   7.350   5.058  0.9378 -0.3427  0.6146
   24MOL   H31410020   0.860   7.542   5.132 -0.8073  0.4270  0.0887
   24MOL   H31510021   1.515   7.798   4.905  0.1557 -1.0926 -1.0035
   24MOL   H31610022   1.432   7.677   5.005  2.6056  2.2055  3.4439
   24MOL   C31710023   1.419   7.892   5.062  0.1016  0.4484  0.0190
   24MOL   O31810024   1.557   7.893   5.112 -0.2959  0.2414  0.2425
   24MOL   C31910025   1.623   0.039   5.085  0.0251 -0.0599  0.7598
   24MOL   O32010026   1.626   0.141   5.182 -0.4190 -0.0506  0.4899
   24MOL   C32110027   1.686   0.127   5.307 -0.3456  0.8904  0.2042
   24MOL   C32210028   1.737   0.007   5.351  0.4800 -0.4115 -0.5240
   24MOL   C32310029   1.797   7.975   5.478 -0.3285 -0.2689 -0.1248
   24MOL   C32410030   1.827   0.114   5.551  0.5237  0.3683 -0.4357
   24MOL   C32510031   1.769   0.239   5.510  0.5566 -0.0330 -0.7384
   24MOL   C32610032   1.696   0.235   5.389 -0.4677  0.3615  0.1748
   24MOL   C32710033   1.329   7.864   5.186 -0.2763  0.9325  0.5690
   24MOL   H32810034   1.390   0.004   5.003 -0.9350 -0.6319 -1.1030
   24MOL   H32910035   1.588   0.095   4.999  1.0506  0.7202  0.8504
   24MOL   H33010036   1.726   0.020   5.056 -0.1811 -0.4154  0.2398
   24MOL   H33110037   1.719   7.891   5.297 -1.2777 -0.8806  0.8046
   24MOL   H33210038   1.837   7.882   5.515  3.3974  1.1604 -0.3787
   24MOL   H33310039   1.877   0.113   5.647 -0.8032  1.0081  0.2727
   24MOL   H33410040   1.768   0.339   5.549  1.8428 -0.3588  0.1431
   24MOL   H33510041   1.661   0.329   5.348 -1.2716 -0.6389 -1.4649
   24MOL   H33610042   1.226   7.838   5.163 -0.6250 -1.2677  4.1440
   24MOL   H33710043   1.384   7.782   5.234  0.3878 -0.9411 -3.1952
   24MOL   C33810044   1.318   7.971   5.289 -0.1780  0.0738 -0.2882
   24MOL   O33910045   1.254   0.110   5.230 -0.1858  0.1798 -0.4535
   24MOL   C34010046   1.275   0.233   5.294  1.0075 -0.3647 -0.0117
   24MOL   O34110047   1.161   0.255   5.382  0.8462 -0.3633 -0.2400
   24MOL   C34210048   1.114   0.382   5.384 -0.0917  0.2205 -0.3822
   24MOL   C34310049   1.199   0.495   5.366  0.5276  0.0543 -0.1409
   24MOL   C34410050   1.144   0.623   5.383  0.0525 -0.0196  0.9993
   24MOL   C34510051   1.013   0.640   5.430 -0.9219 -0.2332  0.0392
   24MOL   C34610052   0.931   0.526   5.453 -0.6103 -0.2839  0.4980
   24MOL   C34710053   0.980   0.401   5.422  0.1630 -0.4698  0.7345
   24MOL   C34810054   1.213   7.923   5.395  0.2080  0.5109  0.1867
   24MOL   H34910055   1.412   0.014   5.341 -0.8822  0.2942  0.9224
   24MOL   H35010056   1.273   0.301   5.209 -2.7175  1.0461  1.0990
   24MOL   H35110057   1.371   0.224   5.345  0.2568 -1.4037  1.2709
   24MOL   H35210058   1.304   0.481   5.348  0.4557 -0.2644 -0.3151
   24MOL   H35310059   1.212   0.707   5.376  0.8636 -0.7251  0.3669
   24MOL   H35410060   0.978   0.740   5.450 -1.1100 -0.4319  0.7376
   24MOL   H35510061   0.835   0.531   5.501  0.0172  0.3856  1.7031
   24MOL   H35610062   0.924   0.309   5.431  1.9045 -2.0108 -3.0671
   24MOL   H35710063   1.229   7.815   5.404  0.1333  0.4007 -0.9571
   24MOL   H35810064   1.110   7.932   5.361  0.0745  0.4852  0.5832
   24MOL   C35910065   1.235   7.969   5.542 -0.2623  0.0564  0.3021
   24MOL   O36010066   1.348   7.897   5.617 -0.1063 -0.4860 -0.3622
   24MOL   C36110067   1.487   7.926   5.591  0.5856  0.0460  0.2757
   24MOL   O36210068   1.517   0.083   5.603 -0.7488 -0.0777  0.8395
   24MOL   C36310069   1.517   0.140   5.730 -0.3210 -0.6122 -0.2314
   24MOL   C36410070   1.562   0.069   5.844  0.7745 -0.0234  0.2493
   24MOL   C36510071   1.573   0.129   5.968 -0.0494 -0.1388 -0.2197
   24MOL   C36610072   1.541   0.268   5.976  0.3177 -0.2397 -0.4560
   24MOL   C36710073   1.500   0.341   5.863 -0.5511 -0.0359  1.0122
   24MOL   C36810074   1.481   0.277   5.738  0.7279 -0.6654 -0.1056
   24MOL   C36910075   1.108   7.952   5.629 -0.3661 -0.4435  0.1044
   24MOL   H37010076   1.262   0.099   5.540  1.4816 -0.3992 -0.3232
   24MOL   H37110077   1.498   7.888   5.490  1.1835  0.6300  0.1229
   24MOL   H37210078   1.560   7.873   5.653  1.2645  1.3244  0.5800
   24MOL   H37310079   1.588   7.941   5.834  0.4578  0.0578 -1.6158
   24MOL   H37410080   1.604   0.066   6.050 -0.1110 -0.9875 -0.8428
   24MOL   H37510081   1.546   0.320   6.070 -1.1125 -2.5858  0.9791
   24MOL   H37610082   1.490   0.448   5.872  1.4657  0.5972 -3.0383
   24MOL   H37710083   1.446   0.337   5.656  0.3797  0.5643  0.9106
   24MOL   H37810084   1.108   7.848   5.661  0.3994 -0.5484 -0.2247
   24MOL   H37910085   1.011   7.968   5.581 -1.1426  1.2796  2.1571
   24MOL   C38010086   1.110   0.063   5.755  0.1419  0.0210 -0.3513
   24MOL   O38110087   0.995   0.023   5.839 -0.2477 -0.0099  0.3230
   24MOL   C38210088   1.016   7.876   5.912 -0.7158 -0.9048  0.2290
   24MOL   O38310089   1.084   7.906   6.025  0.0130  0.2203 -0.5400
   24MOL   C38410090   1.018   7.964   6.134 -0.7913  0.3907  0.3929
   24MOL   C38510091   0.894   0.063   6.122 -0.3999 -0.5929  0.0258
   24MOL   C38610092   0.832   0.115   6.238  0.1867  0.4202 -0.1315
   24MOL   C38710093   0.887   0.094   6.366  0.0667  0.1640 -0.3467
   24MOL   C38810094   1.007   0.028   6.377 -0.0849  0.1797  0.4249
   24MOL   C38910095   1.073   7.947   6.265 -0.5411 -0.0591 -0.3038
   24MOL   C39010096   1.085   0.207   5.721 -0.5474 -0.2592  0.3797
   24MOL   H39110097   1.200   0.066   5.818 -0.1770  2.6183  0.0433
   24MOL   H39210098   0.922   7.828   5.937 -1.3305  0.9317  1.5578
   24MOL   H39310099   1.088   7.808   5.866  1.4500 -0.0249  2.1554
   24MOL   H39410100   0.847   0.068   6.025  0.8813 -1.8949 -0.6869
   24MOL   H39510101   0.731   0.153   6.239 -1.4381 -3.6637  0.4186
   24MOL   H39610102   0.835   0.130   6.454 -0.5570 -1.4302 -0.0448
   24MOL   H39710103   1.049   0.015   6.476 -1.6384 -0.3520  1.0192
   24MOL   H39810104   1.173   7.909   6.275 -0.7063 -0.4440 -0.1160
   24MOL   H39910105   0.997   0.218   5.659  0.5679  1.6465 -0.9189
   24MOL   H40010106   1.174   0.252   5.676  0.3414 -0.0420  2.2866
   24MOL   C40110107   1.051   0.298   5.837 -0.3430 -0.1200  0.4226
   24MOL   O40210108   1.167   0.339   5.912 -0.0703 -0.0031  0.1742
   24MOL   C40310109   1.197   0.264   6.023  0.7985  0.0321  0.5246
   24MOL   O40410110   1.279   0.338   6.109 -0.0513 -0.1000 -0.2421
   24MOL   C40510111   1.222   0.443   6.183 -0.6423 -0.2528 -0.1131
   24MOL   C40610112   1.313   0.510   6.272 -0.2186  0.7068  0.0370
   24MOL   C40710113   1.266   0.619   6.353  0.3762  0.3595  0.1629
   24MOL   C40810114   1.129   0.653   6.356 -0.3361 -0.1185 -0.0463
   24MOL   C40910115   1.048   0.584   6.267  0.2621  0.6098 -0.7624
   24MOL   C41010116   1.088   0.481   6.181 -0.4953  0.7003 -0.4294
   24MOL   C41110117   0.981   0.427   5.798 -0.2262 -0.2805  0.7842
   24MOL   H41210118   0.990   0.241   5.908 -0.1940  0.6748  1.1984
   24MOL   H41310119   1.255   0.174   6.002  1.2573  0.2340  0.9202
   24MOL   H41410120   1.103   0.235   6.070 -0.4122 -0.0105 -1.8299
   24MOL   H41510121   1.419   0.492   6.266 -0.0316  1.4956  0.8820
   24MOL   H41610122   1.343   0.674   6.405 -0.9528  0.3888  2.1679
   24MOL   H41710123   1.084   0.735   6.410 -2.2638 -1.9931  1.2382
   24MOL   H41810124   0.942   0.604   6.267  0.0407 -0.3711  1.6979
   24MOL   H41910125   1.011   0.439   6.117 -1.4917  2.3868 -0.3752
   24MOL   H42010126   0.885   0.410   5.749  0.3090 -1.3895  0.1328
   24MOL   H42110127   1.032   0.479   5.717  2.0788 -2.0473  1.0721
   24MOL   H42210128   0.959   0.499   5.878  0.8501  0.6528  0.2496
   25MOL     C110129   6.272   1.160   3.517  0.4591  0.6196  0.4883
   25MOL     O210130   6.387   1.084   3.475  0.0428  0.1058  0.0041
   25MOL     C310131   6.343   0.960   3.429  0.5046 -0.1995 -0.3428
   25MOL     O410132   6.283   0.881   3.529  0.1884  0.1587 -0.5325
   25MOL     C510133   6.192   0.789   3.492  0.8490  0.1032 -0.2510
   25MOL     C610134   6.084   0.758   3.578 -0.6115  0.7144 -0.3591
   25MOL     C710135   5.995   0.648   3.545  0.0495 -0.2507 -0.1633
   25MOL     C810136   6.000   0.593   3.418  0.6200  0.1134 -0.6926
   25MOL     C910137   6.108   0.625   3.339  0.1283 -0.6738 -0.0164
   25MOL    C1010138   6.201   0.724   3.370  0.4172 -0.5864 -0.2920
   25MOL    C1110139   6.321   1.279   3.606 -0.2321 -0.7314  0.0395
   25MOL    H1210140   6.215   1.186   3.429 -0.5003 -0.2128  0.8459
   25MOL    H1310141   6.268   0.966   3.350 -0.0615 -3.3845 -0.1017
   25MOL    H1410142   6.437   0.926   3.385 -0.2330 -0.1524 -2.0081
   25MOL    H1510143   6.078   0.803   3.676  1.0424 -0.1513  0.1571
   25MOL    H1610144   5.913   0.628   3.613  2.0126  0.0215  2.3424
   25MOL    H1710145   5.931   0.518   3.386 -0.1377  1.3083 -1.8894
   25MOL    H1810146   6.122   0.575   3.244 -2.5644  0.5314 -1.0790
   25MOL    H1910147   6.277   0.754   3.300  0.5418  0.4658  0.2828
   25MOL    H2010148   6.393   1.332   3.544 -0.2165  0.4030  1.0071
   25MOL    H2110149   6.372   1.239   3.694 -0.8895 -1.4259  0.1054
   25MOL    H2210150   6.203   1.105   3.581 -2.9172  0.8046 -2.8381
   25MOL    C2310151   6.212   1.369   3.650  0.1729 -0.2995 -0.2346
   25MOL    O2410152   6.130   1.418   3.543  0.2275 -0.2163 -0.1399
   25MOL    C2510153   6.165   1.540   3.483  0.1618 -0.3550 -0.3666
   25MOL    O2610154   6.293   1.546   3.443  0.4099  0.0436  0.2739
   25MOL    C2710155   6.354   1.670   3.425 -0.1532  0.9293 -0.8201
   25MOL    C2810156   6.486   1.660   3.386  0.7864  0.3588 -0.2419
   25MOL    C2910157   6.555   1.772   3.343  0.4020  1.2089 -0.4409
   25MOL    C3010158   6.491   1.894   3.349 -0.5680 -0.1677 -0.0573
   25MOL    C3110159   6.359   1.906   3.402  0.0750  0.3362  0.1863
   25MOL    C3210160   6.288   1.791   3.431  0.0306 -0.4518 -0.1894
   25MOL    C3310161   6.252   1.483   3.754  0.7568 -0.1981 -0.1594
   25MOL    H3410162   6.137   1.315   3.707 -1.3491 -0.6710 -2.5280
   25MOL    H3510163   6.150   1.610   3.566  4.3625  0.2005  0.0241
   25MOL    H3610164   6.103   1.567   3.398  0.9199 -0.9914 -1.1332
   25MOL    H3710165   6.538   1.566   3.379  1.0922  0.6619 -2.1773
   25MOL    H3810166   6.660   1.776   3.315  0.6832  0.0255  0.3608
   25MOL    H3910167   6.559   1.974   3.324 -0.2259 -0.9011 -1.5654
   25MOL    H4010168   6.311   2.002   3.408 -0.5680  0.0006  0.4975
   25MOL    H4110169   6.188   1.802   3.469 -0.8638 -2.4111 -1.8860
   25MOL    H4210170   6.161   1.538   3.777  0.8910  1.0257 -2.3174
   25MOL    H4310171   6.311   1.560   3.704 -0.2344  0.3404 -0.5168
   25MOL    C4410172   6.322   1.433   3.880 -0.5575 -0.2828  0.5831
   25MOL    O4510173   6.245   1.329   3.950  0.3942  0.3150  0.0168
   25MOL    C4610174   6.319   1.226   4.020 -0.4576 -0.0111 -0.9185
   25MOL    O4710175   6.405   1.284   4.116 -0.3677  0.6131 -0.0883
   25MOL    C4810176   6.466   1.205   4.211  0.8064  0.4886  0.0694
   25MOL    C4910177   6.438   1.073   4.240 -0.0868 -0.3453 -0.4424
   25MOL    C5010178   6.507   0.988   4.329  0.6293  0.1329 -0.1262
   25MOL    C5110179   6.614   1.049   4.401  0.2534 -0.4887  0.2355
   25MOL    C5210180   6.641   1.187   4.380  0.2686 -0.3505 -0.3641
   25MOL    C5310181   6.567   1.268   4.290 -0.0727 -0.1291 -0.0245
   25MOL    C5410182   6.345   1.549   3.984  0.2385  0.3026 -0.1227
   25MOL    H5510183   6.424   1.402   3.857 -0.6123 -0.5304  0.6727
   25MOL    H5610184   6.378   1.168   3.949  1.3665  0.5551  0.0925
   25MOL    H5710185   6.254   1.159   4.077  1.0328 -0.1915  0.6314
   25MOL    H5810186   6.368   1.019   4.177  0.8938  1.8935 -3.5601
   25MOL    H5910187   6.483   0.883   4.330  2.0261 -0.1946 -0.1360
   25MOL    H6010188   6.681   0.992   4.464 -0.3819 -1.9510 -0.3825
   25MOL    H6110189   6.729   1.235   4.422 -0.1128 -0.0508  0.0906
   25MOL    H6210190   6.581   1.372   4.263  0.1776 -0.0209  0.5154
   25MOL    H6310191   6.248   1.593   4.005  0.1327  0.0217 -0.0278
   25MOL    H6410192   6.386   1.517   4.080  0.6277 -1.7411 -0.9512
   25MOL    C6510193   6.442   1.659   3.933 -0.3172  0.3415 -0.2910
   25MOL    O6610194   6.397   1.792   3.967  0.1985 -0.3119 -0.4019
   25MOL    C6710195   6.347   1.864   3.864 -0.1157  0.6154  0.1951
   25MOL    O6810196   6.234   1.816   3.806  0.1509  0.2015 -0.1437
   25MOL    C6910197   6.159   1.910   3.737 -0.7487  0.5085 -0.5564
   25MOL    C7010198   6.207   2.036   3.699 -0.5603 -0.5360  0.5370
   25MOL    C7110199   6.131   2.125   3.622  0.4507  0.0217 -0.4127
   25MOL    C7210200   5.999   2.090   3.586 -0.0687 -0.4632  0.8773
   25MOL    C7310201   5.952   1.966   3.621 -0.0304  0.3083 -0.3559
   25MOL    C7410202   6.030   1.876   3.702 -0.1207 -0.0771 -0.0497
   25MOL    C7510203   6.579   1.638   4.000  0.1854 -0.8626 -0.6108
   25MOL    H7610204   6.444   1.647   3.825 -0.2400 -1.1104 -0.1365
   25MOL    H7710205   6.415   1.867   3.779  0.2797 -0.3306  0.4778
   25MOL    H7810206   6.343   1.967   3.900  0.3620  0.1571  1.6089
   25MOL    H7910207   6.305   2.072   3.724 -1.1439  2.7374 -1.5565
   25MOL    H8010208   6.179   2.206   3.571 -0.1017  1.1573  0.8498
   25MOL    H8110209   5.952   2.168   3.527 -1.5559 -2.5225 -0.7601
   25MOL    H8210210   5.860   1.930   3.578  0.3930 -0.0543 -0.9531
   25MOL    H8310211   5.991   1.781   3.736 -0.9053  0.9900  2.1351
   25MOL    H8410212   6.588   1.675   4.102  1.4033 -0.7089 -0.7628
   25MOL    H8510213   6.594   1.531   4.013 -1.2296 -1.1503 -1.2726
   25MOL    C8610214   6.703   1.687   3.920  0.1990 -0.1522 -0.3991
   25MOL    O8710215   6.768   1.784   3.997 -0.5560 -0.2338 -0.1304
   25MOL    C8810216   6.715   1.914   3.988 -0.4461  0.2053  0.7258
   25MOL    O8910217   6.704   1.952   3.854 -0.0017 -0.0480  0.3182
   25MOL    C9010218   6.630   2.065   3.818  0.0344 -0.0606  0.2268
   25MOL    C9110219   6.629   2.088   3.676 -0.0233 -0.4704 -0.0438
   25MOL    C9210220   6.574   2.211   3.636 -0.4855 -0.1130  0.5472
   25MOL    C9310221   6.523   2.309   3.732 -0.5507  0.3343  0.4392
   25MOL    C9410222   6.525   2.279   3.868 -0.4359  0.5647  0.4631
   25MOL    C9510223   6.581   2.163   3.912 -0.2345 -0.0192 -0.0470
   25MOL    C9610224   6.804   1.570   3.897  0.5679 -0.6896 -0.0107
   25MOL    H9710225   6.682   1.722   3.819  0.8952  0.1620 -0.4448
   25MOL    H9810226   6.786   1.975   4.043 -0.5856  0.0045  1.1358
   25MOL    H9910227   6.620   1.919   4.042 -0.2911 -0.2423  1.0463
   25MOL   H10010228   6.663   2.013   3.606 -0.8143  2.9911 -4.3932
   25MOL   H10110229   6.563   2.228   3.530 -0.2134 -1.0851  0.3595
   25MOL   H10210230   6.478   2.396   3.687 -0.9478  0.6938  1.5086
   25MOL   H10310231   6.479   2.354   3.930 -0.5144  0.1051  0.9668
   25MOL   H10410232   6.585   2.153   4.019 -0.8042  1.1242  0.0813
   25MOL   H10510233   6.899   1.608   3.859  0.6422  0.0711  0.9134
   25MOL   H10610234   6.825   1.517   3.990 -0.9314  1.3634  1.5455
   25MOL   C10710235   6.762   1.463   3.791 -0.4657  0.7323 -0.3013
   25MOL   O10810236   6.861   1.444   3.697 -0.0845  0.7447  0.0415
   25MOL   C10910237   6.838   1.493   3.569  0.0114 -0.1799 -0.2904
   25MOL   O11010238   6.746   1.408   3.505 -0.0227  0.1984 -0.0412
   25MOL   C11110239   6.789   1.278   3.466 -0.4939 -0.2075 -0.7873
   25MOL   C11210240   6.920   1.245   3.455 -0.5022 -0.2448  1.1601
   25MOL   C11310241   6.958   1.122   3.406 -0.3510 -0.3512  0.5280
   25MOL   C11410242   6.863   1.024   3.381  0.7642  0.0622  0.4716
   25MOL   C11510243   6.727   1.049   3.410  0.0086  0.8205 -0.7317
   25MOL   C11610244   6.692   1.183   3.444 -0.1221  0.1080 -0.1812
   25MOL   C11710245   6.709   1.328   3.847 -0.6294  0.6688 -0.6013
   25MOL   H11810246   6.676   1.509   3.743 -1.3450 -1.1476 -0.5982
   25MOL   H11910247   6.934   1.515   3.522 -0.0276  1.7158  0.4713
   25MOL   H12010248   6.790   1.591   3.569 -0.5786 -0.4702  0.3376
   25MOL   H12110249   7.001   1.311   3.483 -1.6825  0.8143  2.0936
   25MOL   H12210250   7.059   1.090   3.387 -1.4817 -2.7750 -1.6553
   25MOL   H12310251   6.904   0.930   3.350  1.0805  0.9394 -1.8301
   25MOL   H12410252   6.657   0.968   3.392 -1.4740  2.1036 -0.8719
   25MOL   H12510253   6.592   1.224   3.442 -0.2149 -0.1879 -3.3586
   25MOL   H12610254   6.638   1.296   3.772 -0.2609  3.3106 -2.1376
   25MOL   H12710255   6.655   1.342   3.941 -1.8295 -1.5515 -0.9522
   25MOL   C12810256   6.818   1.222   3.871 -0.3890  0.1185 -0.6644
   25MOL   O12910257   6.753   1.114   3.936  0.1855 -0.5086 -0.3608
   25MOL   C13010258   6.701   1.017   3.848  0.3698 -0.2314 -0.0041
   25MOL   O13110259   6.778   0.898   3.846  0.5201  0.3014  0.1364
   25MOL   C13210260   6.733   0.798   3.757 -0.0092  0.6356 -0.1297
   25MOL   C13310261   6.609   0.794   3.686  0.7727  0.5782  0.5277
   25MOL   C13410262   6.586   0.694   3.589 -0.3788  0.5263  0.1780
   25MOL   C13510263   6.678   0.594   3.558  0.4492 -0.3130 -0.0553
   25MOL   C13610264   6.800   0.593   3.625 -0.1758  0.1367 -0.1037
   25MOL   C13710265   6.827   0.695   3.723  0.1194 -0.2415 -0.3095
   25MOL   C13810266   6.932   1.269   3.953  0.1798 -0.9804  0.0766
   25MOL   H13910267   6.852   1.201   3.770 -1.5298  1.0522 -1.2450
   25MOL   H14010268   6.709   1.052   3.745 -2.3483 -3.3309 -1.3498
   25MOL   H14110269   6.598   0.998   3.876  0.7598 -0.4159  1.3691
   25MOL   H14210270   6.540   0.873   3.712 -1.0679 -0.8272  0.1026
   25MOL   H14310271   6.495   0.694   3.531 -1.0480  2.3437  1.1589
   25MOL   H14410272   6.651   0.526   3.479  0.0423  1.4743 -1.5043
   25MOL   H14510273   6.872   0.514   3.610 -0.9676 -1.0008  1.9633
   25MOL   H14610274   6.919   0.691   3.779 -0.0859  2.3470  0.2600
   25MOL   H14710275   6.975   1.347   3.890 -1.2433 -1.3558 -1.4050
   25MOL   H14810276   6.911   1.302   4.054  0.2346 -1.1510  0.1435
   25MOL   C14910277   7.049   1.172   3.972 -0.4176 -0.6949  0.2261
   25MOL   O15010278   7.118   1.158   3.850 -0.4486  0.3729  0.4055
   25MOL   C15110279   7.102   1.044   3.768 -0.3988  0.2877 -0.0633
   25MOL   O15210280   7.127   0.922   3.834  0.1879 -0.5916 -0.0119
   25MOL   C15310281   7.259   0.885   3.845 -0.3037 -0.2634  0.5331
   25MOL   C15410282   7.363   0.980   3.834 -0.0058  0.2889 -0.0305
   25MOL   C15510283   7.495   0.938   3.849  0.8072  0.1340 -0.2736
   25MOL   C15610284   7.524   0.806   3.884 -0.1673 -0.8109 -0.0163
   25MOL   C15710285   7.431   0.710   3.910 -0.0402 -0.6034 -0.3219
   25MOL   C15810286   7.291   0.746   3.881 -0.1180  0.4841 -0.5832
   25MOL   C15910287   7.153   1.222   4.065  0.2523  0.1860  0.0166
   25MOL   H16010288   7.028   1.071   4.005  0.0230 -1.5244 -1.9856
   25MOL   H16110289   6.995   1.039   3.750 -0.1397 -1.1474 -1.2241
   25MOL   H16210290   7.157   1.063   3.676  0.3146 -1.3501  0.0123
   25MOL   H16310291   7.354   1.086   3.814  0.3398  0.2676 -0.2981
   25MOL   H16410292   7.577   1.008   3.851  1.1744 -0.2031 -2.3163
   25MOL   H16510293   7.626   0.773   3.899 -0.8055 -2.9949 -0.2926
   25MOL   H16610294   7.457   0.613   3.949 -1.4493 -1.1874 -0.8218
   25MOL   H16710295   7.209   0.677   3.896 -1.0977  1.9861  1.0856
   25MOL   H16810296   7.183   1.319   4.026 -1.5524  0.1951 -1.4034
   25MOL   H16910297   7.241   1.158   4.065  1.3789  1.6984 -1.1076
   25MOL   C17010298   7.114   1.238   4.214  0.0286 -0.1752 -0.4765
   25MOL   O17110299   7.087   1.109   4.251  0.1633  0.1703 -0.1967
   25MOL   C17210300   6.954   1.076   4.279 -0.3801 -0.0758 -0.2761
   25MOL   O17310301   6.944   0.961   4.352 -0.5115  0.1626 -0.4147
   25MOL   C17410302   6.901   0.845   4.291 -1.0954 -0.0939 -1.2830
   25MOL   C17510303   6.860   0.745   4.379  0.4178 -0.2152  0.6489
   25MOL   C17610304   6.816   0.620   4.322  0.1506 -1.1712  0.2719
   25MOL   C17710305   6.813   0.601   4.187 -0.0361  0.0513  0.0093
   25MOL   C17810306   6.859   0.698   4.101  0.4582  0.0980 -0.9061
   25MOL   C17910307   6.904   0.818   4.156  0.2570  0.1623  0.2484
   25MOL   C18010308   7.239   1.290   4.295  0.0742  0.5538 -0.2954
   25MOL   H18110309   7.029   1.306   4.222 -0.2468 -0.4444 -1.1201
   25MOL   H18210310   6.898   1.077   4.186  0.4953  1.8225 -0.7980
   25MOL   H18310311   6.908   1.149   4.346 -2.2447 -0.1716 -1.4295
   25MOL   H18410312   6.861   0.761   4.486 -1.0466 -0.0294  0.6455
   25MOL   H18510313   6.803   0.535   4.388 -1.2379 -0.0310  1.4996
   25MOL   H18610314   6.794   0.503   4.145  1.2170 -1.9792  3.9914
   25MOL   H18710315   6.869   0.679   3.996 -1.9855 -0.7847 -1.0021
   25MOL   H18810316   6.944   0.893   4.089  0.0829 -1.0068 -1.2040
   25MOL   H18910317   7.329   1.241   4.258  0.8512 -0.8073  3.1858
   25MOL   H19010318   7.258   1.397   4.284 -0.5750  1.0208  2.6536
   25MOL   C19110319   7.229   1.267   4.450 -0.6459 -0.0222 -0.2380
   25MOL   O19210320   7.215   1.402   4.509 -0.5469 -0.2133 -0.1407
   25MOL   C19310321   7.117   1.421   4.601  0.5128 -0.2273  0.7157
   25MOL   O19410322   6.990   1.402   4.545  0.3693 -0.8216 -0.2468
   25MOL   C19510323   6.939   1.507   4.469  0.8459  0.2858 -0.2120
   25MOL   C19610324   7.022   1.594   4.404  0.5076 -0.6207  0.9032
   25MOL   C19710325   6.968   1.696   4.316  0.0874  0.1533 -0.1828
   25MOL   C19810326   6.830   1.700   4.300  0.1944 -0.4570  0.9990
   25MOL   C19910327   6.746   1.608   4.361 -0.6712 -0.4345  0.5381
   25MOL   C20010328   6.803   1.507   4.442 -0.2559 -0.7797 -0.7124
   25MOL   C20110329   7.355   1.210   4.530  0.1971 -0.2847 -0.8906
   25MOL   H20210330   7.137   1.211   4.471 -1.3276  1.5686  1.1700
   25MOL   H20310331   7.137   1.521   4.640  1.6707 -0.7611  1.5334
   25MOL   H20410332   7.128   1.357   4.689 -0.0059 -1.7929 -0.3265
   25MOL   H20510333   7.129   1.597   4.420  0.8884 -0.8766 -1.4910
   25MOL   H20610334   7.026   1.766   4.257  0.3633  0.1700  0.1096
   25MOL   H20710335   6.785   1.786   4.253  3.0862  0.0457 -0.9839
   25MOL   H20810336   6.640   1.618   4.344 -0.5427  0.0342  0.0232
   25MOL   H20910337   6.732   1.450   4.500  0.6062 -1.2712 -0.1317
   25MOL   H21010338   7.438   1.269   4.490 -0.0464  0.4416 -0.3520
   25MOL   H21110339   7.350   1.236   4.636  0.7516  0.5156 -1.0564
   25MOL   C21210340   7.381   1.061   4.519  0.1074  0.0679  0.6001
   25MOL   O21310341   7.399   1.031   4.378  0.2173  0.1828  0.0791
   25MOL   C21410342   7.334   0.922   4.331 -0.4486 -0.1550  0.4375
   25MOL   O21510343   7.407   0.808   4.357  0.0388 -0.3389  0.3013
   25MOL   C21610344   7.376   0.695   4.286 -0.3923  0.3198  0.3696
   25MOL   C21710345   7.243   0.674   4.238 -1.2576  0.0784 -0.5546
   25MOL   C21810346   7.214   0.552   4.172 -0.0090 -0.5553 -0.2878
   25MOL   C21910347   7.313   0.460   4.137 -0.7997  0.7088  0.1414
   25MOL   C22010348   7.449   0.479   4.183  0.0484 -0.2148 -0.2881
   25MOL   C22110349   7.476   0.599   4.258 -0.1040  0.4519  0.6747
   25MOL   C22210350   7.520   1.024   4.578 -0.1475 -0.2872 -0.5276
   25MOL   H22310351   7.302   1.001   4.563  1.1647 -2.9195 -1.3701
   25MOL   H22410352   7.329   0.940   4.223  0.1979  0.3819  0.4903
   25MOL   H22510353   7.231   0.916   4.366 -1.3929  3.2717 -1.4645
   25MOL   H22610354   7.157   0.734   4.265 -1.2763 -0.9914  1.8465
   25MOL   H22710355   7.109   0.531   4.156 -0.3034  0.1651  0.6725
   25MOL   H22810356   7.285   0.364   4.096  1.2565  0.0004  0.3634
   25MOL   H22910357   7.526   0.408   4.158 -2.0650 -1.0935 -4.6952
   25MOL   H23010358   7.574   0.620   4.297  0.7551  3.4860 -2.8481
   25MOL   H23110359   7.558   0.927   4.546  0.4580  0.4214 -2.0253
   25MOL   H23210360   7.591   1.097   4.539 -2.6351  1.8648 -1.2027
   25MOL   C23310361   7.516   1.015   4.732  0.2417 -0.0176 -0.7136
   25MOL   O23410362   7.428   0.901   4.756 -0.5138  0.2163  0.1326
   25MOL   C23510363   7.350   0.900   4.872 -0.7756 -0.4993  0.1269
   25MOL   O23610364   7.273   1.018   4.892 -0.0012  0.5523 -0.3246
   25MOL   C23710365   7.147   1.029   4.844  0.0594 -0.2573  0.0837
   25MOL   C23810366   7.082   0.947   4.746 -0.9835 -0.1276 -0.5451
   25MOL   C23910367   6.951   0.978   4.702  0.1390  0.4212 -0.0586
   25MOL   C24010368   6.889   1.093   4.751  0.1152  0.4418 -0.4446
   25MOL   C24110369   6.953   1.180   4.839  0.7323 -0.1629 -0.1522
   25MOL   C24210370   7.074   1.140   4.894  1.0792  0.1663 -0.1060
   25MOL   C24310371   7.650   0.988   4.794  0.3384  0.4795 -0.4195
   25MOL   H24410372   7.476   1.103   4.783 -0.2976 -0.8915  0.3701
   25MOL   H24510373   7.416   0.894   4.959  0.0719  1.3536 -0.3756
   25MOL   H24610374   7.282   0.815   4.882 -2.0671  0.5970  0.9298
   25MOL   H24710375   7.144   0.874   4.695 -1.0983 -1.7986  1.6541
   25MOL   H24810376   6.895   0.914   4.637  0.8467 -0.0717 -0.1884
   25MOL   H24910377   6.793   1.115   4.706 -0.0703  0.6496  0.0597
   25MOL   H25010378   6.899   1.266   4.875 -0.2683  0.0797 -2.1782
   25MOL   H25110379   7.106   1.185   4.987  2.6055  0.8004 -0.9265
   25MOL   H25210380   7.640   0.944   4.894 -0.6877 -0.0729 -0.7598
   25MOL   H25310381   7.698   0.914   4.730  0.2599  0.9228 -0.9937
   25MOL   C25410382   7.739   1.111   4.804 -0.0093 -0.1920  0.4651
   25MOL   O25510383   7.690   1.193   4.899  0.7054  0.0430 -0.8156
   25MOL   C25610384   7.700   1.330   4.869 -0.2866  0.0531  0.1999
   25MOL   O25710385   7.586   1.386   4.817 -0.3768  0.0564 -0.3051
   25MOL   C25810386   7.486   1.423   4.900 -0.3200  0.3412  1.0779
   25MOL   C25910387   7.482   1.397   5.039  0.8899 -0.6574 -0.4788
   25MOL   C26010388   7.358   1.420   5.106  0.5571  0.0517  0.1153
   25MOL   C26110389   7.243   1.474   5.039 -0.2729 -0.6558 -0.4411
   25MOL   C26210390   7.247   1.503   4.902 -0.3266 -0.6665 -0.7727
   25MOL   C26310391   7.369   1.477   4.837 -0.5481 -0.3785 -0.4412
   25MOL   C26410392   7.891   1.077   4.830 -0.2050 -0.3727  0.3675
   25MOL   H26510393   7.743   1.149   4.702  0.8523  1.1789  0.9983
   25MOL   H26610394   7.780   1.352   4.798 -1.3306  0.5002 -0.8619
   25MOL   H26710395   7.733   1.375   4.962  2.1294  2.0519 -1.5411
   25MOL   H26810396   7.566   1.346   5.083 -1.0291 -1.7519  2.0563
   25MOL   H26910397   7.355   1.403   5.212 -1.3428 -1.6639 -0.1655
   25MOL   H27010398   7.153   1.488   5.098 -1.0694  1.9105 -2.1822
   25MOL   H27110399   7.161   1.549   4.857 -3.1469 -2.1126  2.9052
   25MOL   H27210400   7.379   1.498   4.732  0.5978  0.6504 -0.1421
   25MOL   H27310401   7.952   1.166   4.851 -1.9400  1.0850 -0.5908
   25MOL   H27410402   7.902   1.011   4.916  1.3809 -0.9254 -0.2463
   25MOL   C27510403   7.971   1.003   4.717  0.0338  0.1885  0.3889
   25MOL   O27610404   0.015   1.098   4.615 -0.1719  0.1096 -0.1225
   25MOL   C27710405   0.050   1.056   4.485 -0.4560 -0.3188  0.5606
   25MOL   O27810406   7.913   0.991   4.427 -0.0080  0.2512  0.3847
   25MOL   C27910407   7.913   0.978   4.294 -0.8929 -0.0222 -0.3758
   25MOL   C28010408   7.790   0.974   4.227 -0.0537 -0.0373 -0.2096
   25MOL   C28110409   7.788   0.978   4.086  0.6588 -0.2686  0.0891
   25MOL   C28210410   7.908   0.969   4.012  0.0035  0.0865  0.2400
   25MOL   C28310411   0.052   0.970   4.074  0.2922  0.1319  0.2031
   25MOL   C28410412   0.056   0.969   4.216 -0.4839 -0.3692  0.3241
   25MOL   C28510413   0.134   0.976   4.770  0.4908 -0.2676 -0.5441
   25MOL   H28610414   7.930   0.907   4.686 -2.5505  1.2393  0.4138
   25MOL   H28710415   0.138   0.994   4.499  1.0357  1.2525 -1.6061
   25MOL   H28810416   0.085   1.145   4.433 -2.1378 -0.2676 -0.5268
   25MOL   H28910417   7.702   0.970   4.290  0.4829  0.9461  0.6138
   25MOL   H29010418   7.689   0.981   4.043  1.2841 -1.4014 -1.4663
   25MOL   H29110419   7.914   0.981   3.904 -3.0368 -0.7636 -0.0685
   25MOL   H29210420   0.145   0.966   4.021  0.2432  2.3119 -0.0869
   25MOL   H29310421   0.154   0.969   4.262 -0.0003  0.1391 -0.6749
   25MOL   H29410422   0.187   1.069   4.792  1.0148 -0.5757 -0.4839
   25MOL   H29510423   0.205   0.948   4.692  0.1382 -1.6484 -0.3824
   25MOL   C29610424   0.162   0.882   4.890 -0.4549  0.3949 -0.1322
   25MOL   O29710425   0.124   0.915   5.020  0.3397 -0.0316 -0.2185
   25MOL   C29810426   0.204   1.004   5.091  0.4366 -0.0639  0.3432
   25MOL   O29910427   0.195   1.134   5.037 -0.3234  0.2092  0.3427
   25MOL   C30010428   0.108   1.218   5.101  0.4912  0.2078  0.0475
   25MOL   C30110429   0.145   1.354   5.118 -0.0937 -0.9852  0.5212
   25MOL   C30210430   0.059   1.454   5.171 -0.6500  0.2122  0.2370
   25MOL   C30310431   7.904   1.418   5.208  0.2699  0.1383  0.0949
   25MOL   C30410432   7.864   1.279   5.207 -0.3931 -0.1236 -0.3122
   25MOL   C30510433   7.959   1.185   5.156  0.1103  0.3499 -0.8517
   25MOL   C30610434   0.098   0.745   4.859  0.0118  0.6453  0.4868
   25MOL   H30710435   0.270   0.869   4.896 -0.6804 -1.2734  0.6437
   25MOL   H30810436   0.306   0.972   5.067 -0.2781 -1.1500 -1.3513
   25MOL   H30910437   0.199   1.000   5.200 -1.1975 -1.9908  0.2123
   25MOL   H31010438   0.243   1.391   5.092 -0.5828  0.2363  0.3665
   25MOL   H31110439   0.086   1.557   5.188  0.0950  0.0023  0.3346
   25MOL   H31210440   7.830   1.496   5.222  0.6486  0.5377 -0.1417
   25MOL   H31310441   7.761   1.246   5.217  0.1669 -1.9504 -0.3916
   25MOL   H31410442   7.909   1.091   5.136  1.3546 -0.8488  1.4591
   25MOL   H31510443   0.098   0.725   4.751  0.7725 -1.8062  0.9086
   25MOL   H31610444   7.969   0.758   4.885 -0.1095 -0.1151  0.4168
   25MOL   C31710445   0.147   0.619   4.939 -0.1069  0.2031 -0.2899
   25MOL   O31810446   0.272   0.572   4.885  0.3968 -0.4716  0.6202
   25MOL   C31910447   0.378   0.548   4.974  0.0438 -0.5132 -0.1996
   25MOL   O32010448   0.476   0.480   4.905 -0.3632  0.1418 -0.3227
   25MOL   C32110449   0.604   0.491   4.962 -0.3452  0.5809  0.4238
   25MOL   C32210450   0.713   0.443   4.885 -0.3002 -0.2450 -0.0802
   25MOL   C32310451   0.844   0.450   4.921  0.5153 -0.6396 -0.4480
   25MOL   C32410452   0.868   0.490   5.055  0.3446 -0.8889 -0.2817
   25MOL   C32510453   0.764   0.538   5.137 -0.1563  0.3792 -0.5826
   25MOL   C32610454   0.634   0.545   5.087 -0.7174  0.7558  0.3443
   25MOL   C32710455   0.048   0.503   4.937 -0.4658  0.4921  0.0076
   25MOL   H32810456   0.155   0.644   5.044 -0.3047 -3.0678  0.5624
   25MOL   H32910457   0.336   0.494   5.059  1.8617 -0.7350  0.5897
   25MOL   H33010458   0.402   0.653   4.991 -2.7367  0.2406 -0.6091
   25MOL   H33110459   0.702   0.411   4.783 -1.6901 -0.6310  0.1763
   25MOL   H33210460   0.914   0.411   4.848  1.1015  1.5082 -1.0531
   25MOL   H33310461   0.967   0.480   5.096  1.3716 -0.6204 -2.6142
   25MOL   H33410462   0.781   0.580   5.235  0.4322  0.5158 -0.7422
   25MOL   H33510463   0.569   0.611   5.142  1.9304  4.6355 -1.0195
   25MOL   H33610464   7.929   0.551   4.961 -0.1450  3.4222 -3.9350
   25MOL   H33710465   0.022   0.464   4.839 -0.4302  0.6852 -0.0796
   25MOL   C33810466   0.078   0.377   5.030  0.0348 -0.0191 -0.1189
   25MOL   O33910467   0.060   0.429   5.164  0.5027 -0.3402  0.4795
   25MOL   C34010468   0.105   0.344   5.264  0.6770  0.5239  0.2083
   25MOL   O34110469   0.246   0.328   5.266  0.3736  0.1571  0.3921
   25MOL   C34210470   0.321   0.429   5.317  0.9063  0.1774  0.1719
   25MOL   C34310471   0.448   0.399   5.377 -0.4036 -0.4892  0.0831
   25MOL   C34410472   0.523   0.501   5.438  0.0947  0.7318  0.0250
   25MOL   C34510473   0.480   0.632   5.436 -0.5873 -0.1944 -0.5009
   25MOL   C34610474   0.364   0.668   5.363  0.5102 -0.1287 -0.2443
   25MOL   C34710475   0.282   0.565   5.311  0.4187  0.2365  1.3267
   25MOL   C34810476   7.961   0.267   4.995  0.5063  0.0361  0.5199
   25MOL   H34910477   0.181   0.341   5.028  0.1783  0.4133 -0.8542
   25MOL   H35010478   0.064   0.243   5.270 -1.9062  1.2475 -3.8546
   25MOL   H35110479   0.076   0.392   5.358 -1.9872 -1.4380  0.4353
   25MOL   H35210480   0.481   0.297   5.381  2.5647  0.4304  0.6497
   25MOL   H35310481   0.615   0.470   5.485 -0.4987 -0.7601  0.2029
   25MOL   H35410482   0.531   0.704   5.499  0.4193  0.5130 -2.1020
   25MOL   H35510483   0.336   0.771   5.347  0.6754 -0.4385 -2.7696
   25MOL   H35610484   0.191   0.595   5.261  0.6205 -0.9180  0.2330
   25MOL   H35710485   7.863   0.313   4.980 -0.4891 -2.0329  0.5199
   25MOL   H35810486   7.956   0.197   5.079 -1.6572 -1.8315 -1.1246
   25MOL   C35910487   0.010   0.178   4.878 -0.0461 -0.5679 -0.5768
   25MOL   O36010488   7.885   0.085   4.859 -0.0780  0.1198  0.1366
   25MOL   C36110489   7.759   0.130   4.804 -0.3205  0.7635 -0.1932
   25MOL   O36210490   7.671   0.177   4.899 -0.4038 -0.1781 -0.5851
   25MOL   C36310491   7.592   0.285   4.861 -0.2032 -0.0915  0.1418
   25MOL   C36410492   7.541   0.311   4.730  0.1121  0.0483 -0.2433
   25MOL   C36510493   7.478   0.432   4.702 -0.5510  0.2591 -0.5495
   25MOL   C36610494   7.459   0.526   4.805  0.2638 -0.1303  0.0985
   25MOL   C36710495   7.493   0.494   4.940 -0.2462  0.2919 -0.9142
   25MOL   C36810496   7.564   0.375   4.968  0.0129 -0.0061  0.7933
   25MOL   C36910497   0.155   0.116   4.880 -0.1205  0.2540 -0.3916
   25MOL   H37010498   0.011   0.253   4.799 -2.4630  0.7741  0.6074
   25MOL   H37110499   7.697   0.050   4.764  0.0077  0.0135  0.7899
   25MOL   H37210500   7.784   0.203   4.726  0.6344  0.5595 -0.0925
   25MOL   H37310501   7.558   0.254   4.639  2.9826  0.4547 -0.0125
   25MOL   H37410502   7.461   0.460   4.599  2.3633  3.3888 -0.2892
   25MOL   H37510503   7.419   0.622   4.776 -3.0668 -0.7021  2.5503
   25MOL   H37610504   7.462   0.558   5.021  0.6282 -1.3728  0.7746
   25MOL   H37710505   7.593   0.352   5.069  1.5893 -1.2701  0.0882
   25MOL   H37810506   0.231   0.187   4.850  1.9040 -1.5611  0.2755
   25MOL   H37910507   0.170   0.049   4.796  1.4623 -0.8326  0.7195
   25MOL   C38010508   0.192   0.023   5.007 -0.7569 -0.1709  0.5376
   25MOL   O38110509   0.325   7.949   4.988 -0.8082  0.4728  0.1878
   25MOL   C38210510   0.430   0.057   5.032  0.0650 -0.1850 -0.0980
   25MOL   O38310511   0.543   7.951   5.031  0.3490 -0.2859  0.8244
   25MOL   C38410512   0.650   0.019   5.100 -0.5120 -0.3911 -0.1296
   25MOL   C38510513   0.671   0.151   5.141  0.6628 -0.5184  0.1957
   25MOL   C38610514   0.779   0.182   5.228  0.8209  0.1676 -0.0845
   25MOL   C38710515   0.861   0.078   5.275 -0.4172 -0.3024  0.1475
   25MOL   C38810516   0.846   7.929   5.226 -0.6772  0.4388 -0.2013
   25MOL   C38910517   0.737   7.896   5.151 -0.1674  0.1165  0.2947
   25MOL   C39010518   0.088   7.874   5.017 -0.2955 -0.6515  0.0580
   25MOL   H39110519   0.195   0.082   5.099 -1.1029 -0.9248  1.0350
   25MOL   H39210520   0.436   0.142   4.964  0.0409  0.4983  0.7503
   25MOL   H39310521   0.410   0.095   5.132 -1.6583  1.2276 -0.9521
   25MOL   H39410522   0.607   0.226   5.098 -1.0514 -2.2288 -0.2857
   25MOL   H39510523   0.795   0.287   5.251 -0.3946  0.0333  1.5481
   25MOL   H39610524   0.944   0.113   5.335 -0.6243 -0.8032  0.7311
   25MOL   H39710525   0.912   7.851   5.262  0.6623  1.9644  0.7072
   25MOL   H39810526   0.714   7.792   5.131  0.1001  0.2962 -1.0369
   25MOL   H39910527   0.113   7.798   4.942 -2.1469 -1.3876  0.1617
   25MOL   H40010528   7.959   7.894   4.994 -0.5782 -0.8539  1.1673
   25MOL   C40110529   0.090   7.821   5.169  0.6196  0.1682 -0.6126
   25MOL   O40210530   0.040   7.928   5.250 -0.4822 -0.2538  0.1958
   25MOL   C40310531   0.028   7.904   5.387 -0.2203  0.2605 -0.1761
   25MOL   O40410532   0.029   0.038   5.477 -0.5812  0.0258  0.0673
   25MOL   C40510533   0.033   0.012   5.611 -0.0862  0.4648 -0.0660
   25MOL   C40610534   7.968   7.868   5.675 -0.1137  0.9062  0.1384
   25MOL   C40710535   7.952   7.854   5.811  0.4950  0.7358 -0.1894
   25MOL   C40810536   7.974   7.962   5.894 -0.5649  0.4206 -0.1836
   25MOL   C40910537   0.033   0.109   5.838 -0.3415  0.1324 -0.1167
   25MOL   C41010538   0.047   0.122   5.699 -0.0772  0.1471 -0.2526
   25MOL   C41110539   7.971   7.705   5.189 -0.0527  0.0724  0.2865
   25MOL   H41210540   0.190   7.794   5.202  0.6368  0.0123 -0.7876
   25MOL   H41310541   0.118   7.851   5.418  0.0763  0.8494 -0.0441
   25MOL   H41410542   7.916   7.842   5.408 -0.4819  1.3574  2.0539
   25MOL   H41510543   7.941   7.784   5.614 -0.8748  1.2610 -0.0175
   25MOL   H41610544   7.921   7.765   5.864 -3.1354  2.0659  0.0797
   25MOL   H41710545   7.947   7.955   5.999 -0.9732  0.8836 -0.2565
   25MOL   H41810546   0.041   0.198   5.900  1.7401  0.0665 -0.2465
   25MOL   H41910547   0.081   0.217   5.660  4.3339  0.6015  4.1120
   25MOL   H42010548   7.870   7.742   5.174  0.4742  1.3583 -0.1528
   25MOL   H42110549   7.975   7.655   5.287 -1.1380  1.3940  1.0252
   25MOL   H42210550   0.023   7.635   5.110 -2.6152  1.5853 -2.0172
   26MOL     C110551   3.773   7.381   5.132  0.1380  0.5249  0.2675
   26MOL     O210552   3.639   7.395   5.185  0.3754 -0.1722 -0.1165
   26MOL     C310553   3.534   7.325   5.124  0.1640  0.4745 -0.2350
   26MOL     O410554   3.556   7.190   5.127  0.2920 -0.6189  0.2193
   26MOL     C510555   3.531   7.116   5.235  0.1099  0.8444 -0.0497
   26MOL     C610556   3.527   7.172   5.365 -0.1364  0.8084 -0.1215
   26MOL     C710557   3.501   7.086   5.475 -0.5563 -0.0585  0.4172
   26MOL     C810558   3.498   6.952   5.450  0.0981 -0.1337 -0.0704
   26MOL     C910559   3.499   6.892   5.322 -0.2058  0.1197 -0.9628
   26MOL    C1010560   3.511   6.973   5.208 -0.7660  0.0113 -0.0589
   26MOL    C1110561   3.867   7.464   5.211 -0.3583  0.1831 -0.0663
   26MOL    H1210562   3.803   7.277   5.148  0.4072  0.4244 -0.8255
   26MOL    H1310563   3.442   7.366   5.167 -0.8008 -0.9623 -0.8652
   26MOL    H1410564   3.518   7.351   5.019 -0.6609  0.8215 -0.0314
   26MOL    H1510565   3.540   7.277   5.385  0.5252  0.6073  0.5693
   26MOL    H1610566   3.503   7.113   5.579 -0.3737  0.9024  0.1637
   26MOL    H1710567   3.498   6.884   5.534 -1.4291 -1.1011 -0.8327
   26MOL    H1810568   3.495   6.784   5.317 -2.1689  0.2172 -2.7902
   26MOL    H1910569   3.512   6.929   5.110 -2.3030 -1.1058  0.4095
   26MOL    H2010570   3.845   7.431   5.313 -4.3288  0.6793 -0.6799
   26MOL    H2110571   3.844   7.570   5.216 -1.6629 -0.1008  0.1617
   26MOL    H2210572   3.786   7.400   5.025  0.6656  0.9426  0.4029
   26MOL    C2310573   4.014   7.437   5.173 -0.3731  0.2043  0.0918
   26MOL    O2410574   4.102   7.492   5.279 -0.2446 -0.7807 -0.3134
   26MOL    C2510575   4.132   7.409   5.383  0.4649  0.3640 -0.6103
   26MOL    O2610576   4.186   7.289   5.338  0.5728  0.2294 -0.1605
   26MOL    C2710577   4.313   7.285   5.284  0.1735 -0.3824 -0.2044
   26MOL    C2810578   4.373   7.167   5.240  0.7586  0.1289  0.0415
   26MOL    C2910579   4.507   7.169   5.190 -0.0322  0.3566  0.1737
   26MOL    C3010580   4.583   7.288   5.197 -0.7210  0.5147  0.2770
   26MOL    C3110581   4.532   7.407   5.252 -0.2461 -0.5491 -0.0615
   26MOL    C3210582   4.393   7.406   5.287  0.2160  0.1281 -0.3150
   26MOL    C3310583   4.046   7.516   5.043 -0.2849  0.5598  0.6063
   26MOL    H3410584   4.025   7.330   5.155  1.8912  0.5601 -0.8740
   26MOL    H3510585   4.041   7.393   5.442 -0.8363  0.2801 -2.6010
   26MOL    H3610586   4.199   7.451   5.459 -3.3657  1.8096  2.1585
   26MOL    H3710587   4.325   7.070   5.244 -1.4159  1.2155  0.7195
   26MOL    H3810588   4.549   7.076   5.155 -0.9700 -0.4600  1.1665
   26MOL    H3910589   4.688   7.283   5.172 -0.5091 -1.4744  1.4141
   26MOL    H4010590   4.583   7.502   5.255  1.1068 -1.2796  0.2323
   26MOL    H4110591   4.356   7.492   5.340 -1.0411 -0.9540  0.5878
   26MOL    H4210592   4.054   7.620   5.074 -0.3639  0.0531  2.3550
   26MOL    H4310593   3.965   7.517   4.970 -0.2668 -0.3908  0.5651
   26MOL    C4410594   4.177   7.475   4.972 -1.3351  0.1081 -0.0953
   26MOL    O4510595   4.217   7.580   4.878 -0.3170 -0.1908 -0.1710
   26MOL    C4610596   4.311   7.671   4.921  0.9647 -0.2536 -0.1266
   26MOL    O4710597   4.428   7.595   4.942  0.5854  0.1592  0.9521
   26MOL    C4810598   4.540   7.665   4.982  0.2445  0.3662 -0.1318
   26MOL    C4910599   4.654   7.596   5.029 -0.1836 -0.5791  0.7489
   26MOL    C5010600   4.767   7.653   5.079 -0.1385  0.7614 -0.0817
   26MOL    C5110601   4.767   7.795   5.091 -0.7848 -0.2074  0.4735
   26MOL    C5210602   4.652   7.870   5.052 -0.5216  0.3066 -0.4117
   26MOL    C5310603   4.545   7.805   4.983  0.0549  0.4453 -0.0146
   26MOL    C5410604   4.155   7.347   4.888  0.6389  0.0990  0.0140
   26MOL    H5510605   4.262   7.449   5.036 -1.0965  1.1578  0.0191
   26MOL    H5610606   4.276   7.708   5.017  1.6882  2.9754 -1.0413
   26MOL    H5710607   4.328   7.751   4.849  2.0216  2.6268  3.2470
   26MOL    H5810608   4.660   7.488   5.028  0.2525 -0.6015  2.9439
   26MOL    H5910609   4.856   7.599   5.107 -0.1166 -0.5617 -2.6225
   26MOL    H6010610   4.857   7.837   5.132 -0.4854 -0.1182 -0.2595
   26MOL    H6110611   4.658   0.002   5.054  3.9042  0.1251  1.1671
   26MOL    H6210612   4.469   7.873   4.947 -0.0334  0.1619 -0.3589
   26MOL    H6310613   4.079   7.288   4.937 -0.2991 -0.0107 -1.5402
   26MOL    H6410614   4.100   7.366   4.796 -0.1482  0.8791  0.6375
   26MOL    C6510615   4.278   7.262   4.860  0.3175  0.5236  0.2385
   26MOL    O6610616   4.237   7.131   4.817  0.1871  0.1056 -0.0748
   26MOL    C6710617   4.232   7.048   4.925 -0.8256  0.4100  0.5587
   26MOL    O6810618   4.362   7.009   4.965 -0.3576 -0.5722  0.3540
   26MOL    C6910619   4.428   6.915   4.885 -0.6229  0.5045 -0.2207
   26MOL    C7010620   4.524   6.831   4.946 -0.1401 -0.3741  0.1281
   26MOL    C7110621   4.591   6.734   4.865 -0.5505 -0.0143 -0.1380
   26MOL    C7210622   4.560   6.722   4.728  0.3479  0.1933 -0.4356
   26MOL    C7310623   4.483   6.819   4.666  0.1699 -0.9811 -0.2585
   26MOL    C7410624   4.407   6.905   4.746  0.4803  0.0484  1.3310
   26MOL    C7510625   4.366   7.323   4.748  0.4469  0.6900  0.5919
   26MOL    H7610626   4.335   7.264   4.952 -0.6947  1.9471  0.8633
   26MOL    H7710627   4.184   6.957   4.887  0.0856  0.8036 -1.6280
   26MOL    H7810628   4.185   7.086   5.015  0.9063  0.2945  1.5436
   26MOL    H7910629   4.547   6.852   5.049 -1.4278 -0.4191  0.4355
   26MOL    H8010630   4.668   6.673   4.909 -1.5638 -0.5005  1.0112
   26MOL    H8110631   4.616   6.659   4.660 -2.2841  0.2990 -2.8068
   26MOL    H8210632   4.474   6.815   4.559 -1.1174 -2.0923 -0.1290
   26MOL    H8310633   4.330   6.960   4.694  3.0029  2.0354 -0.4280
   26MOL    H8410634   4.314   7.305   4.654  3.5615  2.1250 -1.4879
   26MOL    H8510635   4.382   7.430   4.757  1.2011  0.8859 -2.5434
   26MOL    C8610636   4.508   7.260   4.718  0.5209  0.2662  1.1853
   26MOL    O8710637   4.531   7.275   4.572 -0.3756 -0.2145 -0.4577
   26MOL    C8810638   4.533   7.156   4.500 -0.6424 -0.4512 -0.1784
   26MOL    O8910639   4.415   7.087   4.504  0.0968 -0.6104 -0.5476
   26MOL    C9010640   4.303   7.137   4.438 -0.1987 -0.3437  0.5699
   26MOL    C9110641   4.185   7.069   4.463  0.9075  0.5578 -0.8290
   26MOL    C9210642   4.066   7.103   4.392  0.5303  0.0843  0.7678
   26MOL    C9310643   4.070   7.213   4.303 -0.6601 -0.3079  0.2848
   26MOL    C9410644   4.191   7.278   4.267 -0.1326 -0.0388 -0.1939
   26MOL    C9510645   4.307   7.237   4.336 -0.0625  0.1165  0.1507
   26MOL    C9610646   4.612   7.337   4.800  0.3914 -0.8916 -0.3035
   26MOL    H9710647   4.502   7.157   4.754  2.4531  0.1127  1.1345
   26MOL    H9810648   4.607   7.081   4.528 -1.5334 -1.2718 -0.0122
   26MOL    H9910649   4.555   7.192   4.399 -2.2669  1.0645 -0.0143
   26MOL   H10010650   4.177   6.995   4.542  1.3281 -0.7566 -2.0028
   26MOL   H10110651   3.980   7.044   4.418  1.0482 -0.4987  1.1939
   26MOL   H10210652   3.979   7.250   4.258 -0.4930 -0.7799 -0.4371
   26MOL   H10310653   4.174   7.355   4.192 -1.5421 -0.7088 -0.5781
   26MOL   H10410654   4.397   7.292   4.315 -0.4865  1.6404  2.0804
   26MOL   H10510655   4.601   7.441   4.768  0.1619 -1.3331 -1.6729
   26MOL   H10610656   4.581   7.332   4.905 -0.0512 -0.5185 -0.4150
   26MOL   C10710657   4.754   7.282   4.783 -0.7390  0.3392  0.2044
   26MOL   O10810658   4.837   7.380   4.840  0.5863 -0.6288 -0.0746
   26MOL   C10910659   4.898   7.458   4.746 -0.7886 -0.3145  0.3167
   26MOL   O11010660   4.958   7.569   4.810 -0.7803 -0.0145  0.2339
   26MOL   C11110661   5.065   7.562   4.891 -0.2108  0.4820 -0.4027
   26MOL   C11210662   5.091   7.666   4.985 -0.2915 -0.5236 -0.2234
   26MOL   C11310663   5.212   7.665   5.047 -0.3044  0.1477 -0.0007
   26MOL   C11410664   5.292   7.554   5.043 -0.0420  0.0479 -0.0989
   26MOL   C11510665   5.259   7.440   4.968 -0.0330 -0.5702 -0.4558
   26MOL   C11610666   5.147   7.448   4.886 -0.3453  0.2155  0.1888
   26MOL   C11710667   4.773   7.164   4.877  0.0019  0.7411  0.0084
   26MOL   H11810668   4.774   7.249   4.681  0.3659  0.2798  0.4317
   26MOL   H11910669   4.814   7.491   4.686 -0.7669 -2.2647 -0.8254
   26MOL   H12010670   4.977   7.422   4.680  1.4494 -0.5393  3.0030
   26MOL   H12110671   5.030   7.756   4.986  1.8051  0.9373  0.0669
   26MOL   H12210672   5.247   7.747   5.107  0.4535 -1.4996  1.8881
   26MOL   H12310673   5.374   7.562   5.113 -1.9022 -0.0343  2.1573
   26MOL   H12410674   5.320   7.350   4.965 -0.2576 -0.7835  1.2227
   26MOL   H12510675   5.136   7.365   4.817  1.1903  0.3619 -0.2448
   26MOL   H12610676   4.691   7.099   4.846  0.8705 -0.4691  0.1862
   26MOL   H12710677   4.746   7.203   4.975 -1.0798 -1.3862  0.6055
   26MOL   C12810678   4.919   7.105   4.870 -0.5311 -0.2569  0.3596
   26MOL   O12910679   4.935   7.062   4.731  0.9742 -0.1832 -0.5190
   26MOL   C13010680   5.068   7.054   4.674  0.4301 -0.3792 -0.7047
   26MOL   O13110681   5.134   6.949   4.731  0.4356 -0.5173  0.2307
   26MOL   C13210682   5.086   6.820   4.702  0.8738 -0.2443  0.2251
   26MOL   C13310683   5.171   6.716   4.751 -0.1442 -1.3994  0.6249
   26MOL   C13410684   5.138   6.582   4.719  0.0030 -0.4998 -0.7790
   26MOL   C13510685   5.017   6.550   4.657  0.1266  0.3466 -0.5451
   26MOL   C13610686   4.933   6.652   4.607  0.8191 -0.2068 -0.3826
   26MOL   C13710687   4.971   6.787   4.627  0.0906 -0.0304  0.5431
   26MOL   C13810688   4.953   6.992   4.972  1.0161  0.2805  0.2397
   26MOL   H13910689   4.979   7.194   4.888  0.0061 -0.5830  0.2181
   26MOL   H14010690   5.130   7.137   4.707  1.2963 -1.8889  1.6029
   26MOL   H14110691   5.080   7.052   4.566 -0.9722 -1.8221 -0.8493
   26MOL   H14210692   5.270   6.737   4.789  0.4824 -0.8262 -1.2565
   26MOL   H14310693   5.210   6.512   4.760 -0.2527  0.0961  0.7052
   26MOL   H14410694   4.977   6.451   4.641 -0.6920  0.9624 -2.4459
   26MOL   H14510695   4.845   6.629   4.550  1.2416 -1.0794 -0.6995
   26MOL   H14610696   4.908   6.865   4.589  0.7772  0.6615  0.8160
   26MOL   H14710697   4.888   6.905   4.967  0.6711  0.2796  3.7939
   26MOL   H14810698   5.045   6.947   4.935  0.9759  0.9481 -0.7238
   26MOL   C14910699   4.937   7.027   5.121  0.4986  0.0302  0.0677
   26MOL   O15010700   4.956   6.905   5.191  0.0722  0.6033 -0.9878
   26MOL   C15110701   4.836   6.856   5.251 -0.0388  0.2955  0.2424
   26MOL   O15210702   4.859   6.732   5.295  0.2723  0.6927 -0.0055
   26MOL   C15310703   4.859   6.639   5.198  0.3227 -0.0329 -0.3141
   26MOL   C15410704   4.960   6.638   5.106  0.7494  0.0458 -0.0525
   26MOL   C15510705   4.955   6.538   5.003 -0.1200 -0.3815 -1.5221
   26MOL   C15610706   4.842   6.458   4.995 -0.1113  0.7755  0.1883
   26MOL   C15710707   4.729   6.468   5.079  0.1188 -0.9483 -0.5071
   26MOL   C15810708   4.744   6.561   5.187  0.8227  0.6696  0.6832
   26MOL   C15910709   5.040   7.128   5.174 -0.4522  0.2693  0.5823
   26MOL   H16010710   4.836   7.069   5.127 -0.1718 -1.2430 -1.7957
   26MOL   H16110711   4.809   6.916   5.338 -0.2945 -0.9945  1.0695
   26MOL   H16210712   4.763   6.848   5.171  1.0297 -0.1410 -0.7115
   26MOL   H16310713   5.051   6.691   5.130  0.7381  0.5506 -1.0803
   26MOL   H16410714   5.049   6.520   4.953  0.7276  0.9985 -0.4712
   26MOL   H16510715   4.850   6.387   4.914  1.0928  0.7924  0.2775
   26MOL   H16610716   4.642   6.405   5.069 -1.2832  0.5769  1.7085
   26MOL   H16710717   4.680   6.568   5.275  1.8030 -2.4157  1.7074
   26MOL   H16810718   5.031   7.219   5.116 -2.0037 -1.2289 -1.6014
   26MOL   H16910719   5.142   7.093   5.160 -0.6944 -0.5946  0.9127
   26MOL   C17010720   5.033   7.159   5.321  0.3369 -0.3781  0.3301
   26MOL   O17110721   5.158   7.206   5.376 -0.1441 -0.0472  0.1525
   26MOL   C17210722   5.231   7.112   5.455 -0.6876  1.5831 -0.4131
   26MOL   O17310723   5.337   7.161   5.525  0.1384  1.0012  0.1549
   26MOL   C17410724   5.452   7.184   5.462 -0.0644  0.4411  0.3097
   26MOL   C17510725   5.478   7.177   5.321 -0.0514  0.0717 -0.6434
   26MOL   C17610726   5.609   7.198   5.273 -0.0426 -0.5553  0.0364
   26MOL   C17710727   5.714   7.222   5.361  0.5156 -0.4181 -0.0569
   26MOL   C17810728   5.681   7.230   5.496 -0.0447  0.3576 -0.0669
   26MOL   C17910729   5.555   7.210   5.549  0.2139  0.0010 -0.4806
   26MOL   C18010730   4.949   7.284   5.340  0.0847  0.0615 -0.4163
   26MOL   H18110731   4.999   7.076   5.384  0.2528 -0.1184  0.6255
   26MOL   H18210732   5.250   7.018   5.403 -2.1664  0.6481  0.6967
   26MOL   H18310733   5.161   7.076   5.531  0.2650 -0.9622 -0.7008
   26MOL   H18410734   5.394   7.157   5.255 -1.3337  3.7116 -0.2650
   26MOL   H18510735   5.638   7.183   5.170 -1.0514 -2.2766 -0.0120
   26MOL   H18610736   5.814   7.231   5.322  0.3333 -2.0818 -0.9916
   26MOL   H18710737   5.758   7.248   5.570  1.1635  1.1792 -1.4698
   26MOL   H18810738   5.542   7.224   5.656 -1.8933 -1.6153 -0.4908
   26MOL   H18910739   5.018   7.367   5.328 -0.9785  1.0330  0.0895
   26MOL   H19010740   4.873   7.300   5.263  0.1923 -2.4217 -1.0935
   26MOL   C19110741   4.881   7.277   5.481  0.6656  0.2185  0.0740
   26MOL   O19210742   4.783   7.177   5.480 -0.9910 -0.1982  0.4237
   26MOL   C19310743   4.779   7.088   5.586  0.3906 -0.4473 -0.4580
   26MOL   O19410744   4.852   6.970   5.557 -0.4244  0.1644  0.0559
   26MOL   C19510745   4.848   6.876   5.657  0.1007 -0.4780 -0.3016
   26MOL   C19610746   4.914   6.751   5.635 -0.8006  0.1470  0.4344
   26MOL   C19710747   4.914   6.652   5.739  0.0940 -0.0592  0.8538
   26MOL   C19810748   4.850   6.670   5.856  0.2504  0.4998 -0.0392
   26MOL   C19910749   4.777   6.792   5.880 -0.6796 -0.4422  0.0581
   26MOL   C20010750   4.781   6.895   5.782  0.7796 -0.2840 -0.7534
   26MOL   C20110751   4.819   7.413   5.511 -0.1543  0.1085  0.0943
   26MOL   H20210752   4.957   7.260   5.557  3.1284  1.6756 -1.9917
   26MOL   H20310753   4.674   7.069   5.607  0.4502  2.7272  3.3319
   26MOL   H20410754   4.818   7.136   5.676 -1.3838 -2.4045  1.3996
   26MOL   H20510755   4.962   6.724   5.542 -1.1784  3.0872 -0.6551
   26MOL   H20610756   4.965   6.558   5.726  1.4686  0.8943 -0.9449
   26MOL   H20710757   4.867   6.589   5.926 -1.6358 -0.9053 -1.1568
   26MOL   H20810758   4.736   6.810   5.979  0.6375 -0.7826  0.6813
   26MOL   H20910759   4.750   6.993   5.814  2.9226  1.3741 -3.4773
   26MOL   H21010760   4.773   7.439   5.415 -0.6208 -0.8385  0.0558
   26MOL   H21110761   4.739   7.410   5.585 -0.7044 -0.0160 -0.4933
   26MOL   C21210762   4.916   7.531   5.541 -0.9438  0.2431 -0.3904
   26MOL   O21310763   4.847   7.646   5.588  0.4218  0.9861 -0.0076
   26MOL   C21410764   4.803   7.729   5.489 -0.0113  0.1019  0.2330
   26MOL   O21510765   4.683   7.694   5.423 -0.5091  0.2491  0.4096
   26MOL   C21610766   4.562   7.710   5.484  0.3571  0.5676 -0.4059
   26MOL   C21710767   4.549   7.684   5.622 -0.0573  1.1902 -0.1100
   26MOL   C21810768   4.417   7.683   5.676 -0.1300 -0.1958 -0.1623
   26MOL   C21910769   4.309   7.720   5.601  0.4228  0.9913  0.3346
   26MOL   C22010770   4.322   7.763   5.465 -0.1516 -0.2575  1.0073
   26MOL   C22110771   4.454   7.755   5.404 -0.0511 -0.2412 -0.0583
   26MOL   C22210772   5.010   7.512   5.660 -0.2901  0.1587  0.1488
   26MOL   H22310773   4.976   7.552   5.452  0.7576 -1.8065  0.2267
   26MOL   H22410774   4.878   7.737   5.411 -0.0634  0.1632  0.1899
   26MOL   H22510775   4.790   7.829   5.529 -0.1874  0.5525 -0.9338
   26MOL   H22610776   4.643   7.662   5.670 -0.6796  2.2790  1.6487
   26MOL   H22710777   4.402   7.662   5.781  2.4062  0.7847  0.4215
   26MOL   H22810778   4.210   7.706   5.642 -0.6843  0.9497 -2.2613
   26MOL   H22910779   4.236   7.796   5.408 -0.0017  0.7010  1.3208
   26MOL   H23010780   4.470   7.782   5.300  1.2549 -0.0606  0.1889
   26MOL   H23110781   4.962   7.534   5.755  0.4992 -1.0076  0.8284
   26MOL   H23210782   5.046   7.410   5.675  1.4194  0.5440 -1.1347
   26MOL   C23310783   5.130   7.603   5.648 -0.2378  0.1146  0.5764
   26MOL   O23410784   5.194   7.564   5.527 -0.8485  0.0583  0.4389
   26MOL   C23510785   5.279   7.456   5.524 -0.4375 -0.0086  0.6902
   26MOL   O23610786   5.398   7.486   5.587  0.5111  0.0706  0.2701
   26MOL   C23710787   5.480   7.574   5.518  0.7796 -0.3395  0.1356
   26MOL   C23810788   5.441   7.654   5.409  0.2262  0.5102 -0.6316
   26MOL   C23910789   5.536   7.718   5.330  0.3042 -0.6880  0.0899
   26MOL   C24010790   5.673   7.715   5.375  0.0226 -0.0562 -0.5404
   26MOL   C24110791   5.712   7.643   5.489  0.2686  0.3964 -0.3238
   26MOL   C24210792   5.618   7.567   5.556  0.2045  0.7026  0.6218
   26MOL   C24310793   5.097   7.757   5.637  0.2498  0.1993  0.2513
   26MOL   H24410794   5.198   7.586   5.731 -1.2694  3.4715  2.1747
   26MOL   H24510795   5.294   7.421   5.422 -0.5711 -0.0412  0.6817
   26MOL   H24610796   5.232   7.370   5.571  1.1785 -0.1387  2.1626
   26MOL   H24710797   5.338   7.652   5.378 -0.2747  1.1822  0.9536
   26MOL   H24810798   5.511   7.769   5.238 -1.2449 -2.1884 -0.3615
   26MOL   H24910799   5.741   7.780   5.323  2.0984 -0.9361  1.0000
   26MOL   H25010800   5.817   7.645   5.518  0.5578  0.8230 -1.3955
   26MOL   H25110801   5.641   7.497   5.635 -0.0268 -0.3326 -0.2248
   26MOL   H25210802   5.066   7.786   5.537 -1.2126  0.9904  0.9138
   26MOL   H25310803   5.011   7.779   5.700  0.3190  1.4092 -0.0706
   26MOL   C25410804   5.201   7.857   5.698  0.3867  0.1066  0.1851
   26MOL   O25510805   5.326   7.831   5.645 -0.3817  0.2667 -0.3671
   26MOL   C25610806   5.432   7.812   5.728  0.2303  0.0609  0.6192
   26MOL   O25710807   5.437   7.921   5.820  0.9331  0.1163  0.2377
   26MOL   C25810808   5.556   7.962   5.866 -0.1865  0.0919  0.0897
   26MOL   C25910809   5.580   0.121   5.903  0.2732  0.1285  0.4836
   26MOL   C26010810   5.699   0.163   5.965 -0.2557 -0.2894 -0.3987
   26MOL   C26110811   5.806   0.069   5.982  1.0110  0.1678 -0.3751
   26MOL   C26210812   5.786   7.909   5.940 -0.2312  0.2015  0.1937
   26MOL   C26310813   5.666   7.871   5.883  0.6661  0.6635  0.0467
   26MOL   C26410814   5.156   0.029   5.666 -0.4996 -0.7088 -0.1061
   26MOL   H26510815   5.204   7.836   5.805  0.6776  1.2794  0.4201
   26MOL   H26610816   5.517   7.802   5.661 -1.0191 -3.5441 -0.5488
   26MOL   H26710817   5.400   7.722   5.781  1.5746  0.2161  1.7445
   26MOL   H26810818   5.495   0.187   5.893 -0.5211 -1.1381 -1.3036
   26MOL   H26910819   5.713   0.264   6.001 -2.6531 -0.5317  1.3163
   26MOL   H27010820   5.895   0.108   6.031  2.1521 -1.9749 -0.6893
   26MOL   H27110821   5.865   7.835   5.946 -1.4108 -0.9568  1.7705
   26MOL   H27210822   5.656   7.768   5.851  0.7180  0.7193 -0.1457
   26MOL   H27310823   5.079   0.056   5.738  1.6199 -1.6596  2.5687
   26MOL   H27410824   5.232   0.098   5.701 -1.8281  0.3527  0.7229
   26MOL   C27510825   5.116   0.077   5.522  0.0301  0.2760 -0.5038
   26MOL   O27610826   5.104   0.217   5.505 -0.2953 -0.4628  0.0125
   26MOL   C27710827   4.979   0.269   5.518  0.5775  0.1474 -0.4364
   26MOL   O27810828   4.894   0.213   5.420  0.3305 -0.3325 -0.4082
   26MOL   C27910829   4.757   0.219   5.449 -0.8277 -0.5511  1.0008
   26MOL   C28010830   4.689   0.299   5.545 -0.4578 -0.1649 -0.2976
   26MOL   C28110831   4.558   0.274   5.587 -0.3142  0.0207 -0.2787
   26MOL   C28210832   4.476   0.190   5.502 -0.3683  0.1036 -0.3817
   26MOL   C28310833   4.533   0.122   5.397 -0.0010 -0.0412 -0.1549
   26MOL   C28410834   4.674   0.141   5.370 -0.1726 -1.4825 -0.0666
   26MOL   C28510835   5.224   0.036   5.422  0.8256  0.3763 -0.4031
   26MOL   H28610836   5.030   0.014   5.498  0.2421  0.3823 -1.5619
   26MOL   H28710837   4.997   0.376   5.518  2.6039 -0.1782 -1.1425
   26MOL   H28810838   4.937   0.245   5.616  1.6773  2.0963  0.5449
   26MOL   H28910839   4.756   0.362   5.602  0.9876 -1.7345 -0.1901
   26MOL   H29010840   4.502   0.324   5.665 -0.6067 -0.3332 -0.2581
   26MOL   H29110841   4.369   0.180   5.512 -0.6132  2.1015 -0.7515
   26MOL   H29210842   4.472   0.067   5.327  0.2626 -1.6363  0.8366
   26MOL   H29310843   4.721   0.104   5.280  0.9922 -0.3794  0.0654
   26MOL   H29410844   5.232   7.904   5.406  1.0200  0.7127 -2.8216
   26MOL   H29510845   5.317   0.069   5.468  1.4588 -1.8125 -0.0240
   26MOL   C29610846   5.221   0.086   5.276  0.6692  0.2599 -0.3926
   26MOL   O29710847   5.326   0.014   5.213  0.4360  0.4111 -0.4830
   26MOL   C29810848   5.432   0.101   5.207 -0.4646  0.6243 -0.2745
   26MOL   O29910849   5.434   0.184   5.093  0.0396  0.1999 -0.2193
   26MOL   C30010850   5.550   0.262   5.078 -0.1993  1.2643  0.0465
   26MOL   C30110851   5.595   0.267   4.948  0.0658  0.9973  0.3252
   26MOL   C30210852   5.706   0.353   4.920  0.3268  0.5517  0.0680
   26MOL   C30310853   5.771   0.427   5.020  0.1215  0.2811 -0.7225
   26MOL   C30410854   5.720   0.418   5.153 -0.1926 -0.2166 -0.0835
   26MOL   C30510855   5.608   0.335   5.183 -0.4364  0.5049  0.1221
   26MOL   C30610856   5.093   0.067   5.202 -0.4681  0.6382  0.0962
   26MOL   H30710857   5.241   0.191   5.301  0.2139  0.0635  0.8595
   26MOL   H30810858   5.510   0.026   5.192 -2.1799 -1.4062  0.7623
   26MOL   H30910859   5.451   0.146   5.304 -1.0469  0.4516 -0.0825
   26MOL   H31010860   5.541   0.224   4.864 -1.7835  1.4622  1.2425
   26MOL   H31110861   5.732   0.361   4.816 -2.1487 -0.4947 -0.6538
   26MOL   H31210862   5.854   0.492   4.997 -0.0120  1.0578  0.9168
   26MOL   H31310863   5.772   0.466   5.235 -1.5826  1.5989 -0.2459
   26MOL   H31410864   5.574   0.325   5.285 -0.7079 -1.1742 -0.1085
   26MOL   H31510865   5.011   0.099   5.266  0.4851  1.7338  0.7822
   26MOL   H31610866   5.080   7.937   5.176 -0.2993  0.7650 -0.5235
   26MOL   C31710867   5.086   0.154   5.070  0.2847 -0.0055  0.3349
   26MOL   O31810868   4.948   0.160   5.037 -0.2546 -0.1172 -0.0403
   26MOL   C31910869   4.883   0.270   5.090  0.7641 -0.2705 -0.5188
   26MOL   O32010870   4.906   0.385   5.012 -0.2874 -0.1515 -0.9214
   26MOL   C32110871   4.842   0.393   4.894  0.5040  0.1610  0.1290
   26MOL   C32210872   4.844   0.516   4.827 -0.0152  0.6482  0.3924
   26MOL   C32310873   4.774   0.535   4.703  0.0835  0.3406  0.8869
   26MOL   C32410874   4.705   0.426   4.649  0.5395 -0.5360  0.2987
   26MOL   C32510875   4.710   0.300   4.711  0.0823  0.0289  0.1716
   26MOL   C32610876   4.779   0.280   4.831  0.1743  0.0334  0.2682
   26MOL   C32710877   5.152   0.083   4.949  0.3758  0.1721  0.5279
   26MOL   H32810878   5.133   0.250   5.093  0.6467 -0.4300  1.4199
   26MOL   H32910879   4.920   0.295   5.189  2.0945 -0.8834 -0.8407
   26MOL   H33010880   4.776   0.257   5.106  1.0819 -0.9883  1.0755
   26MOL   H33110881   4.891   0.602   4.872  1.7967  0.2675 -0.7175
   26MOL   H33210882   4.788   0.627   4.648 -0.8065 -0.2642 -0.3877
   26MOL   H33310883   4.660   0.426   4.551  1.3820  1.9246 -0.1151
   26MOL   H33410884   4.675   0.212   4.659 -2.3636  0.7467  0.5234
   26MOL   H33510885   4.784   0.180   4.871 -0.6874 -0.6529 -1.3029
   26MOL   H33610886   5.255   0.054   4.969  0.9116  1.2103 -0.6090
   26MOL   H33710887   5.111   7.959   4.933  1.4531 -0.2965  0.6062
   26MOL   C33810888   5.151   0.176   4.823  0.1740  0.2793 -0.2519
   26MOL   O33910889   5.262   0.262   4.831  0.5025 -0.5761 -0.0918
   26MOL   C34010890   5.226   0.390   4.862 -0.5211  0.7320  0.1994
   26MOL   O34110891   5.201   0.467   4.750 -0.1079  0.8731  0.0413
   26MOL   C34210892   5.174   0.602   4.768  0.8809  0.4670  0.2660
   26MOL   C34310893   5.181   0.670   4.889 -0.7221 -0.0143  0.0217
   26MOL   C34410894   5.180   0.816   4.896 -0.3130  0.6110  0.8313
   26MOL   C34510895   5.167   0.883   4.772  0.3976 -0.6005  0.3446
   26MOL   C34610896   5.163   0.817   4.647  0.7660 -0.9888 -0.3486
   26MOL   C34710897   5.162   0.674   4.644  0.5018  0.1164 -0.6844
   26MOL   C34810898   5.185   0.103   4.692  0.3991 -0.1321 -0.2520
   26MOL   H34910899   5.057   0.228   4.805  0.2963  0.1726 -1.2208
   26MOL   H35010900   5.318   0.425   4.909  0.1220 -0.7299  0.0526
   26MOL   H35110901   5.145   0.391   4.935 -1.1153 -0.6154 -0.4349
   26MOL   H35210902   5.194   0.621   4.985  0.0650  3.0758  1.5452
   26MOL   H35310903   5.186   0.867   4.991 -0.6790 -0.3833  1.4072
   26MOL   H35410904   5.165   0.991   4.767 -1.4284 -0.7027 -4.4109
   26MOL   H35510905   5.151   0.869   4.553  0.9951  2.4067  1.4056
   26MOL   H35610906   5.151   0.609   4.558 -1.3218  0.7739 -0.9830
   26MOL   H35710907   5.128   0.012   4.675 -1.5662  0.8195  1.0327
   26MOL   H35810908   5.288   0.067   4.688  0.4405 -0.5248  3.0314
   26MOL   C35910909   5.174   0.191   4.566  0.2975 -0.0731 -0.1363
   26MOL   O36010910   5.039   0.234   4.557  0.0939  0.8560 -0.1467
   26MOL   C36110911   5.016   0.362   4.505  0.0667  1.0085 -0.3181
   26MOL   O36210912   5.085   0.397   4.389  0.0540  0.0291  0.5967
   26MOL   C36310913   5.053   0.520   4.334  0.4421 -0.1799  0.2307
   26MOL   C36410914   5.135   0.561   4.226 -0.1905  0.6352 -0.0669
   26MOL   C36510915   5.121   0.692   4.176 -0.6040 -0.0217  0.3847
   26MOL   C36610916   5.017   0.769   4.223 -0.7117 -0.0889 -0.3658
   26MOL   C36710917   4.919   0.718   4.312  0.0141 -0.3502  0.2519
   26MOL   C36810918   4.944   0.595   4.372 -0.2858  1.0014  0.1130
   26MOL   C36910919   5.217   0.110   4.437 -0.5469 -0.5578 -0.0638
   26MOL   H37010920   5.237   0.279   4.579  1.2906 -0.9540  1.0609
   26MOL   H37110921   5.033   0.434   4.585 -1.6485 -0.3099  1.3169
   26MOL   H37210922   4.908   0.360   4.494  0.0114 -0.1362  0.2610
   26MOL   H37310923   5.219   0.501   4.194  0.0520  1.3890 -0.8950
   26MOL   H37410924   5.186   0.733   4.100 -2.0255 -1.4157 -1.6085
   26MOL   H37510925   5.004   0.872   4.191 -0.0199  0.1374  0.0679
   26MOL   H37610926   4.836   0.776   4.350 -0.4661 -0.1204 -1.1289
   26MOL   H37710927   4.888   0.562   4.459  0.9796 -0.2849  0.4610
   26MOL   H37810928   5.198   0.168   4.347 -0.8785  1.1988  1.1172
   26MOL   H37910929   5.151   0.024   4.436  2.2771 -2.8263  0.5266
   26MOL   C38010930   5.356   0.049   4.437  0.2520  0.6583  0.1467
   26MOL   O38110931   5.387   7.919   4.525 -0.7336  0.0897 -0.0387
   26MOL   C38210932   5.338   7.791   4.499 -0.0452  0.3444 -0.3481
   26MOL   O38310933   5.393   7.736   4.386 -0.1518  0.4819 -0.2823
   26MOL   C38410934   5.500   7.653   4.407 -0.3604 -0.4358 -0.2836
   26MOL   C38510935   5.509   7.531   4.335  0.0523 -0.0263 -0.0075
   26MOL   C38610936   5.606   7.434   4.370  0.2595  0.7813 -0.1932
   26MOL   C38710937   5.716   7.464   4.455 -0.6745 -0.4862  0.4419
   26MOL   C38810938   5.712   7.586   4.525  0.3454 -0.4954  0.2164
   26MOL   C38910939   5.596   7.673   4.510 -0.1842  0.1696  0.2777
   26MOL   C39010940   5.465   0.155   4.469  0.1276  0.0605  0.1801
   26MOL   H39110941   5.380   0.023   4.334 -0.8997 -1.3360  0.3499
   26MOL   H39210942   5.342   7.726   4.586  0.0592 -0.5637 -1.0139
   26MOL   H39310943   5.233   7.797   4.474 -0.5682  3.2239  2.3007
   26MOL   H39410944   5.433   7.514   4.259 -0.2033 -0.1137  0.2691
   26MOL   H39510945   5.600   7.339   4.319 -0.8750  0.1398  1.0961
   26MOL   H39610946   5.799   7.398   4.475  0.4365  0.2310 -1.6852
   26MOL   H39710947   5.794   7.608   4.592  1.2392 -0.4059 -0.8949
   26MOL   H39810948   5.600   7.764   4.569 -1.0435 -0.6137  1.5377
   26MOL   H39910949   5.561   0.115   4.438 -0.7658 -2.1478  0.1374
   26MOL   H40010950   5.469   0.177   4.575 -1.9227  0.6586  0.1596
   26MOL   C40110951   5.458   0.286   4.391 -0.3550 -0.2263 -0.5351
   26MOL   O40210952   5.556   0.375   4.439  0.6746 -0.1853 -0.0853
   26MOL   C40310953   5.512   0.477   4.530 -0.1122 -0.3822 -0.3646
   26MOL   O40410954   5.449   0.581   4.451  0.2374  0.4852  0.0648
   26MOL   C40510955   5.531   0.648   4.358  0.3288  0.2417 -0.4840
   26MOL   C40610956   5.464   0.758   4.294  0.1918  0.0328 -0.3068
   26MOL   C40710957   5.529   0.826   4.191  0.0588  0.6426  0.1751
   26MOL   C40810958   5.667   0.809   4.162  0.1302 -0.0959 -0.4756
   26MOL   C40910959   5.730   0.713   4.239  0.2835  0.5487  0.3505
   26MOL   C41010960   5.664   0.627   4.327  0.4055  0.0813 -0.0293
   26MOL   C41110961   5.500   0.273   4.243  0.7801  0.0612 -0.1139
   26MOL   H41210962   5.364   0.341   4.393  1.3638  2.8793 -1.2502
   26MOL   H41310963   5.596   0.519   4.586 -0.7028 -0.5154  0.6366
   26MOL   H41410964   5.439   0.436   4.599  0.5162  1.6682  1.5754
   26MOL   H41510965   5.362   0.783   4.320  0.2551 -0.2535  0.2276
   26MOL   H41610966   5.473   0.907   4.146  0.4145  2.8109  3.4468
   26MOL   H41710967   5.720   0.878   4.097 -0.4940 -0.2915 -1.2054
   26MOL   H41810968   5.833   0.687   4.221 -0.1307 -1.7503  1.1245
   26MOL   H41910969   5.712   0.544   4.376 -2.2549 -2.0257 -0.8250
   26MOL   H42010970   5.490   0.367   4.189  1.7186  1.1629  1.5753
   26MOL   H42110971   5.420   0.218   4.192  1.7000 -0.3598 -1.1232
   26MOL   H42210972   5.596   0.223   4.227  0.0419 -0.3418 -3.8176
   27MOL     C110973   7.274   1.955   7.279 -0.5354  0.2681  0.1213
   27MOL     O210974   7.145   1.989   7.234 -0.1104 -0.5161  0.5342
   27MOL     C310975   7.061   2.020   7.343 -0.2308 -0.1376 -1.0269
   27MOL     O410976   7.104   2.138   7.412  0.0916 -1.0681  0.6190
   27MOL     C510977   7.125   2.260   7.348  0.2386 -1.0308  0.6935
   27MOL     C610978   7.089   2.280   7.217  0.3987  0.4879 -0.4883
   27MOL     C710979   7.093   2.405   7.152  0.3365  0.3218 -0.5014
   27MOL     C810980   7.138   2.513   7.231 -0.3919 -0.3097  0.6830
   27MOL     C910981   7.186   2.495   7.366 -0.5732 -0.2414 -0.1502
   27MOL    C1010982   7.180   2.367   7.426  0.3134 -0.0372 -0.1874
   27MOL    C1110983   7.354   1.912   7.153 -0.0180  0.7646  0.3199
   27MOL    H1210984   7.320   2.049   7.309 -2.3160  0.9938  0.6771
   27MOL    H1310985   6.959   2.032   7.306  0.1325 -1.4217 -2.5194
   27MOL    H1410986   7.054   1.940   7.416 -0.0541  0.3251 -0.5036
   27MOL    H1510987   7.043   2.197   7.165  0.8235  0.6280 -1.0907
   27MOL    H1610988   7.052   2.398   7.052 -1.9497  0.6875  0.3583
   27MOL    H1710989   7.136   2.613   7.189  1.5526  0.5818  2.5866
   27MOL    H1810990   7.226   2.576   7.425 -2.1808 -1.1153  2.2670
   27MOL    H1910991   7.200   2.358   7.532  0.5057  1.4576 -0.0932
   27MOL    H2010992   7.324   1.971   7.067  1.9686  1.3783  0.0386
   27MOL    H2110993   7.324   1.813   7.117 -0.0809  0.5867  0.8512
   27MOL    H2210994   7.291   1.876   7.352  2.8836  1.7247  1.0238
   27MOL    C2310995   7.504   1.909   7.175 -1.0174 -0.0681 -0.5356
   27MOL    O2410996   7.568   1.950   7.050 -0.8721 -0.1061 -0.6337
   27MOL    C2510997   7.596   2.086   7.040 -0.3977  0.8066 -0.0599
   27MOL    O2610998   7.656   2.125   6.924 -0.0824  0.1559  0.5164
   27MOL    C2710999   7.601   2.101   6.801  0.2117 -0.2136  0.2834
   27MOL    C2811000   7.679   2.138   6.690  0.0152 -0.3147  0.1153
   27MOL    C2911001   7.622   2.137   6.559 -0.5322 -0.2508 -0.1006
   27MOL    C3011002   7.490   2.088   6.538 -0.2377 -0.4601  0.4755
   27MOL    C3111003   7.417   2.033   6.647 -0.1988  0.6438 -0.2502
   27MOL    C3211004   7.475   2.037   6.777 -0.6595 -0.1749  0.2732
   27MOL    C3311005   7.567   1.772   7.218  0.3442  0.7597  0.1434
   27MOL    H3411006   7.526   1.987   7.248  1.2879 -0.0258 -1.2250
   27MOL    H3511007   7.666   2.110   7.120 -0.0782 -0.0686 -0.0713
   27MOL    H3611008   7.509   2.150   7.050 -1.1676 -0.1511 -0.5346
   27MOL    H3711009   7.774   2.186   6.709 -0.2527  0.2058  0.1406
   27MOL    H3811010   7.684   2.162   6.474  1.7552 -1.2130  1.2590
   27MOL    H3911011   7.443   2.062   6.444 -1.1598  2.4193  0.0862
   27MOL    H4011012   7.324   1.978   6.639  0.1315 -0.0163  0.4585
   27MOL    H4111013   7.422   2.000   6.864  0.1392  1.8760  1.6738
   27MOL    H4211014   7.529   1.766   7.320 -0.3552 -0.7660 -0.2008
   27MOL    H4311015   7.675   1.774   7.227  0.4395 -3.8114  0.9853
   27MOL    C4411016   7.522   1.638   7.141 -0.3025  0.0878 -0.1288
   27MOL    O4511017   7.443   1.569   7.232  0.3206 -0.1085 -0.4649
   27MOL    C4611018   7.336   1.488   7.171 -0.5355 -0.2243  0.0768
   27MOL    O4711019   7.373   1.372   7.100  0.2783 -0.2236  0.1603
   27MOL    C4811020   7.398   1.258   7.170 -0.4888 -0.0693  0.1544
   27MOL    C4911021   7.384   1.134   7.106 -0.2559  0.2278 -0.1656
   27MOL    C5011022   7.422   1.014   7.168  0.4447  0.2704  0.2798
   27MOL    C5111023   7.455   1.016   7.304  0.1695  0.0022  0.2419
   27MOL    C5211024   7.473   1.138   7.367 -0.2868 -0.2306  0.1790
   27MOL    C5311025   7.451   1.261   7.298  0.0610  0.1078 -0.4505
   27MOL    C5411026   7.644   1.538   7.115  0.2745  0.1091 -0.1905
   27MOL    H5511027   7.479   1.681   7.051 -1.4581  1.7990  1.1876
   27MOL    H5611028   7.282   1.552   7.100  2.0479  1.7699 -0.1297
   27MOL    H5711029   7.269   1.470   7.255  0.9804  0.4037  1.4420
   27MOL    H5811030   7.332   1.127   7.012 -0.2568  0.0190 -0.1480
   27MOL    H5911031   7.413   0.917   7.122  1.1777  0.7786 -0.9610
   27MOL    H6011032   7.461   0.924   7.360  0.7424  0.7729  1.4561
   27MOL    H6111033   7.505   1.142   7.470 -2.4890  0.3407  0.8588
   27MOL    H6211034   7.481   1.352   7.347  2.7191 -1.2237  0.5353
   27MOL    H6311035   7.721   1.551   7.190  0.5351  2.7932 -0.8685
   27MOL    H6411036   7.619   1.432   7.120  1.6934 -0.1987  0.7135
   27MOL    C6511037   7.728   1.560   6.991  0.5827  0.2076 -0.3227
   27MOL    O6611038   7.810   1.676   7.015 -0.3333  0.5259 -0.2586
   27MOL    C6711039   7.801   1.779   6.924 -0.0354 -0.6099 -0.5398
   27MOL    O6811040   7.900   1.768   6.821 -0.1319 -0.3840  0.4813
   27MOL    C6911041   0.049   1.822   6.843 -0.1686  0.0845  0.3003
   27MOL    C7011042   0.089   1.857   6.974 -0.2274  0.0158  0.0508
   27MOL    C7111043   0.209   1.920   6.997 -0.8248 -0.4171 -0.1262
   27MOL    C7211044   0.292   1.949   6.888 -0.4491 -0.0928  0.0678
   27MOL    C7311045   0.257   1.907   6.756  0.1151 -0.6255 -0.3296
   27MOL    C7411046   0.135   1.842   6.734 -0.8349  0.0497  0.4471
   27MOL    C7511047   7.827   1.447   6.947 -0.0068  0.2719 -0.2120
   27MOL    H7611048   7.670   1.566   6.899  0.4550 -0.2689 -0.2747
   27MOL    H7711049   7.804   1.881   6.962 -0.7161  0.0051 -2.0754
   27MOL    H7811050   7.701   1.782   6.880 -0.1838 -0.4156 -0.1885
   27MOL    H7911051   0.034   1.837   7.065 -0.9848  0.1206 -0.3816
   27MOL    H8011052   0.231   1.953   7.097  0.4267  0.6609 -0.7472
   27MOL    H8111053   0.385   2.002   6.904  0.5237 -1.4465 -1.0350
   27MOL    H8211054   0.321   1.925   6.671  0.9943 -0.0862  0.4359
   27MOL    H8311055   0.115   1.825   6.630  1.5875  0.7712 -0.1773
   27MOL    H8411056   7.915   1.488   6.898 -0.0929  1.5763  0.7107
   27MOL    H8511057   7.864   1.394   7.034  0.1508  0.2421 -0.2969
   27MOL    C8611058   7.779   1.337   6.846 -0.0438  0.7935  0.7854
   27MOL    O8711059   7.884   1.252   6.820  0.0664  0.2733 -0.1538
   27MOL    C8811060   7.966   1.285   6.714 -0.0341 -0.4541  0.1782
   27MOL    O8911061   0.099   1.196   6.711 -0.1072 -0.2845 -0.3309
   27MOL    C9011062   0.193   1.223   6.616  0.5098  0.7049  0.4385
   27MOL    C9111063   0.288   1.120   6.602  0.3886 -0.4967 -0.4406
   27MOL    C9211064   0.389   1.134   6.501 -0.1021  0.4901 -0.4156
   27MOL    C9311065   0.388   1.234   6.403 -0.1133  0.2568 -0.7185
   27MOL    C9411066   0.292   1.331   6.416  0.6464 -0.2065  0.9092
   27MOL    C9511067   0.194   1.332   6.521 -0.4533  0.1339  0.5246
   27MOL    C9611068   7.665   1.243   6.893  0.0515  0.0181  0.1833
   27MOL    H9711069   7.767   1.394   6.754  2.6364  1.2753  0.7177
   27MOL    H9811070   0.012   1.392   6.724  0.0403 -0.5008  0.5071
   27MOL    H9911071   7.901   1.267   6.629 -1.6927  0.9941  1.1142
   27MOL   H10011072   0.287   1.027   6.657 -0.4100 -0.4360 -0.3378
   27MOL   H10111073   0.467   1.061   6.487 -0.4896  0.1623 -0.8982
   27MOL   H10211074   0.472   1.240   6.334  2.5312 -0.4541  2.3286
   27MOL   H10311075   0.294   1.406   6.338  1.7275 -0.1208  1.0142
   27MOL   H10411076   0.119   1.410   6.521  0.0408  0.6174  0.9105
   27MOL   H10511077   7.706   1.176   6.968  1.3992 -0.6345 -1.1169
   27MOL   H10611078   7.594   1.307   6.946  1.9674 -0.1986  3.1595
   27MOL   C10711079   7.610   1.162   6.769  0.1215 -1.0805 -0.0103
   27MOL   O10811080   7.549   1.039   6.799  0.4467  0.5354 -0.0984
   27MOL   C10911081   7.643   0.942   6.828 -0.1213 -0.3543 -0.6359
   27MOL   O11011082   7.688   0.885   6.704 -0.4486 -0.3983  0.1035
   27MOL   C11111083   7.631   0.766   6.661 -0.0450  0.1702 -0.6443
   27MOL   C11211084   7.524   0.699   6.712  0.0662  0.6915 -0.4486
   27MOL   C11311085   7.474   0.581   6.648  0.5090  0.7664 -0.3683
   27MOL   C11411086   7.546   0.530   6.538 -0.0588 -0.3196  0.2123
   27MOL   C11511087   7.666   0.586   6.499  0.5374 -0.6644  0.3144
   27MOL   C11611088   7.702   0.709   6.557  0.7652 -0.6922 -0.1605
   27MOL   C11711089   7.511   1.254   6.693  0.1228  0.1405 -0.2575
   27MOL   H11811090   7.690   1.139   6.699  1.4451  1.7096  0.5174
   27MOL   H11911091   7.608   0.871   6.903  1.6959  0.1153  0.7161
   27MOL   H12011092   7.736   0.975   6.874 -0.5064 -1.1188  0.7134
   27MOL   H12111093   7.475   0.739   6.799 -0.8413 -0.1017 -0.5915
   27MOL   H12211094   7.379   0.540   6.680  0.9084 -0.0049 -0.1501
   27MOL   H12311095   7.520   0.436   6.493  0.4858 -1.1554  1.6368
   27MOL   H12411096   7.714   0.542   6.413 -1.8704 -0.4890 -1.1766
   27MOL   H12511097   7.792   0.756   6.520  0.2569 -0.4401 -1.0713
   27MOL   H12611098   7.572   1.336   6.656  0.1751  0.3941  0.3943
   27MOL   H12711099   7.446   1.300   6.767 -0.0379 -1.9599  0.9442
   27MOL   C12811100   7.420   1.182   6.581  0.6942  0.1226 -0.7090
   27MOL   O12911101   7.371   1.294   6.499 -0.0239 -0.2104 -0.4302
   27MOL   C13011102   7.436   1.317   6.381 -0.3147  0.2356 -0.9259
   27MOL   O13111103   7.560   1.375   6.395 -1.1724  0.0957  0.6643
   27MOL   C13211104   7.570   1.499   6.458  0.4076 -0.2033 -1.1911
   27MOL   C13311105   7.696   1.541   6.502  0.6772  0.0304  0.5976
   27MOL   C13411106   7.712   1.667   6.562 -0.4032 -0.3518 -0.5884
   27MOL   C13511107   7.602   1.750   6.588 -0.3628  0.0999  0.0448
   27MOL   C13611108   7.476   1.708   6.542  0.4841  0.5999 -0.1803
   27MOL   C13711109   7.457   1.586   6.482  0.2038 -0.0955 -0.0463
   27MOL   C13811110   7.287   1.121   6.634 -0.5585 -0.0776  0.4048
   27MOL   H13911111   7.474   1.112   6.516  0.6005  2.4005 -3.3179
   27MOL   H14011112   7.375   1.379   6.315 -1.2621  0.5014  0.1774
   27MOL   H14111113   7.448   1.219   6.335  2.5481  0.5228 -0.8551
   27MOL   H14211114   7.780   1.473   6.493  0.1549 -1.1094  3.8062
   27MOL   H14311115   7.812   1.696   6.590  0.6301 -1.4293 -3.0195
   27MOL   H14411116   7.612   1.836   6.654 -2.4779 -0.6411  1.4093
   27MOL   H14511117   7.384   1.758   6.571  0.9413  1.7763 -0.7193
   27MOL   H14611118   7.360   1.562   6.442  0.8965 -0.6477 -1.4240
   27MOL   H14711119   7.297   1.049   6.715 -1.4985 -0.5654  0.0931
   27MOL   H14811120   7.228   1.200   6.681 -1.1126  0.5149 -1.2468
   27MOL   C14911121   7.205   1.042   6.525 -0.0421 -0.0864 -0.5438
   27MOL   O15011122   7.272   0.918   6.520  0.0738 -0.5999 -0.1465
   27MOL   C15111123   7.292   0.864   6.390  0.5189  0.3374 -0.0460
   27MOL   O15211124   7.173   0.863   6.312  0.3373  0.1778  0.0517
   27MOL   C15311125   7.166   0.798   6.193 -0.0105  0.5767 -0.6882
   27MOL   C15411126   7.043   0.804   6.132  0.1650 -0.4680 -0.8162
   27MOL   C15511127   7.026   0.734   6.008  0.5354 -0.7950 -0.3764
   27MOL   C15611128   7.128   0.665   5.946 -0.0587  0.5614  0.3800
   27MOL   C15711129   7.256   0.658   6.009  0.1741  0.6181  1.0207
   27MOL   C15811130   7.273   0.723   6.131  0.1743  0.4933  0.4162
   27MOL   C15911131   7.059   1.019   6.564  0.1222  0.6542  0.0192
   27MOL   H16011132   7.207   1.081   6.423  3.0661 -1.7197 -1.1766
   27MOL   H16111133   7.360   0.924   6.329  1.0349 -1.1754 -0.9860
   27MOL   H16211134   7.317   0.759   6.396  0.2016  0.1050 -2.3778
   27MOL   H16311135   6.970   0.852   6.195  1.7463 -1.2489  1.6934
   27MOL   H16411136   6.926   0.726   5.967  1.1305 -2.5276 -1.5217
   27MOL   H16511137   7.116   0.638   5.842  2.4801  1.0036 -0.0732
   27MOL   H16611138   7.344   0.611   5.966 -0.5464 -1.0389  1.3471
   27MOL   H16711139   7.373   0.707   6.170  1.7511 -0.3861 -3.7538
   27MOL   H16811140   7.059   1.030   6.673  0.6684 -2.1064  0.3358
   27MOL   H16911141   7.038   0.915   6.543  0.3235  0.7385 -0.6127
   27MOL   C17011142   6.964   1.116   6.504 -0.3039  0.5460 -0.2066
   27MOL   O17111143   6.831   1.063   6.507  0.4797 -0.2481 -0.8209
   27MOL   C17211144   6.795   0.980   6.401 -0.6205 -0.2592 -0.8445
   27MOL   O17311145   6.662   0.943   6.397  0.3776 -0.4231 -0.0478
   27MOL   C17411146   6.618   0.849   6.483 -0.1364 -0.8111  0.4773
   27MOL   C17511147   6.485   0.816   6.475 -0.8234 -0.2726  0.4378
   27MOL   C17611148   6.426   0.714   6.548  0.1047 -0.2743 -0.6814
   27MOL   C17711149   6.508   0.645   6.643  0.0248 -0.6322 -0.0030
   27MOL   C17811150   6.639   0.684   6.668  0.0594  0.0512  0.4253
   27MOL   C17911151   6.690   0.786   6.587 -0.5023 -0.1541  0.2755
   27MOL   C18011152   6.959   1.252   6.582 -0.5201 -0.4219 -0.1998
   27MOL   H18111153   6.996   1.136   6.402  0.3280  1.4396  0.1577
   27MOL   H18211154   6.869   0.900   6.398  0.1948  0.5024 -1.1005
   27MOL   H18311155   6.811   1.036   6.309  1.9822  3.5520  1.8332
   27MOL   H18411156   6.423   0.873   6.407 -1.1592 -0.4722  0.5741
   27MOL   H18511157   6.324   0.688   6.525 -0.0543  0.6045 -1.0020
   27MOL   H18611158   6.467   0.562   6.699 -0.3296  2.4069  4.5602
   27MOL   H18711159   6.697   0.631   6.742 -2.4645  0.2064  2.6116
   27MOL   H18811160   6.792   0.809   6.615 -0.1090  0.0094 -1.2242
   27MOL   H18911161   6.932   1.241   6.687  1.8235 -1.7407  0.2924
   27MOL   H19011162   7.059   1.295   6.579 -1.0475  0.9248  1.1886
   27MOL   C19111163   6.871   1.348   6.509 -0.0616  0.4305 -0.3389
   27MOL   O19211164   6.944   1.407   6.402 -0.2414 -0.0735  0.1596
   27MOL   C19311165   6.886   1.428   6.282 -0.3980 -0.4762  0.5826
   27MOL   O19411166   6.830   1.314   6.230 -0.3383 -0.7214 -0.7897
   27MOL   C19511167   6.740   1.324   6.127 -0.1694 -1.0062 -0.1593
   27MOL   C19611168   6.737   1.442   6.043  0.4357 -0.0115  0.1220
   27MOL   C19711169   6.666   1.438   5.920  0.1349  0.6630  0.0719
   27MOL   C19811170   6.579   1.336   5.893 -0.4139 -0.0180 -0.2364
   27MOL   C19911171   6.581   1.222   5.980  0.1165 -0.8270 -0.1098
   27MOL   C20011172   6.659   1.219   6.094  0.9614  0.1259 -0.2949
   27MOL   C20111173   6.821   1.464   6.599 -0.5406  0.5850  0.1862
   27MOL   H20211174   6.786   1.300   6.459  0.0365  1.6679 -1.7316
   27MOL   H20311175   6.961   1.475   6.218 -3.0379  2.6621 -0.3698
   27MOL   H20411176   6.809   1.500   6.309 -0.5705 -0.8441  1.0698
   27MOL   H20511177   6.792   1.532   6.065 -2.0941  1.1268  2.0003
   27MOL   H20611178   6.660   1.529   5.862 -0.6134  0.8929  0.5004
   27MOL   H20711179   6.507   1.359   5.815 -2.4909  0.4702  1.7664
   27MOL   H20811180   6.514   1.140   5.958 -0.5720 -0.2083 -0.3225
   27MOL   H20911181   6.658   1.125   6.147  0.4992  0.9032  1.0840
   27MOL   H21011182   6.908   1.510   6.647 -1.0483  1.1029  0.6215
   27MOL   H21111183   6.791   1.544   6.531  0.6440  0.3922 -0.5817
   27MOL   C21211184   6.719   1.434   6.710  0.3679 -0.5097  0.5498
   27MOL   O21311185   6.729   1.536   6.807 -0.1136 -0.0594 -0.4247
   27MOL   C21411186   6.789   1.496   6.931  0.3570  0.2329 -0.0300
   27MOL   O21511187   6.915   1.440   6.907 -0.6079 -0.5645  0.7429
   27MOL   C21611188   7.023   1.524   6.896 -0.3476 -0.2524  0.0491
   27MOL   C21711189   7.027   1.662   6.932  0.1426 -0.6567  0.0438
   27MOL   C21811190   7.145   1.742   6.918 -0.2031 -0.3980 -0.0746
   27MOL   C21911191   7.261   1.683   6.869  0.5595 -0.0450 -0.0526
   27MOL   C22011192   7.253   1.544   6.832  0.2283 -1.0610  0.2861
   27MOL   C22111193   7.136   1.468   6.835 -0.4646 -0.1295 -0.0439
   27MOL   C22211194   6.571   1.446   6.660  0.1547 -0.6039 -0.7908
   27MOL   H22311195   6.736   1.332   6.744 -0.1376 -0.0223  2.3062
   27MOL   H22411196   6.734   1.412   6.974 -0.8562  1.0411  0.0178
   27MOL   H22511197   6.782   1.577   7.004  1.7544  0.6601 -0.3631
   27MOL   H22611198   6.938   1.711   6.970 -0.1968  0.2841 -1.9272
   27MOL   H22711199   7.148   1.848   6.935 -1.1103 -0.5273  1.0142
   27MOL   H22811200   7.343   1.747   6.842  0.8433  0.2198  1.4079
   27MOL   H22911201   7.343   1.489   6.808 -0.4252 -2.9753  2.1061
   27MOL   H23011202   7.136   1.362   6.815 -0.6620 -0.4569  1.6544
   27MOL   H23111203   6.552   1.552   6.639  1.2386 -0.0523  0.9378
   27MOL   H23211204   6.562   1.401   6.561  0.3746  0.5613 -1.3579
   27MOL   C23311205   6.457   1.402   6.753  0.0587  0.4588  0.9733
   27MOL   O23411206   6.336   1.388   6.673 -0.2179 -0.1061 -0.0941
   27MOL   C23511207   6.262   1.496   6.627  0.8204 -0.4014 -0.1393
   27MOL   O23611208   6.327   1.596   6.556  0.5078 -0.7886  0.9353
   27MOL   C23711209   6.358   1.581   6.421 -0.6713  0.0007 -0.4344
   27MOL   C23811210   6.380   1.700   6.350 -0.0772 -0.0115  0.3018
   27MOL   C23911211   6.407   1.692   6.213  0.5524 -0.0574 -0.0956
   27MOL   C24011212   6.426   1.568   6.147  0.1241  0.4320 -0.9976
   27MOL   C24111213   6.409   1.452   6.220  0.0656 -0.1901 -0.1436
   27MOL   C24211214   6.381   1.453   6.355 -0.2081 -0.5570  0.3128
   27MOL   C24311215   6.476   1.257   6.819  0.3598 -0.6352  0.2030
   27MOL   H24411216   6.443   1.479   6.829 -0.3233  0.0317  1.3404
   27MOL   H24511217   6.216   1.539   6.716 -1.3423  0.1365 -1.4954
   27MOL   H24611218   6.184   1.447   6.569  0.1270  0.6560 -0.1056
   27MOL   H24711219   6.378   1.798   6.396 -1.8292 -0.3242  0.9282
   27MOL   H24811220   6.415   1.785   6.158 -0.7548  0.7401  1.0219
   27MOL   H24911221   6.442   1.553   6.041 -0.3025 -0.3749 -0.9526
   27MOL   H25011222   6.415   1.358   6.168 -0.1271  0.6763 -1.7546
   27MOL   H25111223   6.364   1.363   6.413  1.2615  0.4558  2.3439
   27MOL   H25211224   6.446   1.190   6.739 -0.6292 -2.6343  2.2044
   27MOL   H25311225   6.582   1.240   6.835  0.2721  0.1146  1.6451
   27MOL   C25411226   6.391   1.230   6.943  0.0642  0.1574 -0.0170
   27MOL   O25511227   6.432   1.098   6.983 -0.1762 -0.8313  0.2163
   27MOL   C25611228   6.362   0.986   6.920  0.7542  0.0108 -0.0439
   27MOL   O25711229   6.235   0.974   6.976 -0.4380 -0.0857 -0.0551
   27MOL   C25811230   6.161   0.865   6.932  0.2139 -0.4540 -0.0515
   27MOL   C25911231   6.199   0.768   6.830  0.2104  0.0107  1.0327
   27MOL   C26011232   6.105   0.668   6.787 -0.2420  0.2017 -0.5754
   27MOL   C26111233   5.982   0.654   6.848  0.1603 -0.8234  0.2010
   27MOL   C26211234   5.940   0.751   6.945  0.4009  0.0489 -0.0650
   27MOL   C26311235   6.026   0.850   6.988 -0.3116  0.4471 -1.0039
   27MOL   C26411236   6.422   1.322   7.067 -0.0434  0.1041 -0.1644
   27MOL   H26511237   6.286   1.248   6.919 -0.4957 -2.5695  0.2369
   27MOL   H26611238   6.440   0.914   6.946 -0.1672 -0.5016  1.3970
   27MOL   H26711239   6.360   0.990   6.811  0.3842 -0.6999 -0.0667
   27MOL   H26811240   6.296   0.773   6.782 -1.2491  1.4719 -1.9004
   27MOL   H26911241   6.138   0.599   6.711 -1.8865 -1.6373  0.3335
   27MOL   H27011242   5.916   0.570   6.833 -1.9264  1.2356 -2.5173
   27MOL   H27111243   5.842   0.750   6.989  0.2913  2.4725 -0.1551
   27MOL   H27211244   6.003   0.924   7.064  1.8000  1.5284 -1.3564
   27MOL   H27311245   6.529   1.326   7.088 -0.1499 -0.2804  0.4732
   27MOL   H27411246   6.406   1.425   7.035  0.8851  0.3668  0.1643
   27MOL   C27511247   6.344   1.297   7.194 -0.2110 -0.4124 -0.3207
   27MOL   O27611248   6.376   1.402   7.289  0.5514 -0.2904  0.3095
   27MOL   C27711249   6.484   1.388   7.365  0.9415 -0.3573  0.1913
   27MOL   O27811250   6.602   1.405   7.297 -0.0064  0.4553  0.3690
   27MOL   C27911251   6.650   1.534   7.281  0.8183 -0.0699  0.0304
   27MOL   C28011252   6.564   1.647   7.284  0.3240  0.1717  0.6626
   27MOL   C28111253   6.613   1.776   7.275 -0.0516 -0.7192 -0.1707
   27MOL   C28211254   6.751   1.792   7.260  0.1130 -0.0844  0.2659
   27MOL   C28311255   6.839   1.682   7.261  0.6133  0.1268 -0.3237
   27MOL   C28411256   6.784   1.550   7.261 -0.0050  0.6670  0.4336
   27MOL   C28511257   6.189   1.295   7.159  0.1500 -0.6504 -0.2144
   27MOL   H28611258   6.376   1.199   7.231  0.0991 -0.3074 -0.3121
   27MOL   H28711259   6.490   1.296   7.423 -0.7138 -0.2841  0.4918
   27MOL   H28811260   6.470   1.471   7.435  0.6613 -0.0835 -0.1887
   27MOL   H28911261   6.457   1.637   7.295 -0.0271 -0.7687 -3.0301
   27MOL   H29011262   6.537   1.852   7.285 -0.1219 -0.5983 -1.5652
   27MOL   H29111263   6.787   1.893   7.249 -2.0767  0.4803 -2.0762
   27MOL   H29211264   6.944   1.697   7.243  1.0461 -1.8150  0.4152
   27MOL   H29311265   6.857   1.471   7.247 -0.6442  0.1636 -0.1305
   27MOL   H29411266   6.167   1.207   7.099 -2.5008  0.6627 -1.2221
   27MOL   H29511267   6.174   1.382   7.095 -2.3506 -1.9078 -1.4048
   27MOL   C29611268   6.096   1.305   7.288 -0.6160 -0.0825 -0.1440
   27MOL   O29711269   5.958   1.304   7.257 -0.3076 -0.5177 -0.1595
   27MOL   C29811270   5.899   1.193   7.198 -0.1580 -0.1905 -0.5865
   27MOL   O29911271   5.937   1.165   7.062 -0.1294  0.5417  0.1044
   27MOL   C30011272   5.883   1.233   6.958  1.2564  0.3362  0.4439
   27MOL   C30111273   5.897   1.172   6.824  0.4494  0.3291  0.1264
   27MOL   C30211274   5.831   1.238   6.720  0.4618 -0.7848  0.2766
   27MOL   C30311275   5.761   1.357   6.733 -0.0973 -0.5698  0.6858
   27MOL   C30411276   5.761   1.419   6.862  0.3438  0.1272  0.4064
   27MOL   C30511277   5.818   1.359   6.972 -0.1625 -0.0489  0.7275
   27MOL   C30611278   6.125   1.210   7.405 -0.9498  0.2457 -0.1009
   27MOL   H30711279   6.123   1.403   7.329  2.0733 -1.6730  2.1193
   27MOL   H30811280   5.794   1.222   7.201  0.3535  1.6245  0.5538
   27MOL   H30911281   5.910   1.104   7.259 -2.7753  0.2301  0.5395
   27MOL   H31011282   5.940   1.077   6.799 -1.5072 -0.7219  0.6218
   27MOL   H31111283   5.831   1.191   6.623 -1.9198 -1.0395  0.3758
   27MOL   H31211284   5.713   1.387   6.641 -0.1945  0.3695  1.0298
   27MOL   H31311285   5.707   1.512   6.872  0.1701  0.0581  0.1330
   27MOL   H31411286   5.814   1.409   7.068  3.1406  1.3178  0.1969
   27MOL   H31511287   6.226   1.230   7.441 -1.1989 -1.1479  1.4448
   27MOL   H31611288   6.123   1.104   7.381  0.3034 -0.0290  0.9880
   27MOL   C31711289   6.036   1.227   7.527  0.2247 -0.2356 -0.3390
   27MOL   O31811290   6.041   1.361   7.576  0.0200 -0.0840  0.0599
   27MOL   C31911291   6.132   1.388   7.677  0.0933 -0.4488  0.8521
   27MOL   O32011292   6.099   1.516   7.724 -0.0437 -0.6986  0.5833
   27MOL   C32111293   6.126   1.627   7.648 -0.0478 -0.4598 -0.0807
   27MOL   C32211294   6.193   1.621   7.527 -0.0041  0.3087  0.5220
   27MOL   C32311295   6.216   1.730   7.449 -0.5749 -1.2190  0.2407
   27MOL   C32411296   6.179   1.857   7.500 -0.0097 -0.2779 -0.0040
   27MOL   C32511297   6.103   1.871   7.618 -0.2158  0.0554  0.0947
   27MOL   C32611298   6.081   1.752   7.693  0.7127 -0.1598  0.6349
   27MOL   C32711299   6.044   1.124   7.634  0.5674  0.5784  0.2945
   27MOL   H32811300   5.929   1.230   7.503 -1.0589 -0.8525  4.6693
   27MOL   H32911301   6.229   1.376   7.628 -0.7609  0.0477 -0.9978
   27MOL   H33011302   6.136   1.323   7.764  0.9938  1.9118  2.6021
   27MOL   H33111303   6.223   1.524   7.491 -1.5973 -0.3371  0.8634
   27MOL   H33211304   6.274   1.713   7.360  0.7854 -1.3974  1.1499
   27MOL   H33311305   6.215   1.934   7.432 -0.5538  0.4198  0.4852
   27MOL   H33411306   6.087   1.970   7.657 -0.8604 -1.0563  2.8090
   27MOL   H33511307   6.039   1.755   7.793  0.1905 -1.3478  0.4629
   27MOL   H33611308   6.150   1.095   7.629  0.2402 -0.7193  0.7257
   27MOL   H33711309   6.029   1.150   7.738 -0.7641 -0.0302  0.2658
   27MOL   C33811310   5.954   1.001   7.597  1.0218  0.1350 -0.5858
   27MOL   O33911311   6.026   0.889   7.646  0.6374 -0.3681 -0.4437
   27MOL   C34011312   6.044   0.782   7.555  0.5606 -0.1293 -0.3298
   27MOL   O34111313   6.115   0.819   7.442 -0.2415 -0.1923 -0.2175
   27MOL   C34211314   6.248   0.867   7.457 -0.8899  0.9313  0.5925
   27MOL   C34311315   6.312   0.930   7.346 -0.4203  0.1035  0.3567
   27MOL   C34411316   6.445   0.981   7.360  0.3194 -0.1943 -0.1110
   27MOL   C34511317   6.514   0.970   7.480 -0.1128  0.4431 -0.2040
   27MOL   C34611318   6.443   0.917   7.592 -0.1356  0.3157  0.4944
   27MOL   C34711319   6.318   0.861   7.581 -0.1351 -0.3988  0.2953
   27MOL   C34811320   5.823   1.002   7.681  0.5429 -0.1982  0.0985
   27MOL   H34911321   5.932   0.979   7.493 -1.1667  0.5496 -0.2343
   27MOL   H35011322   5.948   0.750   7.514 -0.6849  0.1462  2.2557
   27MOL   H35111323   6.080   0.690   7.602 -0.4130 -0.7199 -0.7333
   27MOL   H35211324   6.257   0.940   7.254  1.0288 -0.1282 -0.5528
   27MOL   H35311325   6.494   1.038   7.282  2.3934 -0.1736  1.1692
   27MOL   H35411326   6.614   1.006   7.502  0.2381 -0.7502  0.1655
   27MOL   H35511327   6.492   0.903   7.687  0.3881  0.1522  0.2005
   27MOL   H35611328   6.284   0.809   7.670  0.2801 -0.8708  0.1815
   27MOL   H35711329   5.779   1.102   7.672 -0.6499 -0.8916 -2.0494
   27MOL   H35811330   5.853   0.982   7.784 -0.8205 -2.1285  0.1517
   27MOL   C35911331   5.724   0.891   7.651 -0.4826  0.1834  0.4086
   27MOL   O36011332   5.683   0.914   7.512 -0.2358  0.0283 -0.1105
   27MOL   C36111333   5.617   0.798   7.451 -0.1936 -0.5297 -0.2007
   27MOL   O36211334   5.654   0.795   7.314 -0.7038 -0.2580 -0.8432
   27MOL   C36311335   5.585   0.875   7.232 -0.1353 -0.1893 -0.6580
   27MOL   C36411336   5.662   0.945   7.138  0.1041  0.8198 -0.1504
   27MOL   C36511337   5.600   1.029   7.046  0.1805 -0.5106 -0.7934
   27MOL   C36611338   5.462   1.059   7.050  0.4618  0.0400  0.5683
   27MOL   C36711339   5.384   0.989   7.144 -0.3461 -0.4721  0.2065
   27MOL   C36811340   5.445   0.899   7.237 -0.2633 -0.6278 -1.7812
   27MOL   C36911341   5.601   0.890   7.737  0.6624  0.2200 -0.6794
   27MOL   H37011342   5.784   0.800   7.651  0.1480  0.5898 -0.4336
   27MOL   H37111343   5.514   0.782   7.481  0.2991  0.2297  2.0035
   27MOL   H37211344   5.665   0.704   7.479 -0.8726 -0.3814  1.5146
   27MOL   H37311345   5.768   0.924   7.137 -0.1306 -0.6643  1.9460
   27MOL   H37411346   5.671   1.078   6.981  0.0010 -0.8932 -1.2856
   27MOL   H37511347   5.417   1.132   6.984  0.7529 -0.5794 -0.3242
   27MOL   H37611348   5.277   1.003   7.146 -0.3358 -0.4561  0.7152
   27MOL   H37711349   5.381   0.843   7.302  0.2510 -0.2456 -0.9359
   27MOL   H37811350   5.521   0.836   7.686  1.9395 -0.4002 -2.0686
   27MOL   H37911351   5.562   0.991   7.753  0.0933 -0.4131  2.1979
   27MOL   C38011352   5.625   0.820   7.873 -0.1216 -0.4265 -0.5778
   27MOL   O38111353   5.673   0.694   7.838 -1.0153 -0.5464  0.0819
   27MOL   C38211354   5.804   0.656   7.878  0.1103 -0.5753  0.0903
   27MOL   O38311355   5.837   0.531   7.821  0.0393 -0.3607 -0.0463
   27MOL   C38411356   5.974   0.507   7.810 -0.2916 -0.1001  0.1775
   27MOL   C38511357   6.018   0.389   7.741  0.6879 -0.2685 -0.1096
   27MOL   C38611358   6.153   0.363   7.724 -0.3091 -0.0856  0.8436
   27MOL   C38711359   6.254   0.454   7.766 -0.3817 -0.0740  0.3020
   27MOL   C38811360   6.215   0.573   7.830  0.3258  0.1465  0.8237
   27MOL   C38911361   6.078   0.596   7.857  0.2844 -0.4590  0.3522
   27MOL   C39011362   5.494   0.792   7.942  0.3617 -0.3939  0.2254
   27MOL   H39111363   5.700   0.882   7.923 -0.9455  1.1695 -1.2585
   27MOL   H39211364   5.872   0.729   7.834 -0.4857  1.1911  2.0609
   27MOL   H39311365   5.818   0.652   0.010 -0.4609 -0.7731  0.1598
   27MOL   H39411366   5.945   0.323   7.697  3.0642 -2.1905 -1.2778
   27MOL   H39511367   6.195   0.282   7.666  2.0500  0.5291  1.6025
   27MOL   H39611368   6.358   0.445   7.739 -0.4249  0.2075  0.0448
   27MOL   H39711369   6.290   0.645   7.859 -0.3132  0.2936  2.1849
   27MOL   H39811370   6.055   0.683   7.916 -0.2317 -0.5448  0.2752
   27MOL   H39911371   5.428   0.744   7.870  2.6788 -0.2913 -2.0604
   27MOL   H40011372   5.442   0.887   7.956 -1.4578 -1.0012 -2.0441
   27MOL   C40111373   5.498   0.709   0.090  0.1293  0.0045  0.0188
   27MOL   O40211374   5.574   0.758   0.197 -0.2641  0.2534  0.2218
   27MOL   C40311375   5.632   0.663   0.282 -0.7943  0.9744 -0.4592
   27MOL   O40411376   5.734   0.596   0.213 -0.4635  0.0466 -0.0116
   27MOL   C40511377   5.808   0.498   0.280 -0.7903  0.1057 -0.1338
   27MOL   C40611378   5.914   0.443   0.203 -0.4510  0.5887  0.1317
   27MOL   C40711379   6.007   0.357   0.261  0.0541  1.1249 -0.2072
   27MOL   C40811380   5.990   0.316   0.396 -0.6485 -0.1864 -0.4745
   27MOL   C40911381   5.887   0.372   0.475 -0.2858 -0.3652 -0.1490
   27MOL   C41011382   5.789   0.457   0.414  0.2029  0.7987  0.1666
   27MOL   C41111383   5.356   0.679   0.148 -0.2276 -0.0567 -0.2054
   27MOL   H41211384   5.548   0.615   0.063  1.8795  0.7271  0.6567
   27MOL   H41311385   5.556   0.587   0.298 -0.4162  1.0564  1.9091
   27MOL   H41411386   5.658   0.711   0.376 -0.9302  0.2345 -0.0461
   27MOL   H41511387   5.920   0.465   0.098 -1.1770  0.0007 -0.0439
   27MOL   H41611388   6.088   0.318   0.202  1.9709  3.2965  0.9182
   27MOL   H41711389   6.056   0.245   0.444  0.1230  1.2048  0.5688
   27MOL   H41811390   5.872   0.338   0.576 -1.6433 -0.3487 -0.3328
   27MOL   H41911391   5.709   0.490   0.479  1.0393  2.0866  0.5695
   27MOL   H42011392   5.291   0.627   0.078  0.0094 -1.8551  0.8572
   27MOL   H42111393   5.303   0.765   0.187  0.0630  0.1595 -0.2834
   27MOL   H42211394   5.346   0.608   0.230 -1.2726 -0.1777 -0.4275
   28MOL     C111395   2.623   0.602   4.773  0.4002 -0.7251 -0.4315
   28MOL     O211396   2.692   0.712   4.837 -0.2912  0.2859  0.4720
   28MOL     C311397   2.607   0.827   4.855 -0.1492 -0.1447 -0.0982
   28MOL     O411398   2.558   0.888   4.738 -0.1545 -0.0666 -0.4736
   28MOL     C511399   2.646   0.913   4.636  0.3778 -0.2287 -0.9293
   28MOL     C611400   2.590   0.953   4.514 -0.4495  0.3934  0.0932
   28MOL     C711401   2.667   1.001   4.404 -0.4953  1.0347 -0.7232
   28MOL     C811402   2.809   1.009   4.418 -0.0118 -0.7626 -1.1051
   28MOL     C911403   2.866   0.982   4.544 -0.3185 -0.0768 -0.1110
   28MOL    C1011404   2.784   0.938   4.653 -0.7428  0.0773 -0.0258
   28MOL    C1111405   2.723   0.486   4.752 -0.5325 -0.4923 -0.7103
   28MOL    H1211406   2.539   0.574   4.836  0.5733 -1.0636 -0.3488
   28MOL    H1311407   2.524   0.808   4.923 -0.7080 -0.6142 -0.9034
   28MOL    H1411408   2.678   0.898   4.897  1.2535  0.3401 -3.2128
   28MOL    H1511409   2.483   0.943   4.509 -0.3376 -1.2342  0.6436
   28MOL    H1611410   2.623   1.006   4.306 -0.6072  0.9327 -0.6782
   28MOL    H1711411   2.873   1.033   4.335  1.0859 -0.5156 -0.2094
   28MOL    H1811412   2.971   1.001   4.558 -0.3672 -0.6393  1.0572
   28MOL    H1911413   2.823   0.909   4.749 -3.1984  0.0913  1.0235
   28MOL    H2011414   2.765   0.449   4.845 -1.4804 -1.2026 -0.5497
   28MOL    H2111415   2.805   0.512   4.686  0.4700  1.2866  1.1959
   28MOL    H2211416   2.578   0.643   4.683  1.0472 -0.0405 -0.4465
   28MOL    C2311417   2.646   0.369   4.683  0.3719 -1.0554  0.4618
   28MOL    O2411418   2.571   0.417   4.570 -0.0038 -0.1248 -1.0273
   28MOL    C2511419   2.558   0.328   4.462  0.0806  0.9477 -0.3896
   28MOL    O2611420   2.676   0.293   4.403  0.3228 -0.0091 -0.0306
   28MOL    C2711421   2.742   0.390   4.337  0.1447 -0.5842 -0.3239
   28MOL    C2811422   2.722   0.529   4.351  0.0502 -0.9705  0.0858
   28MOL    C2911423   2.788   0.620   4.267  0.5215 -0.5147 -0.8704
   28MOL    C3011424   2.880   0.571   4.175  0.8566 -0.0395 -0.2281
   28MOL    C3111425   2.918   0.432   4.166  0.1804  0.2122  0.2007
   28MOL    C3211426   2.850   0.348   4.257  0.0918 -0.0097 -0.0140
   28MOL    C3311427   2.551   0.297   4.776 -0.1357 -0.5587  0.2062
   28MOL    H3411428   2.730   0.308   4.650  0.0359 -1.1332 -0.2653
   28MOL    H3511429   2.493   0.388   4.397 -0.6353 -0.3835 -0.9251
   28MOL    H3611430   2.506   0.237   4.493  2.9781 -1.3241 -1.9580
   28MOL    H3711431   2.660   0.575   4.427  0.4241 -1.1180  0.4827
   28MOL    H3811432   2.766   0.726   4.267 -1.1295 -0.8142 -2.4452
   28MOL    H3911433   2.928   0.643   4.111  1.4160  0.6840  0.9989
   28MOL    H4011434   2.982   0.383   4.094 -0.5084  0.0016 -0.2737
   28MOL    H4111435   2.885   0.246   4.250  0.0502  0.0948 -1.9821
   28MOL    H4211436   2.447   0.306   4.743  0.2264 -2.1824 -1.4558
   28MOL    H4311437   2.564   0.349   4.870 -0.7999  0.8657 -0.4701
   28MOL    C4411438   2.590   0.152   4.815  0.3283  0.2482  0.3701
   28MOL    O4511439   2.512   0.078   4.724  0.1323  0.2733 -0.1427
   28MOL    C4611440   2.547   7.923   4.733 -0.8685  0.1968  0.5761
   28MOL    O4711441   2.484   7.854   4.631  0.1129  0.0948 -0.0231
   28MOL    C4811442   2.498   7.867   4.497  0.1968  0.2289  0.4441
   28MOL    C4911443   2.413   7.788   4.413  0.4276  0.1225 -1.0521
   28MOL    C5011444   2.422   7.808   4.277 -0.0235  0.1717  0.0451
   28MOL    C5111445   2.527   7.876   4.219  0.4217 -0.3835  0.4493
   28MOL    C5211446   2.604   7.960   4.298 -0.1727  0.3218 -0.7773
   28MOL    C5311447   2.587   7.956   4.436 -0.1387  0.0398  0.1873
   28MOL    C5411448   2.547   0.122   4.964 -0.4495  0.7944  0.5154
   28MOL    H5511449   2.692   0.126   4.789 -0.6124 -2.0022 -1.2852
   28MOL    H5611450   2.516   7.879   4.828 -1.3501 -1.5757 -0.3738
   28MOL    H5711451   2.652   7.908   4.706 -1.0820  2.3562 -1.5792
   28MOL    H5811452   2.342   7.717   4.452  0.1691  0.0966 -1.5597
   28MOL    H5911453   2.351   7.758   4.214  1.2971 -0.2509 -1.1238
   28MOL    H6011454   2.546   7.877   4.112 -1.3415 -3.0051  0.0743
   28MOL    H6111455   2.670   0.053   4.247 -0.2108  0.4858 -0.6046
   28MOL    H6211456   2.650   0.045   4.495  0.3024 -1.7230  1.7272
   28MOL    H6311457   2.550   0.211   5.028 -0.9433  2.2875 -1.5122
   28MOL    H6411458   2.451   0.071   4.970 -0.7081  1.0243 -1.5061
   28MOL    C6511459   2.645   0.029   5.037 -1.1451 -0.0924  1.1804
   28MOL    O6611460   2.764   0.112   5.053 -0.3135  0.0944  0.1365
   28MOL    C6711461   2.882   0.037   5.051  0.1548 -0.6496  0.8792
   28MOL    O6811462   2.895   7.955   4.923  0.2326 -0.3052  0.5205
   28MOL    C6911463   2.936   0.057   4.813  0.3605 -0.6622 -0.3414
   28MOL    C7011464   2.975   0.188   4.818  0.3694 -0.5307 -0.0421
   28MOL    C7111465   3.022   0.259   4.704  0.0820 -0.1719  0.0896
   28MOL    C7211466   3.027   0.194   4.578  0.2869  0.4441  0.4125
   28MOL    C7311467   3.007   0.050   4.581 -0.0527 -0.1805  0.0497
   28MOL    C7411468   2.953   7.957   4.691  0.4953 -0.0342 -0.3291
   28MOL    C7511469   2.595   7.960   5.169 -0.0724 -0.0509  0.3696
   28MOL    H7611470   2.662   7.911   4.985 -1.9076 -0.3714  1.4151
   28MOL    H7711471   2.862   7.931   5.121 -1.8276 -1.1733 -0.2404
   28MOL    H7811472   2.974   0.085   5.084  0.0565  0.6158 -0.6533
   28MOL    H7911473   2.963   0.246   4.909 -0.5672 -1.1964  0.2602
   28MOL    H8011474   3.055   0.360   4.719 -1.3911 -0.3143  5.0248
   28MOL    H8111475   3.058   0.230   4.481 -0.0265  1.7927  0.8071
   28MOL    H8211476   3.030   7.967   4.494  0.5978 -1.5453  1.1194
   28MOL    H8311477   2.937   7.851   4.675  0.1972  0.2114 -1.6518
   28MOL    H8411478   2.678   7.940   5.236  0.9307 -1.9171 -1.3695
   28MOL    H8511479   2.548   0.073   5.213 -1.8872 -1.5992  1.6566
   28MOL    C8611480   2.488   7.842   5.179  0.1569 -0.3515  0.7700
   28MOL    O8711481   2.567   7.733   5.164  0.0412 -0.1121  0.6600
   28MOL    C8811482   2.511   7.618   5.118 -0.1075  0.7434 -0.5759
   28MOL    O8911483   2.497   7.611   4.978 -0.4578  0.0089  0.5954
   28MOL    C9011484   2.606   7.616   4.896  0.1171  0.8014  0.7053
   28MOL    C9111485   2.592   7.596   4.756 -0.2351 -0.7377  0.7943
   28MOL    C9211486   2.706   7.580   4.670 -0.1978 -0.4747 -0.1411
   28MOL    C9311487   2.835   7.580   4.726 -0.1604 -0.4573  0.3504
   28MOL    C9411488   2.853   7.610   4.863 -0.6450 -0.8841 -0.0342
   28MOL    C9511489   2.740   7.624   4.943  0.0497  0.0305  0.0997
   28MOL    C9611490   2.406   7.849   5.310 -0.3964  0.0971 -0.2270
   28MOL    H9711491   2.417   7.851   5.096 -1.7287 -1.6277  2.2041
   28MOL    H9811492   2.410   7.593   5.152  1.4118  0.3855  3.9525
   28MOL    H9911493   2.576   7.535   5.143 -0.8580  0.2517 -0.2530
   28MOL   H10011494   2.488   7.590   4.731 -0.1563 -1.4793  0.6236
   28MOL   H10111495   2.701   7.552   4.566 -0.3178  1.2545 -0.6122
   28MOL   H10211496   2.928   7.554   4.677  0.9048  3.5020  0.0959
   28MOL   H10311497   2.953   7.616   4.904 -0.2008  0.0542 -1.2250
   28MOL   H10411498   2.762   7.626   5.049 -0.7582 -1.6316  0.3046
   28MOL   H10511499   2.393   7.747   5.345  0.3184  0.0734 -0.0306
   28MOL   H10611500   2.478   7.882   5.384 -1.4145  1.1091  0.3398
   28MOL   C10711501   2.273   7.933   5.310 -0.5068 -0.2901 -0.8340
   28MOL   O10811502   2.184   7.834   5.255  0.0525 -0.4912 -0.0494
   28MOL   C10911503   2.065   7.878   5.201  0.3252 -0.1844  0.6905
   28MOL   O11011504   2.074   7.962   5.093  0.0885 -0.2261 -0.3726
   28MOL   C11111505   2.090   7.902   4.966  0.2617  0.5302  0.0565
   28MOL   C11211506   2.166   7.784   4.949 -0.5079  0.5465 -0.4721
   28MOL   C11311507   2.192   7.734   4.823  0.4316 -0.6876 -0.0673
   28MOL   C11411508   2.156   7.814   4.718  0.8013 -0.5407  0.0238
   28MOL   C11511509   2.071   7.931   4.728 -0.2590  0.2016 -0.2020
   28MOL   C11611510   2.044   0.002   4.855  0.2414 -0.1160 -0.4713
   28MOL   C11711511   2.234   0.024   5.442 -0.0928 -0.9267  0.2064
   28MOL   H11811512   2.279   0.028   5.228  0.2812 -0.4403 -0.9060
   28MOL   H11911513   2.013   7.930   5.282 -0.1697 -0.0743  0.3070
   28MOL   H12011514   2.002   7.795   5.170 -1.2362  0.3902  2.1704
   28MOL   H12111515   2.186   7.726   5.038  0.5213  0.2157 -0.9151
   28MOL   H12211516   2.237   7.638   4.802 -0.2252 -1.3162  1.3413
   28MOL   H12311517   2.181   7.770   4.622  2.5259 -0.6898  0.5240
   28MOL   H12411518   2.043   0.007   4.637  1.0297 -0.2731 -0.8884
   28MOL   H12511519   1.991   0.095   4.865 -2.3269 -1.6307  0.7149
   28MOL   H12611520   2.208   7.933   5.524  0.3280  0.5665  1.5917
   28MOL   H12711521   2.142   0.079   5.426 -0.0375 -1.8035 -3.4390
   28MOL   C12811522   2.337   0.122   5.492 -0.3774  0.8209  0.4526
   28MOL   O12911523   2.277   0.190   5.596 -0.4752  0.4156  0.3280
   28MOL   C13011524   2.336   0.180   5.722  0.7491  0.0274 -0.0324
   28MOL   O13111525   2.341   0.046   5.758 -0.0959  0.1821 -0.0273
   28MOL   C13211526   2.229   7.950   5.792  0.6062 -0.9291  0.1643
   28MOL   C13311527   2.102   0.029   5.777  0.2970 -0.2250 -0.6262
   28MOL   C13411528   1.990   7.941   5.831 -0.5262  0.0558  0.0721
   28MOL   C13511529   2.008   7.815   5.891 -0.5434 -0.0271 -0.6226
   28MOL   C13611530   2.133   7.753   5.896  0.1269  0.2241  0.5888
   28MOL   C13711531   2.243   7.820   5.844  0.1441  0.1953 -0.7434
   28MOL   C13811532   2.382   0.236   5.396  0.4221  0.0095  0.0581
   28MOL   H13911533   2.422   0.060   5.523 -1.0392 -0.2229  0.2009
   28MOL   H14011534   2.273   0.241   5.787  4.5359  2.0313  1.9367
   28MOL   H14111535   2.433   0.230   5.728 -0.1983  2.2467 -2.3040
   28MOL   H14211536   2.087   0.126   5.733  0.0587  0.1040  0.1624
   28MOL   H14311537   1.894   0.014   5.822 -1.9272 -2.2892  1.6683
   28MOL   H14411538   1.919   7.759   5.915  0.5626 -2.0425 -1.1481
   28MOL   H14511539   2.136   7.649   5.925 -0.1397 -0.1163 -0.5507
   28MOL   H14611540   2.341   7.775   5.846 -0.7276 -1.8101 -1.8759
   28MOL   H14711541   2.379   0.203   5.292  1.5340 -1.2998  0.4195
   28MOL   H14811542   2.305   0.313   5.394  1.4842  1.1314  1.9588
   28MOL   C14911543   2.512   0.308   5.424  0.4570 -0.1588  0.4394
   28MOL   O15011544   2.624   0.225   5.421 -0.1145  0.1741  0.3553
   28MOL   C15111545   2.687   0.203   5.539 -0.0121  0.1026  0.7903
   28MOL   O15211546   2.784   0.299   5.576 -0.2229 -0.4855 -0.1730
   28MOL   C15311547   2.907   0.290   5.515  0.3961 -0.7348 -0.3899
   28MOL   C15411548   2.913   0.272   5.375 -0.1814  0.0980  0.6417
   28MOL   C15511549   3.041   0.278   5.311  0.5908  0.2916  0.0638
   28MOL   C15611550   3.156   0.276   5.395  0.0159  0.6702 -0.3079
   28MOL   C15711551   3.145   0.290   5.536 -0.3346 -0.1500  0.1461
   28MOL   C15811552   3.015   0.308   5.591  0.3183 -0.0544  0.7222
   28MOL   C15911553   2.538   0.420   5.315 -0.5544 -0.7029 -0.0847
   28MOL   H16011554   2.495   0.375   5.508  2.1006 -1.1381  1.5676
   28MOL   H16111555   2.623   0.208   5.627 -0.2036 -2.5666  0.8320
   28MOL   H16211556   2.730   0.103   5.533  4.0490  1.9000 -2.5225
   28MOL   H16311557   2.825   0.250   5.316 -1.9748  0.0142  3.2693
   28MOL   H16411558   3.048   0.262   5.204  0.7767  2.5339 -0.2938
   28MOL   H16511559   3.249   0.276   5.341 -0.0708 -1.9635 -0.5533
   28MOL   H16611560   3.228   0.287   5.605 -0.7552 -2.0971  0.6121
   28MOL   H16711561   3.013   0.329   5.697 -3.5766 -0.1189  0.7108
   28MOL   H16811562   2.439   0.458   5.290 -1.0641 -0.9627  1.4569
   28MOL   H16911563   2.586   0.387   5.223 -1.5303  0.9009 -1.1910
   28MOL   C17011564   2.612   0.547   5.367  0.3737  0.2752  0.0030
   28MOL   O17111565   2.643   0.627   5.251  0.7852  0.0896 -0.2847
   28MOL   C17211566   2.762   0.602   5.185  0.0326 -0.1329 -0.4262
   28MOL   O17311567   2.880   0.605   5.257 -0.4735 -0.1363  0.2513
   28MOL   C17411568   2.994   0.603   5.192 -0.7356  0.2400  1.3044
   28MOL   C17511569   3.003   0.579   5.049 -0.3769 -0.2823  0.9158
   28MOL   C17611570   3.127   0.570   4.983 -0.3744 -0.4879 -0.3839
   28MOL   C17711571   3.246   0.575   5.059 -0.7168 -0.4522 -0.2126
   28MOL   C17811572   3.240   0.603   5.202 -0.7013 -1.3039  0.2885
   28MOL   C17911573   3.116   0.621   5.266  0.1008  0.3554  0.4633
   28MOL   C18011574   2.534   0.637   5.466  0.1210  0.1130  0.3656
   28MOL   H18111575   2.705   0.514   5.414  0.7462  1.2424 -0.0464
   28MOL   H18211576   2.760   0.667   5.097  2.3025  1.0608  0.3890
   28MOL   H18311577   2.762   0.502   5.140 -1.8470  0.6446 -2.2552
   28MOL   H18411578   2.912   0.558   4.994 -0.1543 -0.3762  0.5833
   28MOL   H18511579   3.125   0.550   4.877  2.0050  0.7562 -0.6926
   28MOL   H18611580   3.348   0.576   5.021 -0.5891  2.5651  0.1041
   28MOL   H18711581   3.329   0.597   5.264  0.7152  0.4741 -1.5221
   28MOL   H18811582   3.120   0.639   5.373  2.0710  0.3804  0.4105
   28MOL   H18911583   2.450   0.683   5.414  0.7745  0.8962 -0.0025
   28MOL   H19011584   2.495   0.586   5.554  1.2670  0.0587  0.8475
   28MOL   C19111585   2.615   0.758   5.516 -1.0061 -0.2570 -0.3207
   28MOL   O19211586   2.728   0.710   5.599 -0.8857  0.4766  0.2276
   28MOL   C19311587   2.865   0.708   5.547  0.8311 -0.4797 -0.3468
   28MOL   O19411588   2.964   0.770   5.629 -0.0737  0.5454  0.4315
   28MOL   C19511589   2.981   0.732   5.762 -0.0855 -0.7145 -0.3992
   28MOL   C19611590   2.938   0.609   5.820 -0.1288 -0.5551  0.2770
   28MOL   C19711591   2.990   0.568   5.944 -0.2637  0.2559  0.1768
   28MOL   C19811592   3.068   0.656   6.024  0.4425 -0.9265 -0.2863
   28MOL   C19911593   3.095   0.785   5.976 -0.4564 -0.2871 -0.3617
   28MOL   C20011594   3.060   0.822   5.839  0.2986  0.1659  0.7617
   28MOL   C20111595   2.522   0.826   5.609  0.6032 -0.6211  0.0122
   28MOL   H20211596   2.642   0.823   5.431 -0.8588  0.9083  0.6012
   28MOL   H20311597   2.857   0.767   5.456 -3.3420 -0.8815 -0.3325
   28MOL   H20411598   2.899   0.606   5.525  2.5213 -0.1457  0.5911
   28MOL   H20511599   2.888   0.533   5.762 -2.0981  0.4646  0.6163
   28MOL   H20611600   2.976   0.470   5.988  1.1462 -0.5567 -1.1317
   28MOL   H20711601   3.095   0.635   6.126 -0.9747 -0.7455  0.1436
   28MOL   H20811602   3.154   0.853   6.037  0.0641 -1.6712  0.6962
   28MOL   H20911603   3.096   0.912   5.792 -2.2356  0.7401 -0.1750
   28MOL   H21011604   2.428   0.861   5.566 -0.0796  0.2915  2.1507
   28MOL   H21111605   2.489   0.769   5.697 -0.5746  0.1554  0.0831
   28MOL   C21211606   2.586   0.950   5.668 -0.1409  0.8359  0.2641
   28MOL   O21311607   2.597   1.041   5.565 -0.2078  0.6353 -0.3364
   28MOL   C21411608   2.706   1.118   5.577 -0.0409  0.3620  0.2760
   28MOL   O21511609   2.731   1.165   5.703  0.5069 -0.0011  0.3971
   28MOL   C21611610   2.858   1.186   5.748 -0.4035  0.1395  0.8140
   28MOL   C21711611   2.892   1.165   5.880 -0.2132  0.0584  0.1111
   28MOL   C21811612   3.014   1.199   5.934 -0.7396  0.3435  0.9703
   28MOL   C21911613   3.095   1.276   5.854 -0.4213  0.2016  0.4575
   28MOL   C22011614   3.067   1.302   5.718  0.2440  0.4881 -0.0998
   28MOL   C22111615   2.949   1.249   5.664 -0.8018 -0.4087  0.6928
   28MOL   C22211616   2.501   1.006   5.778 -0.1602  0.3863  0.2851
   28MOL   H22311617   2.684   0.922   5.705 -0.4346  0.1432  0.5411
   28MOL   H22411618   2.691   1.200   5.508  0.5516  0.6837  0.5215
   28MOL   H22511619   2.792   1.060   5.542  0.4003  0.0222  1.8923
   28MOL   H22611620   2.810   1.117   5.931 -2.0007  1.9158 -0.9234
   28MOL   H22711621   3.043   1.179   6.036 -0.6759 -0.8392  0.7257
   28MOL   H22811622   3.192   1.314   5.881 -0.2657  1.8055 -2.2396
   28MOL   H22911623   3.134   1.359   5.655  0.4216 -1.4581 -1.7406
   28MOL   H23011624   2.914   1.268   5.564  1.0685 -0.2601  0.0654
   28MOL   H23111625   2.512   1.114   5.790  0.1234  0.2996  0.8407
   28MOL   H23211626   2.396   1.007   5.749 -0.1941 -1.8790  0.2264
   28MOL   C23311627   2.516   0.943   5.920  0.2677  0.0656  0.7236
   28MOL   O23411628   2.651   0.950   5.958 -0.2944 -0.8919 -0.1186
   28MOL   C23511629   2.722   0.831   5.983  0.1447  0.0031  0.2342
   28MOL   O23611630   2.689   0.766   6.103 -0.1370 -0.1679 -0.0535
   28MOL   C23711631   2.599   0.661   6.111 -0.2150 -0.1530 -0.1632
   28MOL   C23811632   2.556   0.629   6.241 -0.0577 -0.1351 -0.5488
   28MOL   C23911633   2.449   0.539   6.264  0.0859  0.3300 -0.1774
   28MOL   C24011634   2.404   0.465   6.154  0.1386  0.7414  0.4150
   28MOL   C24111635   2.450   0.488   6.023  0.3435 -0.1330  0.7193
   28MOL   C24211636   2.556   0.581   6.003  0.3829  0.0052 -0.0758
   28MOL   C24311637   2.443   1.018   6.030 -0.7968 -0.2709  0.1670
   28MOL   H24411638   2.487   0.839   5.932 -0.7627  0.2021 -0.5693
   28MOL   H24511639   2.828   0.857   5.986  0.6111 -1.8639  0.4749
   28MOL   H24611640   2.712   0.768   5.894 -0.3167  0.0878  0.2225
   28MOL   H24711641   2.601   0.685   6.321 -1.6773 -0.4217  0.5984
   28MOL   H24811642   2.431   0.507   6.365  0.7737 -1.5315 -0.6254
   28MOL   H24911643   2.324   0.393   6.162  1.8761 -1.1807  0.6950
   28MOL   H25011644   2.398   0.436   5.943  1.6308 -0.3252 -0.0077
   28MOL   H25111645   2.573   0.603   5.898 -1.7349  2.1498 -0.0148
   28MOL   H25211646   2.489   0.999   6.126 -0.6378  3.4362  0.9325
   28MOL   H25311647   2.455   1.124   6.008 -2.1347  0.0451  0.8718
   28MOL   C25411648   2.292   0.997   6.043  0.1077 -0.1655 -0.5806
   28MOL   O25511649   2.279   0.869   6.108  0.2129 -0.3910  0.0088
   28MOL   C25611650   2.187   0.784   6.052 -0.1962 -0.1671  0.3487
   28MOL   O25711651   2.231   0.742   5.920 -0.3747  1.1854 -0.3490
   28MOL   C25811652   2.176   0.627   5.862 -0.2513 -0.7091 -0.2866
   28MOL   C25911653   2.222   0.591   5.740 -0.0841  0.2570  0.3694
   28MOL   C26011654   2.164   0.482   5.669 -0.4113 -0.5176  0.0443
   28MOL   C26111655   2.053   0.412   5.726  0.0427 -0.0417  0.2215
   28MOL   C26211656   2.019   0.441   5.852 -0.3939 -0.4979  0.4121
   28MOL   C26311657   2.074   0.550   5.924 -0.1136 -0.7838  0.4610
   28MOL   C26411658   2.225   1.115   6.117 -0.6165 -0.0561 -0.0249
   28MOL   H26511659   2.251   0.993   5.941 -2.0838  1.1451  0.2150
   28MOL   H26611660   2.095   0.840   6.033  0.5103 -0.1681 -3.4888
   28MOL   H26711661   2.175   0.699   6.118 -0.5992 -1.2225 -1.0686
   28MOL   H26811662   2.300   0.648   5.691 -0.8024 -0.1505 -1.2701
   28MOL   H26911663   2.212   0.450   5.578 -0.4240 -1.7806  0.4691
   28MOL   H27011664   2.009   0.328   5.675 -1.5789  0.8784  0.0763
   28MOL   H27111665   1.938   0.378   5.886 -1.4898  1.3091  1.2496
   28MOL   H27211666   2.047   0.574   6.026  0.0692  1.0740  0.1007
   28MOL   H27311667   2.131   1.081   6.160 -2.3188  2.9513 -1.2428
   28MOL   H27411668   2.273   1.118   6.215 -0.2630  1.6641 -0.2433
   28MOL   C27511669   2.210   1.256   6.057  0.0015  0.1519 -0.2405
   28MOL   O27611670   2.150   1.235   5.927 -0.2016  0.4834  0.7929
   28MOL   C27711671   2.140   1.345   5.835  0.0949  0.5642  0.4477
   28MOL   O27811672   2.263   1.397   5.803  0.3169 -0.1726  0.5089
   28MOL   C27911673   2.315   1.384   5.673 -0.2017  0.4844 -0.2877
   28MOL   C28011674   2.281   1.281   5.587 -0.6677  1.0445  0.1417
   28MOL   C28111675   2.345   1.267   5.460 -0.1399 -0.0302  0.0179
   28MOL   C28211676   2.455   1.356   5.426  0.1075 -0.0778  0.7290
   28MOL   C28311677   2.487   1.459   5.518  0.0493  0.0217 -0.1207
   28MOL   C28411678   2.415   1.480   5.640 -0.2635 -0.0806  0.4595
   28MOL   C28511679   2.116   1.343   6.136 -0.0883  0.0165 -0.3009
   28MOL   H28611680   2.303   1.312   6.046 -0.7784  1.7184  0.8659
   28MOL   H28711681   2.067   1.413   5.880 -0.3078  0.4460 -0.0241
   28MOL   H28811682   2.089   1.298   5.751  1.2363  0.6413 -0.2935
   28MOL   H28911683   2.203   1.210   5.614 -0.3580  1.0703  1.1478
   28MOL   H29011684   2.310   1.181   5.405 -0.4532 -1.4701  2.3826
   28MOL   H29111685   2.511   1.355   5.334  1.3629  2.2117  1.4242
   28MOL   H29211686   2.578   1.513   5.496 -0.0474 -0.0674 -0.7483
   28MOL   H29311687   2.428   1.558   5.713 -1.6376  0.1113  0.5086
   28MOL   H29411688   2.012   1.318   6.115  0.3023 -0.5778 -1.5907
   28MOL   H29511689   2.114   1.449   6.108  0.4159 -0.0013 -0.4162
   28MOL   C29611690   2.138   1.355   6.286 -0.2384 -0.8283 -0.7198
   28MOL   O29711691   2.267   1.404   6.297 -0.2761 -0.5016 -0.2507
   28MOL   C29811692   2.334   1.384   6.419  0.8521  0.5967 -0.1291
   28MOL   O29911693   2.344   1.249   6.443  0.1545  0.4272  0.5628
   28MOL   C30011694   2.457   1.193   6.384  0.0904  0.0561 -0.8846
   28MOL   C30111695   2.533   1.248   6.279 -0.4021  0.0432  0.5582
   28MOL   C30211696   2.659   1.182   6.247  0.9031 -0.1537  0.4064
   28MOL   C30311697   2.685   1.054   6.300 -0.0297 -0.3262  0.3584
   28MOL   C30411698   2.598   0.995   6.387 -0.1024  0.7773 -0.0045
   28MOL   C30511699   2.492   1.068   6.435  0.4103  0.3942 -0.0151
   28MOL   C30611700   2.034   1.447   6.351 -0.7139  0.1724 -0.6023
   28MOL   H30711701   2.126   1.261   6.341  0.5619  0.7266  2.1886
   28MOL   H30811702   2.266   1.430   6.491  2.6766  0.3977  1.7774
   28MOL   H30911703   2.425   1.444   6.419  0.4129  1.2827  1.4701
   28MOL   H31011704   2.506   1.341   6.232  0.2472 -0.1075 -0.1229
   28MOL   H31111705   2.724   1.228   6.174 -1.3621  1.9692 -0.3630
   28MOL   H31211706   2.772   0.999   6.269 -0.8224 -1.5270  0.2186
   28MOL   H31311707   2.613   0.895   6.425  0.6562  1.0758  0.4969
   28MOL   H31411708   2.420   1.026   6.504 -0.1321 -1.3008 -1.5737
   28MOL   H31511709   1.971   1.502   6.281  0.3114  1.1981 -0.7330
   28MOL   H31611710   2.102   1.527   6.378 -0.9470  0.8373 -1.9469
   28MOL   C31711711   1.969   1.382   6.486 -0.7600 -0.5455 -0.6142
   28MOL   O31811712   1.916   1.262   6.440  0.1195  0.3872 -1.0447
   28MOL   C31911713   1.925   1.165   6.537 -0.5170 -0.0427 -0.4779
   28MOL   O32011714   2.055   1.131   6.552 -0.1558  0.1807 -0.1892
   28MOL   C32111715   2.089   0.999   6.593  0.1664  0.6305  0.3211
   28MOL   C32211716   2.013   0.946   6.702 -0.4637  0.0456  0.0974
   28MOL   C32311717   2.039   0.815   6.751  0.0480 -0.2066 -0.5337
   28MOL   C32411718   2.140   0.730   6.690  0.0414 -0.1209  0.3570
   28MOL   C32511719   2.211   0.788   6.585  0.5411  0.1736 -0.6458
   28MOL   C32611720   2.184   0.916   6.537 -0.9650  0.2477 -0.2264
   28MOL   C32711721   1.853   1.462   6.542  0.2284 -0.4552 -0.3489
   28MOL   H32811722   2.047   1.366   6.561 -1.9480 -1.5626  0.3993
   28MOL   H32911723   1.881   1.075   6.495  0.9058 -1.3104  0.6817
   28MOL   H33011724   1.878   1.206   6.626  0.0385  0.3545 -0.3614
   28MOL   H33111725   1.935   1.005   6.747 -0.7253 -2.2603  2.7796
   28MOL   H33211726   1.979   0.787   6.836 -0.1310  3.1282  0.5042
   28MOL   H33311727   2.163   0.635   6.737 -1.8841 -1.0318 -0.5051
   28MOL   H33411728   2.284   0.726   6.535 -0.7069 -0.6639 -1.4468
   28MOL   H33511729   2.238   0.959   6.454 -0.1997 -0.3490 -0.0334
   28MOL   H33611730   1.765   1.470   6.477 -1.6987  1.2343  2.3613
   28MOL   H33711731   1.804   1.411   6.625 -1.1371  0.1745 -0.7486
   28MOL   C33811732   1.891   1.599   6.594 -0.2727  0.7924  0.1679
   28MOL   O33911733   2.017   1.598   6.653  0.0863 -0.2327  0.3964
   28MOL   C34011734   2.023   1.671   6.776  0.0845  0.8411  0.0967
   28MOL   O34111735   1.943   1.618   6.871  0.4244  0.1951  0.0815
   28MOL   C34211736   1.944   1.488   6.898  0.6617 -0.3586 -0.0245
   28MOL   C34311737   1.826   1.427   6.966 -0.7745  0.5700  0.2232
   28MOL   C34411738   1.838   1.294   7.001  0.3714  0.9847  0.0403
   28MOL   C34511739   1.945   1.217   6.956 -0.9784 -0.0199  0.4874
   28MOL   C34611740   2.058   1.276   6.892  0.9526 -0.0175 -0.0054
   28MOL   C34711741   2.057   1.412   6.875 -0.2001 -0.1735 -0.2482
   28MOL   C34811742   1.905   1.709   6.484  0.7815  0.3406 -0.3243
   28MOL   H34911743   1.807   1.629   6.656 -0.7704 -0.2374 -0.0023
   28MOL   H35011744   2.005   1.779   6.772 -0.3706  0.7288 -1.2644
   28MOL   H35111745   2.128   1.664   6.803  0.6731  0.1172 -2.2060
   28MOL   H35211746   1.742   1.491   6.987 -0.8238  0.1366  1.3621
   28MOL   H35311747   1.755   1.244   7.050  0.0304  0.2557 -1.2605
   28MOL   H35411748   1.948   1.110   6.971  0.0957  0.0810  1.0178
   28MOL   H35511749   2.138   1.210   6.861  0.6825 -0.4251  0.1523
   28MOL   H35611750   2.144   1.449   6.823  1.1671 -0.2615  1.9352
   28MOL   H35711751   2.009   1.710   6.450  1.0238 -0.4433  0.3861
   28MOL   H35811752   1.896   1.809   6.526  2.7795  0.1654  0.5743
   28MOL   C35911753   1.803   1.706   6.360  0.8696 -0.1102 -0.9242
   28MOL   O36011754   1.830   1.807   6.266 -0.2048  0.2601  0.0066
   28MOL   C36111755   1.945   1.791   6.190  0.2464  0.3308 -0.2693
   28MOL   O36211756   1.918   1.701   6.085 -0.1518  0.4248 -0.0532
   28MOL   C36311757   2.000   1.704   5.979  0.4058  0.4213 -0.1446
   28MOL   C36411758   1.951   1.655   5.857  0.2356  0.1950 -0.0583
   28MOL   C36511759   2.028   1.659   5.739  0.1219  0.3229 -0.0211
   28MOL   C36611760   2.156   1.713   5.740  0.2862  0.2928  0.3648
   28MOL   C36711761   2.207   1.757   5.856  0.7965 -0.1767  0.0286
   28MOL   C36811762   2.136   1.753   5.976  0.3591  0.2397  0.1200
   28MOL   C36911763   1.656   1.729   6.405  0.3277 -0.2613 -0.4921
   28MOL   H37011764   1.804   1.614   6.302 -2.1227 -0.5329 -0.4336
   28MOL   H37111765   2.030   1.755   6.249 -1.3992 -1.7934  0.8707
   28MOL   H37211766   1.965   1.881   6.132 -1.2796 -0.8147 -2.6459
   28MOL   H37311767   1.852   1.613   5.866  0.0024  0.5419 -0.9144
   28MOL   H37411768   1.988   1.621   5.646 -0.8050  1.1524  0.0326
   28MOL   H37511769   2.210   1.721   5.646  0.2298  1.6287  0.4288
   28MOL   H37611770   2.310   1.789   5.866  0.6603  1.2265 -2.6540
   28MOL   H37711771   2.186   1.782   6.067 -0.9247 -2.4048  1.7261
   28MOL   H37811772   1.645   1.823   6.459  2.2962 -0.8922  1.0224
   28MOL   H37911773   1.641   1.659   6.487  3.3177 -0.0327  0.2982
   28MOL   C38011774   1.552   1.728   6.285  0.3722  0.2458 -0.3709
   28MOL   O38111775   1.555   1.856   6.220 -0.2802 -0.3388  0.3049
   28MOL   C38211776   1.551   1.857   6.081  0.5309 -0.9687 -0.8277
   28MOL   O38311777   1.426   1.848   6.028 -0.4701  0.3079 -0.2728
   28MOL   C38411778   1.349   1.963   6.014 -0.3570 -0.4622  0.1569
   28MOL   C38511779   1.400   2.099   6.033  0.1053 -0.5351  0.2896
   28MOL   C38611780   1.319   2.204   5.999  0.3600 -0.8951 -0.0722
   28MOL   C38711781   1.191   2.188   5.949 -0.7144 -0.0445  0.0693
   28MOL   C38811782   1.147   2.058   5.921 -0.6203  0.1246  0.1489
   28MOL   C38911783   1.221   1.945   5.958  0.2211 -0.9402 -0.3309
   28MOL   C39011784   1.406   1.702   6.327  0.1559 -0.3910 -0.3547
   28MOL   H39111785   1.587   1.647   6.221  2.7142  0.8080  0.1696
   28MOL   H39211786   1.608   1.946   6.051  1.0089 -0.5615  1.2165
   28MOL   H39311787   1.607   1.774   6.039  0.1893 -1.4481 -0.3403
   28MOL   H39411788   1.502   2.124   6.055  0.1227 -0.7485  0.4482
   28MOL   H39511789   1.359   2.299   6.031  0.1453 -0.9532  0.3685
   28MOL   H39611790   1.125   2.273   5.948  0.8104  1.1669 -0.0093
   28MOL   H39711791   1.047   2.035   5.884 -0.2377 -2.3962  0.5938
   28MOL   H39811792   1.192   1.841   5.949 -0.6490 -0.4163 -4.3883
   28MOL   H39911793   1.340   1.732   6.246 -0.2936 -3.5184 -1.2105
   28MOL   H40011794   1.374   1.760   6.414  0.0274 -1.0939  0.0748
   28MOL   C40111795   1.376   1.549   6.342  0.9483  0.6369 -0.4848
   28MOL   O40211796   1.455   1.493   6.452 -0.1595  0.5361  0.3471
   28MOL   C40311797   1.492   1.357   6.438 -0.5294 -0.2562 -0.4835
   28MOL   O40411798   1.525   1.313   6.565 -0.0339  0.3015 -0.2809
   28MOL   C40511799   1.562   1.180   6.574  0.9280 -0.7814 -0.1188
   28MOL   C40611800   1.605   1.140   6.700 -0.0083 -0.3371 -0.1080
   28MOL   C40711801   1.657   1.009   6.722 -0.2847  0.0613  0.3013
   28MOL   C40811802   1.646   0.910   6.624 -0.6587 -0.1206  0.1254
   28MOL   C40911803   1.589   0.946   6.498 -0.4815 -0.3145 -0.5108
   28MOL   C41011804   1.556   1.081   6.471 -0.0502  0.6020  0.5463
   28MOL   C41111805   1.229   1.523   6.391 -0.6911 -0.3316  0.1883
   28MOL   H41211806   1.394   1.502   6.245 -1.0811 -0.0752 -0.5413
   28MOL   H41311807   1.583   1.354   6.377 -1.0998 -0.6921 -1.3253
   28MOL   H41411808   1.410   1.293   6.408  0.7309 -3.2710  2.1965
   28MOL   H41511809   1.601   1.210   6.782 -0.7024  0.2309 -0.6348
   28MOL   H41611810   1.699   0.974   6.815 -0.7907 -1.1696  0.0773
   28MOL   H41711811   1.675   0.807   6.642 -0.5640 -0.0581  0.3273
   28MOL   H41811812   1.581   0.865   6.428  1.9110 -1.6418  0.6844
   28MOL   H41911813   1.525   1.106   6.371 -2.4685  0.7232  1.2920
   28MOL   H42011814   1.227   1.417   6.415  0.2038 -0.8527 -1.8757
   28MOL   H42111815   1.164   1.560   6.311 -0.0336 -0.0230 -0.2093
   28MOL   H42211816   1.199   1.571   6.484  1.7190  0.5029  0.5821
   29MOL     C111817   7.564   0.863   1.025  0.6108  0.1224  0.6533
   29MOL     O211818   7.601   0.987   0.979  0.3047  0.0536 -0.1199
   29MOL     C311819   7.537   1.033   0.866  0.1730  0.1881 -0.6696
   29MOL     O411820   7.402   1.049   0.887 -0.3008 -0.4109  0.1485
   29MOL     C511821   7.347   1.126   0.988 -0.0006  0.2779  0.7551
   29MOL     C611822   7.429   1.201   1.077 -0.2801  0.4994  0.4929
   29MOL     C711823   7.366   1.272   1.186 -0.4150  0.7502 -0.8615
   29MOL     C811824   7.226   1.279   1.202 -0.4783  0.2864  0.4412
   29MOL     C911825   7.152   1.201   1.111 -0.0836 -0.5212 -0.0637
   29MOL    C1011826   7.206   1.131   1.004  0.3155 -0.3290  0.1684
   29MOL    C1111827   7.654   0.816   1.142 -0.8470  0.5407 -0.1098
   29MOL    H1211828   7.456   0.865   1.034  0.5346  0.2089 -0.2051
   29MOL    H1311829   7.576   1.127   0.828 -0.1992 -0.1603 -1.9350
   29MOL    H1411830   7.552   0.956   0.791 -0.4196 -1.1612  0.5590
   29MOL    H1511831   7.537   1.193   1.073 -0.2907  0.5421  0.1513
   29MOL    H1611832   7.438   1.321   1.250  0.4860 -0.3403 -1.0103
   29MOL    H1711833   7.175   1.331   1.282 -0.0697  2.4611 -0.6672
   29MOL    H1811834   7.046   1.195   1.130 -0.0276  0.8771  0.7800
   29MOL    H1911835   7.138   1.069   0.948  0.2775 -1.2156  1.1636
   29MOL    H2011836   7.632   0.713   1.169 -1.6590  0.5706 -0.6439
   29MOL    H2111837   7.638   0.869   1.236 -1.4328 -0.3455  0.2993
   29MOL    H2211838   7.577   0.792   0.943  0.2833  1.4015 -0.5262
   29MOL    C2311839   7.800   0.818   1.108  0.5040 -0.3552 -0.6607
   29MOL    O2411840   7.828   0.709   1.021 -0.5347  0.1036  0.4468
   29MOL    C2511841   7.909   0.744   0.913  0.2211  0.2848 -1.2764
   29MOL    O2611842   7.844   0.836   0.830  0.5485  0.1968 -0.2431
   29MOL    C2711843   7.903   0.864   0.709  0.7913  0.4070 -0.1767
   29MOL    C2811844   7.843   0.959   0.626  0.2483 -0.3662  0.1504
   29MOL    C2911845   7.897   0.994   0.497 -0.0241  0.6708  0.2120
   29MOL    C3011846   0.041   0.937   0.463  0.1790 -0.3789 -0.2977
   29MOL    C3111847   0.115   0.856   0.544  0.5532 -0.0175  0.0567
   29MOL    C3211848   0.058   0.820   0.671 -0.2168  0.2616  0.1403
   29MOL    C3311849   7.880   0.800   1.231 -0.4091  0.3616 -0.0202
   29MOL    H3411850   7.826   0.913   1.060  2.5953 -0.7424 -0.3255
   29MOL    H3511851   7.919   0.646   0.867 -1.7017 -0.9872  0.9274
   29MOL    H3611852   0.030   0.775   0.953  0.6849 -0.7470 -1.6038
   29MOL    H3711853   7.748   1.002   0.654 -1.2889 -3.1959 -0.6273
   29MOL    H3811854   7.829   1.063   0.450  2.0446  0.2907 -3.5187
   29MOL    H3911855   0.089   0.972   0.372  2.4234  0.0249  0.9978
   29MOL    H4011856   0.221   0.840   0.529  0.3866  0.5389 -1.9222
   29MOL    H4111857   0.122   0.770   0.742 -0.5519  0.8544  0.8729
   29MOL    H4211858   0.003   0.761   1.204 -0.3605 -1.7680  2.9835
   29MOL    H4311859   7.837   0.715   1.284  0.4913 -0.3048 -0.3441
   29MOL    C4411860   7.914   0.923   1.315  0.2151 -0.3940 -0.4015
   29MOL    O4511861   0.025   1.007   1.227 -0.5822 -0.1147  0.1761
   29MOL    C4611862   0.029   1.142   1.250 -0.3263  0.3536 -0.1925
   29MOL    O4711863   7.884   1.203   1.235  1.3210  0.3560 -0.3562
   29MOL    C4811864   7.849   1.268   1.120  0.6010  0.4683  0.8451
   29MOL    C4911865   7.737   1.357   1.126  0.7435 -0.2352  0.3570
   29MOL    C5011866   7.689   1.419   1.008 -0.0605 -0.2902  0.4733
   29MOL    C5111867   7.757   1.390   0.887  0.2177 -0.0288  0.5410
   29MOL    C5211868   7.870   1.304   0.884 -0.5856  0.6290  0.8337
   29MOL    C5311869   7.917   1.246   1.000  0.1680 -0.3247  0.1897
   29MOL    C5411870   0.010   0.889   1.447 -0.3792  0.3661  0.8453
   29MOL    H5511871   7.827   0.982   1.341 -1.1106 -2.5333  0.1029
   29MOL    H5611872   0.099   1.200   1.191 -0.1225 -1.0439 -1.3264
   29MOL    H5711873   0.076   1.155   1.348  1.1738 -0.0151 -0.8589
   29MOL    H5811874   7.691   1.368   1.224 -0.8338 -1.0846 -0.2653
   29MOL    H5911875   7.597   1.476   1.011  1.6339  2.5519 -0.0651
   29MOL    H6011876   7.731   1.437   0.793 -1.1793  0.6096  1.2314
   29MOL    H6111877   7.914   1.286   0.786  1.1135 -0.1403  1.7110
   29MOL    H6211878   0.030   1.183   0.996  1.1476  1.1061 -1.2652
   29MOL    H6311879   7.940   0.799   1.490  1.4816  0.5924  3.4390
   29MOL    H6411880   0.108   0.850   1.417 -0.2844  0.7359  0.6736
   29MOL    C6511881   0.003   0.985   1.565 -0.1573 -0.3506  0.3482
   29MOL    O6611882   7.902   0.928   1.668 -0.3453 -0.2285 -0.1291
   29MOL    C6711883   7.784   0.989   1.704  0.2261  0.0700  0.1110
   29MOL    O6811884   7.699   1.011   1.586  0.2760 -0.1072  0.0095
   29MOL    C6911885   7.618   0.910   1.537  0.0397 -0.5500  0.1160
   29MOL    C7011886   7.654   0.778   1.543  0.5339 -0.5532  0.5163
   29MOL    C7111887   7.571   0.685   1.475 -0.1876  0.3643  0.1375
   29MOL    C7211888   7.446   0.718   1.420 -0.2885 -0.0672  0.0653
   29MOL    C7311889   7.414   0.853   1.413  0.5580  0.0019 -0.1937
   29MOL    C7411890   7.502   0.951   1.466  0.0428  0.5003  0.4711
   29MOL    C7511891   0.142   0.986   1.623 -0.1996  0.2700  0.2528
   29MOL    H7611892   7.948   1.085   1.533  4.3640  0.7460 -0.9924
   29MOL    H7711893   7.807   1.085   1.750 -0.2220 -0.3724  1.2644
   29MOL    H7811894   7.726   0.930   1.775  0.4665  0.1522  0.3736
   29MOL    H7911895   7.740   0.750   1.601  0.5414  0.8734  1.2034
   29MOL    H8011896   7.602   0.582   1.476  1.5574  0.8718 -0.3859
   29MOL    H8111897   7.383   0.638   1.383  0.7858  0.9246 -4.1511
   29MOL    H8211898   7.320   0.889   1.373  0.7417 -0.4832 -1.0752
   29MOL    H8311899   7.481   1.053   1.439  0.1770  0.2299 -0.6668
   29MOL    H8411900   0.168   0.886   1.658  2.8844  1.1375  0.5920
   29MOL    H8511901   0.207   1.015   1.540  0.1711 -0.1486  0.3913
   29MOL    C8611902   0.160   1.091   1.733  0.4783  0.2154  0.6002
   29MOL    O8711903   0.295   1.104   1.768  0.0560  0.7612  0.0766
   29MOL    C8811904   0.359   0.998   1.834  0.1797  0.7440 -0.9524
   29MOL    O8911905   0.387   0.884   1.762  0.3043 -0.4641 -0.3764
   29MOL    C9011906   0.489   0.883   1.676  0.1410  0.0215  0.9351
   29MOL    C9111907   0.558   0.996   1.629  0.4632 -0.8055  0.0357
   29MOL    C9211908   0.664   0.984   1.540 -0.1618  0.5433  0.0478
   29MOL    C9311909   0.702   0.855   1.493 -0.2057 -0.4915 -0.5061
   29MOL    C9411910   0.628   0.745   1.534 -0.4923 -0.0543 -0.1367
   29MOL    C9511911   0.521   0.754   1.629 -0.1870 -0.5680 -0.4857
   29MOL    C9611912   0.116   1.240   1.704 -0.1954  0.4114  0.0942
   29MOL    H9711913   0.104   1.055   1.820 -2.0833  0.8421 -0.7480
   29MOL    H9811914   0.293   0.958   1.910 -0.0819  1.7964 -0.6129
   29MOL    H9911915   0.448   1.030   1.887  1.5166 -3.2662 -0.6721
   29MOL   H10011916   0.534   1.095   1.663 -0.9473  0.0956 -3.4584
   29MOL   H10111917   0.711   1.077   1.513  0.6398 -0.1035 -0.7820
   29MOL   H10211918   0.785   0.857   1.423 -1.1083  1.6515 -1.5465
   29MOL   H10311919   0.658   0.656   1.480  0.0735 -0.5436  0.9763
   29MOL   H10411920   0.468   0.668   1.666 -1.8229  0.9959  0.8525
   29MOL   H10511921   0.172   1.278   1.619  2.3381  1.4216  2.1287
   29MOL   H10611922   0.010   1.244   1.679 -0.1158  0.8835 -0.1763
   29MOL   C10711923   0.144   1.339   1.822  0.1171  0.3168  0.5634
   29MOL   O10811924   0.116   1.462   1.761  0.2482  0.6084  0.2105
   29MOL   C10911925   0.224   1.532   1.708  0.2472 -0.0386  0.6357
   29MOL   O11011926   0.179   1.653   1.652  0.2435  0.1660 -0.3734
   29MOL   C11111927   0.120   1.649   1.527  0.3453  0.2780  0.9405
   29MOL   C11211928   0.089   1.538   1.446  0.2208 -0.0007 -0.5637
   29MOL   C11311929   0.039   1.550   1.318 -0.0793 -0.1509  0.5590
   29MOL   C11411930   0.015   1.675   1.270  0.1341 -0.0389 -0.1658
   29MOL   C11511931   0.028   1.790   1.348 -0.2236 -0.2397  1.0748
   29MOL   C11611932   0.077   1.775   1.479 -0.4302  0.4226 -0.9145
   29MOL   C11711933   0.061   1.318   1.941  0.7739  0.5592 -0.4443
   29MOL   H11811934   0.248   1.329   1.853  0.2366 -1.0706 -0.2365
   29MOL   H11911935   0.272   1.469   1.633  0.4410  0.3530  0.4269
   29MOL   H12011936   0.302   1.554   1.781  1.5274 -2.4472  0.0538
   29MOL   H12111937   0.118   1.439   1.479  2.2380  0.4290 -0.9581
   29MOL   H12211938   0.020   1.461   1.261 -5.3312  1.5291 -0.7033
   29MOL   H12311939   7.943   1.676   1.173  3.3409  1.6513 -1.8088
   29MOL   H12411940   7.970   1.889   1.323  0.6491  0.1738  1.5148
   29MOL   H12511941   0.094   1.854   1.551  2.3633  0.9885 -2.1514
   29MOL   H12611942   0.075   1.219   1.984 -2.1513 -0.1427 -0.9691
   29MOL   H12711943   7.931   1.334   1.916  0.6504  1.5945  0.7034
   29MOL   C12811944   0.082   1.424   2.056 -0.4581 -0.1500 -0.6247
   29MOL   O12911945   0.210   1.399   2.108 -0.6603  0.2379  0.4056
   29MOL   C13011946   0.280   1.507   2.160 -0.2934  0.0350 -0.4027
   29MOL   O13111947   0.325   1.483   2.288  0.1753 -0.1687  0.5793
   29MOL   C13211948   0.413   1.559   2.357  0.5657 -0.3789 -0.6135
   29MOL   C13311949   0.481   1.668   2.299 -0.4905 -0.8092 -0.5531
   29MOL   C13411950   0.573   1.736   2.377 -0.6422  0.1355 -0.3923
   29MOL   C13511951   0.605   1.699   2.510 -0.4978 -0.4580  0.4895
   29MOL   C13611952   0.536   1.594   2.565 -0.7389  0.0861  0.6571
   29MOL   C13711953   0.447   1.519   2.488  0.0451  0.1126  0.9610
   29MOL   C13811954   7.960   1.417   2.185  0.5486 -1.5127  0.2636
   29MOL   H13911955   0.074   1.524   2.013  0.6523 -0.0137 -0.5270
   29MOL   H14011956   0.222   1.599   2.160 -0.6593 -0.1800  0.9113
   29MOL   H14111957   0.361   1.533   2.092  0.1567 -1.0901 -0.3133
   29MOL   H14211958   0.475   1.694   2.195  0.2410  0.0538 -0.3925
   29MOL   H14311959   0.625   1.823   2.340  1.8663 -0.9749  0.4055
   29MOL   H14411960   0.685   1.751   2.560  0.6797 -0.8754 -0.8941
   29MOL   H14511961   0.557   1.557   2.664  1.7777  1.9130  0.8385
   29MOL   H14611962   0.405   1.426   2.524  0.0448 -0.7132 -1.0901
   29MOL   H14711963   7.961   1.314   2.221  0.7499 -1.3709  0.6679
   29MOL   H14811964   0.021   1.481   2.266  1.1849 -1.5481  0.0065
   29MOL   C14911965   7.812   1.445   2.149 -0.4234 -0.9095  0.6016
   29MOL   O15011966   7.731   1.385   2.248  0.4480 -0.3321 -0.1763
   29MOL   C15111967   7.673   1.259   2.211 -0.2287  0.1022  0.0862
   29MOL   O15211968   7.770   1.161   2.188  0.5938 -0.1810  0.0641
   29MOL   C15311969   7.805   1.090   2.303 -0.2085  0.3056 -0.6334
   29MOL   C15411970   7.873   0.966   2.293  0.3428  0.4037  0.9035
   29MOL   C15511971   7.923   0.888   2.400  0.0099 -0.4242  0.1054
   29MOL   C15611972   7.906   0.940   2.532  0.7866 -0.2549  0.0723
   29MOL   C15711973   7.842   1.066   2.552  0.2867 -0.3853 -0.7150
   29MOL   C15811974   7.798   1.139   2.438  0.0603  0.2819 -0.3920
   29MOL   C15911975   7.761   1.592   2.165  0.7533 -0.5770  0.3205
   29MOL   H16011976   7.783   1.414   2.048 -2.1643  2.3979  0.0212
   29MOL   H16111977   7.591   1.231   2.277  1.1954 -0.4335  1.6494
   29MOL   H16211978   7.636   1.280   2.110  2.1816  1.2261 -0.6051
   29MOL   H16311979   7.878   0.924   2.193  0.6091  1.3496  0.5068
   29MOL   H16411980   7.967   0.792   2.380 -0.8466 -0.7361 -0.3120
   29MOL   H16511981   7.930   0.876   2.616  0.5076 -2.2853 -1.3485
   29MOL   H16611982   7.827   1.116   2.647 -2.4762  0.9706 -1.8025
   29MOL   H16711983   7.756   1.238   2.445 -0.7115  0.0199 -1.2621
   29MOL   H16811984   7.779   1.612   2.271 -1.7280 -0.5712  0.7535
   29MOL   H16911985   7.653   1.594   2.153  0.6839 -2.1291  0.5983
   29MOL   C17011986   7.824   1.703   2.075 -0.0307 -0.0681  0.4731
   29MOL   O17111987   7.749   1.716   1.960 -0.1546 -0.1490  0.1016
   29MOL   C17211988   7.775   1.642   1.854  0.0676  0.0270  0.3143
   29MOL   O17311989   7.676   1.545   1.842  0.9377  0.4377  0.2478
   29MOL   C17411990   7.674   1.469   1.717 -0.4582  0.4567  0.2980
   29MOL   C17511991   7.787   1.452   1.633 -0.6834 -0.1856  0.5603
   29MOL   C17611992   7.773   1.374   1.518 -0.3228  0.3942 -0.6698
   29MOL   C17711993   7.649   1.314   1.480 -0.6398 -1.0155 -0.7581
   29MOL   C17811994   7.536   1.332   1.562  0.0007 -0.2288 -0.0498
   29MOL   C17911995   7.549   1.408   1.682  0.3939 -0.6777  0.5050
   29MOL   C18011996   7.836   1.839   2.151 -0.1125 -0.0651 -0.1166
   29MOL   H18111997   7.927   1.680   2.049 -0.2960  0.5279 -1.1741
   29MOL   H18211998   7.877   1.604   1.865  0.9534  1.5710 -2.1919
   29MOL   H18311999   7.772   1.705   1.765 -1.4409 -1.3640 -0.6573
   29MOL   H18412000   7.883   1.491   1.664  0.2451 -1.9294 -0.0568
   29MOL   H18512001   7.866   1.360   1.464  1.7291  1.0402  2.6003
   29MOL   H18612002   7.643   1.255   1.390 -1.0844  1.2600 -2.2586
   29MOL   H18712003   7.443   1.280   1.543 -1.3697  1.4200  1.9027
   29MOL   H18812004   7.467   1.436   1.746  0.7047  0.6400  0.3475
   29MOL   H18912005   7.737   1.885   2.157  1.4184  3.1575  1.1833
   29MOL   H19012006   7.869   1.818   2.253  1.6169  2.2695 -0.1745
   29MOL   C19112007   7.937   1.936   2.087 -0.1703 -0.1946 -0.3974
   29MOL   O19212008   0.093   1.883   2.089 -0.0568  0.4468 -0.2623
   29MOL   C19312009   0.165   1.896   1.973  0.1496  0.2097 -0.2085
   29MOL   O19412010   0.274   1.807   1.982 -0.3112 -0.0913  0.1580
   29MOL   C19512011   0.365   1.816   1.881 -0.5520  0.4777  0.2908
   29MOL   C19612012   0.340   1.878   1.758  1.2999 -0.5485  0.0382
   29MOL   C19712013   0.438   1.881   1.661  0.1960  0.6305  0.1685
   29MOL   C19812014   0.565   1.834   1.685 -0.4259  0.3179  0.3963
   29MOL   C19912015   0.597   1.774   1.813 -0.5869  0.7564 -0.1383
   29MOL   C20012016   0.494   1.764   1.908 -0.5571 -0.0991  0.0763
   29MOL   C20112017   7.958   2.079   2.152  0.3265 -0.4363 -0.6380
   29MOL   H20212018   7.907   1.946   1.982  1.2433 -0.5769 -0.8542
   29MOL   H20312019   0.199   1.999   1.958  2.8336 -0.5767  0.1344
   29MOL   H20412020   0.104   1.865   1.889 -0.4121 -1.0057  0.6299
   29MOL   H20512021   0.246   1.928   1.737  1.8359  1.4931  2.2425
   29MOL   H20612022   0.419   1.924   1.563 -0.9518  0.2701  0.2254
   29MOL   H20712023   0.640   1.830   1.607 -0.8549  0.9711 -0.0563
   29MOL   H20812024   0.694   1.730   1.831 -0.8483  0.9766  1.9719
   29MOL   H20912025   0.521   1.715   2.001 -3.1189 -1.6141  0.0697
   29MOL   H21012026   0.082   2.117   2.128  0.9893 -2.3561 -1.0055
   29MOL   H21112027   7.900   2.153   2.097 -0.4440  0.1250  0.9007
   29MOL   C21212028   7.930   2.099   2.303 -0.0625 -0.3109 -0.1498
   29MOL   O21312029   0.070   2.057   2.379  0.0908 -0.4465  0.2093
   29MOL   C21412030   0.101   1.929   2.426  0.4471  0.6483  0.0062
   29MOL   O21512031   7.965   1.880   2.500 -0.8314  0.4842  0.1207
   29MOL   C21612032   7.963   1.742   2.522 -0.0013 -0.1040  0.9932
   29MOL   C21712033   0.106   1.659   2.530  0.1530 -0.0362  0.2438
   29MOL   C21812034   0.090   1.525   2.566  0.4080 -0.3342  0.5415
   29MOL   C21912035   7.939   1.465   2.603 -0.6119  0.2374  0.6609
   29MOL   C22012036   7.825   1.548   2.599 -0.2803  0.2401 -0.4655
   29MOL   C22112037   7.838   1.683   2.554 -0.3844 -0.1172 -0.2491
   29MOL   C22212038   7.921   2.251   2.348  0.4527 -0.0708  0.6800
   29MOL   H22312039   7.844   2.040   2.331  0.8490 -1.0721  1.1004
   29MOL   H22412040   0.189   1.948   2.487  0.2158 -0.9915  0.8750
   29MOL   H22512041   0.122   1.855   2.349 -1.8180 -1.8330  1.6999
   29MOL   H22612042   0.207   1.693   2.513  1.1330 -2.6584  0.6305
   29MOL   H22712043   0.181   1.467   2.560 -0.2748 -1.4738  1.0465
   29MOL   H22812044   7.933   1.370   2.654 -1.6129  0.4461  0.9457
   29MOL   H22912045   7.732   1.507   2.637 -0.4365 -0.7407 -1.9010
   29MOL   H23012046   7.751   1.747   2.555 -0.8772 -0.7718 -0.6882
   29MOL   H23112047   0.033   2.298   2.306  1.3259  0.7124  3.2556
   29MOL   H23212048   7.848   2.312   2.295 -0.0079 -0.7737  0.5021
   29MOL   C23312049   7.909   2.272   2.500  0.2752 -0.9048 -0.2312
   29MOL   O23412050   7.937   2.413   2.511 -0.1928 -0.6739  0.2702
   29MOL   C23512051   0.000   2.469   2.632  0.5142  0.4910  0.6640
   29MOL   O23612052   0.123   2.423   2.678  0.4875 -0.1745  0.5927
   29MOL   C23712053   0.240   2.469   2.615 -0.0851  0.6387 -0.9321
   29MOL   C23812054   0.359   2.434   2.679  0.2349  0.4527  0.1571
   29MOL   C23912055   0.487   2.468   2.623 -0.0445  0.2023 -0.1285
   29MOL   C24012056   0.486   2.527   2.493 -0.3736 -0.1858 -0.3480
   29MOL   C24112057   0.365   2.573   2.437 -0.8953 -0.5910 -0.1176
   29MOL   C24212058   0.244   2.531   2.495 -0.1158  0.0607  0.7578
   29MOL   C24312059   7.790   2.210   2.573 -0.2070 -0.5409 -0.1007
   29MOL   H24412060   0.009   2.209   2.549  0.2405  0.0405  1.0594
   29MOL   H24512061   7.913   2.421   2.707  0.4159 -0.1843  0.1398
   29MOL   H24612062   7.974   2.578   2.633  3.0951  0.6540 -3.1470
   29MOL   H24712063   0.371   2.388   2.777  0.1522  2.5811  1.1937
   29MOL   H24812064   0.574   2.436   2.678  1.2804  2.9583 -0.5699
   29MOL   H24912065   0.580   2.536   2.440  0.5205 -1.2836  1.0046
   29MOL   H25012066   0.362   2.628   2.344 -1.8517 -0.1668  0.1556
   29MOL   H25112067   0.156   2.565   2.442  0.9683 -2.0964 -2.6125
   29MOL   H25212068   7.804   2.104   2.556  0.1379 -0.1632 -2.2945
   29MOL   H25312069   7.779   2.234   2.679 -0.7974 -1.9334  0.1667
   29MOL   C25412070   7.648   2.227   2.510  0.6103 -0.1329  0.2658
   29MOL   O25512071   7.564   2.138   2.578  0.2579  0.5707 -0.1982
   29MOL   C25612072   7.534   2.023   2.501 -0.5950  0.3855 -1.0692
   29MOL   O25712073   7.469   2.040   2.381 -0.1170  0.2932 -0.0787
   29MOL   C25812074   7.330   2.053   2.380  0.0557  0.5779  0.9247
   29MOL   C25912075   7.265   2.031   2.256 -0.2976 -0.1419  1.3450
   29MOL   C26012076   7.128   2.038   2.250 -0.3247  0.4177  0.9557
   29MOL   C26112077   7.053   2.050   2.362 -0.0587  0.4385  0.2472
   29MOL   C26212078   7.112   2.065   2.490 -0.7661  0.3612 -0.3777
   29MOL   C26312079   7.253   2.065   2.499  0.2429 -0.7923  0.9539
   29MOL   C26412080   7.610   2.374   2.550 -0.5102  0.0229  0.4194
   29MOL   H26512081   7.655   2.225   2.401  2.3182 -0.4355  0.3696
   29MOL   H26612082   7.467   1.963   2.561 -1.5826  2.8068  0.3293
   29MOL   H26712083   7.621   1.963   2.476  1.2370  1.6987  1.8512
   29MOL   H26812084   7.323   2.021   2.166 -0.2672 -0.2430  1.3759
   29MOL   H26912085   7.077   2.034   2.155  0.7600  0.2588  0.3692
   29MOL   H27012086   6.945   2.059   2.359 -0.0722  0.9400  1.8942
   29MOL   H27112087   7.058   2.079   2.583  0.1259 -2.9735  0.7301
   29MOL   H27212088   7.287   2.074   2.601  0.2370 -1.8545  1.0530
   29MOL   H27312089   7.608   2.384   2.658 -2.8960  2.6862  0.2002
   29MOL   H27412090   7.684   2.440   2.505  0.2640 -0.1572  1.4363
   29MOL   C27512091   7.479   2.435   2.488 -0.3869  0.0514  0.5005
   29MOL   O27612092   7.463   2.567   2.513 -0.1507  0.1319 -0.2701
   29MOL   C27712093   7.400   2.606   2.632  0.4257  0.2445 -0.3267
   29MOL   O27812094   7.456   2.567   2.756 -0.4868  0.2700  0.1911
   29MOL   C27912095   7.583   2.607   2.792  0.3317 -0.0207  0.1393
   29MOL   C28012096   7.627   2.568   2.916 -0.0108 -0.7808  0.0198
   29MOL   C28112097   7.750   2.618   2.969 -0.7426  0.2296  0.8242
   29MOL   C28212098   7.826   2.702   2.890 -0.2253  0.4412  0.0747
   29MOL   C28312099   7.785   2.744   2.763 -0.4337  0.1138 -0.5676
   29MOL   C28412100   7.667   2.690   2.709 -0.4289 -0.0457 -0.5545
   29MOL   C28512101   7.466   2.417   2.335 -0.5971  0.6938  0.4375
   29MOL   H28612102   7.404   2.368   2.532  1.8128 -2.4214  0.5886
   29MOL   H28712103   7.304   2.556   2.622 -0.0016  0.9805  0.0863
   29MOL   H28812104   7.387   2.714   2.633  0.7739  0.3496 -3.1062
   29MOL   H28912105   7.572   2.494   2.972  0.4594 -0.8505  0.3930
   29MOL   H29012106   7.775   2.586   3.069  1.0475  1.6630  0.8430
   29MOL   H29112107   7.915   2.748   2.932 -0.6210  1.3191 -0.0398
   29MOL   H29212108   7.837   2.817   2.702 -1.2709  1.4510  0.3154
   29MOL   H29312109   7.645   2.721   2.608  0.3178 -1.2073 -1.0929
   29MOL   H29412110   7.467   2.310   2.314  0.6764  0.8228 -0.2374
   29MOL   H29512111   7.554   2.451   2.280 -1.5493  2.0621 -0.2404
   29MOL   C29612112   7.333   2.480   2.283  0.1127 -0.2861  0.0654
   29MOL   O29712113   7.344   2.489   2.142  0.1626 -0.5388  0.2978
   29MOL   C29812114   7.396   2.604   2.097  0.2562  0.2376 -0.2367
   29MOL   O29912115   7.308   2.706   2.097 -0.2628 -0.0993 -0.2156
   29MOL   C30012116   7.324   2.801   2.004 -0.0180  0.1717 -0.0751
   29MOL   C30112117   7.442   2.830   1.929  0.4585  0.3517  0.2528
   29MOL   C30212118   7.442   2.936   1.838  0.1059 -0.7784  0.4192
   29MOL   C30312119   7.329   3.016   1.822  0.5411  0.6458  0.0804
   29MOL   C30412120   7.218   2.999   1.901  0.0171 -0.2586 -0.5607
   29MOL   C30512121   7.214   2.892   1.988  0.1953  1.1789 -0.4500
   29MOL   C30612122   7.193   2.417   2.323  0.7827 -0.3566  0.5184
   29MOL   H30712123   7.317   2.583   2.315  1.1602  0.9003 -3.0141
   29MOL   H30812124   7.422   2.593   1.992  0.2813  3.1461 -0.5679
   29MOL   H30912125   7.483   2.631   2.158 -1.3302  2.8188  0.9815
   29MOL   H31012126   7.535   2.776   1.942 -0.8787 -1.9738  0.4667
   29MOL   H31112127   7.535   2.959   1.789 -0.6379 -1.9925 -1.6507
   29MOL   H31212128   7.334   3.104   1.760  3.3846  1.9903  2.1357
   29MOL   H31312129   7.132   3.063   1.889 -0.5672 -0.9974 -0.3320
   29MOL   H31412130   7.130   2.869   2.051  0.5386  1.4056  0.0996
   29MOL   H31512131   7.209   2.375   2.423 -1.4183 -1.8397  0.2770
   29MOL   H31612132   7.185   2.327   2.263 -0.0139  0.2523 -0.2926
   29MOL   C31712133   7.064   2.500   2.301 -0.9000  0.2951 -0.1167
   29MOL   O31812134   7.061   2.609   2.391 -0.2273  0.8620 -0.2945
   29MOL   C31912135   7.001   2.727   2.337 -0.1500 -0.3355 -0.1887
   29MOL   O32012136   7.019   2.826   2.437  0.1207 -0.7470 -0.0977
   29MOL   C32112137   6.971   2.954   2.403  0.3628  0.3421  0.1047
   29MOL   C32212138   6.964   3.008   2.268 -0.7991  0.2527 -0.5516
   29MOL   C32312139   6.914   3.136   2.254 -0.2626  0.5962 -0.4392
   29MOL   C32412140   6.870   3.209   2.362  0.1078 -0.7204 -0.5360
   29MOL   C32512141   6.877   3.161   2.490  0.4903  0.8242 -0.1612
   29MOL   C32612142   6.933   3.035   2.511 -0.7566 -0.7182 -0.2470
   29MOL   C32712143   6.952   2.394   2.319 -0.0093 -0.1472 -0.0549
   29MOL   H32812144   7.072   2.544   2.202 -0.4566 -0.1592 -0.2845
   29MOL   H32912145   6.896   2.716   2.314 -0.9938  0.5034  3.0450
   29MOL   H33012146   7.054   2.756   2.246  0.2527 -2.0901 -0.5473
   29MOL   H33112147   7.007   2.950   2.187 -1.9074 -1.9126  0.3589
   29MOL   H33212148   6.911   3.177   2.154  0.2121  0.0705 -0.6693
   29MOL   H33312149   6.823   3.306   2.350 -0.1284 -1.0006 -1.9915
   29MOL   H33412150   6.833   3.213   2.574  0.3830  2.0885 -0.9909
   29MOL   H33512151   6.943   2.997   2.611 -2.1512 -0.0453  0.1648
   29MOL   H33612152   6.958   2.311   2.248 -1.3875 -2.4012  2.3945
   29MOL   H33712153   6.978   2.341   2.411  0.4472  1.6495  0.8688
   29MOL   C33812154   6.806   2.439   2.304 -0.1602 -0.1347  0.5596
   29MOL   O33912155   6.786   2.478   2.169 -0.4823  0.0195  0.6484
   29MOL   C34012156   6.673   2.547   2.139 -0.4866 -0.1710  0.3883
   29MOL   O34112157   6.691   2.679   2.159  0.2872 -0.4042  0.8851
   29MOL   C34212158   6.746   2.750   2.054  0.1136  0.2733  0.1954
   29MOL   C34312159   6.685   2.872   2.016  0.5986 -0.5078 -0.4275
   29MOL   C34412160   6.730   2.943   1.907  0.4792 -0.3294 -0.2178
   29MOL   C34512161   6.836   2.899   1.824  0.1946  0.0002  0.2857
   29MOL   C34612162   6.893   2.773   1.869  0.3921 -0.3252 -0.1914
   29MOL   C34712163   6.853   2.702   1.977  0.0620  0.4402  0.2545
   29MOL   C34812164   6.709   2.335   2.356 -0.4377  0.2900  0.4699
   29MOL   H34912165   6.783   2.527   2.364 -1.7921  1.2214 -1.9876
   29MOL   H35012166   6.594   2.504   2.200 -0.4772 -0.9133 -0.1156
   29MOL   H35112167   6.648   2.521   2.036  2.5709  1.1902 -0.7613
   29MOL   H35212168   6.598   2.909   2.068  0.5572 -0.4160 -0.5618
   29MOL   H35312169   6.687   3.039   1.881 -0.3162 -0.6246 -0.0132
   29MOL   H35412170   6.879   2.954   1.742 -1.9082  0.3264 -0.6392
   29MOL   H35512171   6.968   2.727   1.806  0.8275  0.5368 -0.3057
   29MOL   H35612172   6.901   2.609   2.004  0.2525  0.6192  0.5345
   29MOL   H35712173   6.693   2.254   2.285 -0.9724  1.2669 -0.5287
   29MOL   H35812174   6.614   2.385   2.372 -0.5564 -0.7232  3.3109
   29MOL   C35912175   6.730   2.262   2.492  0.7600 -0.5926 -0.5341
   29MOL   O36012176   6.638   2.151   2.503  0.3401  0.1586 -0.3185
   29MOL   C36112177   6.661   2.021   2.459  0.0970  0.5755 -0.4432
   29MOL   O36212178   6.658   2.015   2.323  0.3353  0.0302 -0.6955
   29MOL   C36312179   6.565   1.935   2.263  0.1295 -0.5038 -0.6463
   29MOL   C36412180   6.605   1.878   2.140 -0.0156 -0.8521 -0.5878
   29MOL   C36512181   6.513   1.787   2.073 -0.2853 -0.5902 -0.3210
   29MOL   C36612182   6.382   1.775   2.116  0.2409 -0.3433  0.0515
   29MOL   C36712183   6.332   1.843   2.231 -0.5474 -0.3611  0.6376
   29MOL   C36812184   6.427   1.921   2.304 -0.0847  0.0614  0.0972
   29MOL   C36912185   6.700   2.344   2.614 -0.7562 -0.1187 -0.5714
   29MOL   H37012186   6.830   2.220   2.498  1.6226  1.5333  0.6620
   29MOL   H37112187   6.601   1.955   2.522 -0.0343  0.7483 -0.3856
   29MOL   H37212188   6.764   1.997   2.487 -1.4253 -3.0528  2.4994
   29MOL   H37312189   6.711   1.882   2.121  0.0139  0.3654 -0.1752
   29MOL   H37412190   6.542   1.731   1.985 -1.0404 -2.1440  0.4150
   29MOL   H37512191   6.316   1.714   2.056  1.3443 -0.0371 -1.4922
   29MOL   H37612192   6.229   1.839   2.263 -0.7465  0.5076  0.1209
   29MOL   H37712193   6.393   1.975   2.391 -2.0679  0.6220 -0.9817
   29MOL   H37812194   6.666   2.278   2.694 -0.1635 -0.7956 -0.8792
   29MOL   H37912195   6.607   2.396   2.592 -0.4536  0.0435 -1.4652
   29MOL   C38012196   6.808   2.436   2.666 -0.6499 -0.6340 -0.3174
   29MOL   O38112197   6.913   2.344   2.692  0.2377 -0.1893 -0.6675
   29MOL   C38212198   7.048   2.388   2.697  0.0241 -0.3602 -0.5277
   29MOL   O38312199   7.075   2.441   2.817 -0.3682 -0.3143  0.0191
   29MOL   C38412200   7.100   2.574   2.836  0.6769  0.6069 -0.3279
   29MOL   C38512201   7.078   2.676   2.742 -0.1998  0.2700  0.2275
   29MOL   C38612202   7.107   2.811   2.774 -1.1229 -0.2945 -0.1086
   29MOL   C38712203   7.152   2.844   2.905  0.3714 -0.5775  0.0266
   29MOL   C38812204   7.179   2.738   2.998 -0.3146 -0.5606 -0.0842
   29MOL   C38912205   7.151   2.606   2.960  0.3668  0.0279  0.5591
   29MOL   C39012206   6.757   2.516   2.792 -0.5874  0.3447  0.3011
   29MOL   H39112207   6.835   2.495   2.579  1.2506 -1.7201 -0.5037
   29MOL   H39212208   7.109   2.298   2.693 -1.0656 -1.0966 -0.7443
   29MOL   H39312209   7.067   2.450   2.610  1.7423  2.3303  1.6871
   29MOL   H39412210   7.049   2.657   2.640  0.4969 -1.6679  0.3678
   29MOL   H39512211   7.106   2.893   2.704 -0.0184  0.5170  0.7985
   29MOL   H39612212   7.185   2.945   2.920 -1.2954 -0.1097  0.6233
   29MOL   H39712213   7.220   2.763   3.095 -1.7929  0.8048  0.2076
   29MOL   H39812214   7.166   2.528   3.033  1.1596  0.0179  0.3827
   29MOL   H39912215   6.836   2.544   2.861  1.0347 -2.3636 -0.3883
   29MOL   H40012216   6.691   2.457   2.855  1.5988 -1.6053  0.8165
   29MOL   C40112217   6.671   2.633   2.749 -0.0965  0.1108  0.1745
   29MOL   O40212218   6.611   2.688   2.863 -0.0448  0.7614 -0.2408
   29MOL   C40312219   6.474   2.704   2.853 -0.7749  0.6550  0.1495
   29MOL   O40412220   6.406   2.588   2.819  0.0999  0.5685 -0.3442
   29MOL   C40512221   6.381   2.489   2.917  0.6532  0.6415  0.8565
   29MOL   C40612222   6.442   2.486   3.042  0.2190  0.0295 -0.3142
   29MOL   C40712223   6.408   2.379   3.128  0.1396 -1.0331  0.3462
   29MOL   C40812224   6.313   2.285   3.088  0.0137  0.6423  0.8000
   29MOL   C40912225   6.248   2.294   2.966  0.0950  0.0587 -0.7417
   29MOL   C41012226   6.286   2.396   2.876  0.9399  0.4247  0.4607
   29MOL   C41112227   6.754   2.747   2.697 -0.1296 -0.3012  0.2680
   29MOL   H41212228   6.602   2.594   2.674  0.1466  1.2239 -0.6456
   29MOL   H41312229   6.452   2.782   2.780  0.6838  0.2535 -0.7334
   29MOL   H41412230   6.433   2.746   2.944  0.9123 -0.5282  1.4801
   29MOL   H41512231   6.510   2.556   3.088 -1.2856 -0.1613  2.3170
   29MOL   H41612232   6.439   2.375   3.231 -1.6246  0.2430  0.9474
   29MOL   H41712233   6.273   2.214   3.160  0.2714 -0.1434  0.1701
   29MOL   H41812234   6.159   2.234   2.953  0.8372 -0.9667 -1.0806
   29MOL   H41912235   6.233   2.410   2.783  0.7308  4.5664  1.1046
   29MOL   H42012236   6.836   2.782   2.759 -0.8959  3.7772 -0.8703
   29MOL   H42112237   6.697   2.839   2.683  1.0865  0.4414  0.1707
   29MOL   H42212238   6.807   2.724   2.605  0.2827 -1.7014  0.8498
   30MOL     C112239   7.851   7.258   2.036  0.4436 -0.2542  0.2778
   30MOL     O212240   7.839   7.122   2.076  0.1779  0.1665  0.2550
   30MOL     C312241   7.711   7.076   2.038 -0.8915  0.1091  0.0452
   30MOL     O412242   7.604   7.125   2.128  0.0641  0.0298  0.5757
   30MOL     C512243   7.474   7.094   2.095  0.6814 -0.1563 -0.4903
   30MOL     C612244   7.436   7.018   1.984  0.2114 -0.4707  0.2780
   30MOL     C712245   7.301   6.973   1.972  0.7051 -0.6496 -0.3386
   30MOL     C812246   7.204   7.017   2.062 -0.4968 -0.8259 -0.6895
   30MOL     C912247   7.235   7.099   2.170  0.2364 -0.2809  0.0998
   30MOL    C1012248   7.370   7.144   2.184  0.0062  0.4122 -0.5967
   30MOL    C1112249   0.003   7.330   2.086  0.0486  0.6417  0.7689
   30MOL    H1212250   7.854   7.258   1.927 -0.6852  2.2657  0.2302
   30MOL    H1312251   7.685   7.100   1.935  0.4333 -2.3749 -0.9179
   30MOL    H1412252   7.706   6.967   2.042 -0.2624  0.0388 -0.9581
   30MOL    H1512253   7.501   6.987   1.904  1.1571 -0.5357  1.0608
   30MOL    H1612254   7.260   6.928   1.883  0.7631  0.8714 -1.1555
   30MOL    H1712255   7.105   6.973   2.053 -1.5556  1.4566 -0.4370
   30MOL    H1812256   7.165   7.126   2.248 -0.4424 -1.6475 -0.0151
   30MOL    H1912257   7.390   7.203   2.272  1.3400  0.3425 -0.8505
   30MOL    H2012258   0.097   7.288   2.050  1.1512  3.4282  0.2821
   30MOL    H2112259   7.972   7.316   2.194  0.8364 -2.7197  0.4396
   30MOL    H2212260   7.768   7.318   2.074 -0.4277  0.1381 -2.1657
   30MOL    C2312261   7.967   7.481   2.043  0.0897  0.2193  0.2016
   30MOL    O2412262   7.918   7.492   1.905  0.0274 -0.6727 -1.0388
   30MOL    C2512263   7.829   7.598   1.875  0.0291 -0.2123  0.0870
   30MOL    O2612264   7.704   7.577   1.930 -0.4473 -0.7355  0.0840
   30MOL    C2712265   7.622   7.468   1.893 -0.3327  0.2305 -0.9234
   30MOL    C2812266   7.650   7.389   1.773  0.1035  0.8335 -0.9219
   30MOL    C2912267   7.556   7.300   1.734 -0.1090  0.1531  0.5333
   30MOL    C3012268   7.433   7.286   1.809 -0.2937  0.1082  0.2765
   30MOL    C3112269   7.411   7.368   1.926  0.1580  0.8168  0.1791
   30MOL    C3212270   7.508   7.458   1.975 -0.5561 -0.0798  0.3209
   30MOL    C3312271   0.126   7.547   2.042 -0.2240 -0.3859 -0.2298
   30MOL    H3412272   7.897   7.521   2.116 -0.9212 -1.4106  0.1702
   30MOL    H3512273   7.822   7.611   1.767  2.1707 -1.9253 -0.3023
   30MOL    H3612274   7.879   7.686   1.916  0.2563  0.8129 -2.2958
   30MOL    H3712275   7.741   7.404   1.716 -0.5323 -0.8562 -2.4437
   30MOL    H3812276   7.568   7.235   1.648  0.5176  1.5634 -0.4557
   30MOL    H3912277   7.356   7.221   1.772  0.5421 -1.1389  0.7189
   30MOL    H4012278   7.320   7.367   1.984  1.1351 -0.2277  1.7681
   30MOL    H4112279   7.499   7.523   2.061 -0.3299  0.3388  0.0323
   30MOL    H4212280   0.125   7.638   1.982 -0.5858 -0.0672  0.2623
   30MOL    H4312281   0.193   7.470   2.002  0.0798 -0.7820  1.0429
   30MOL    C4412282   0.182   7.589   2.177  0.4710  0.6376 -0.7655
   30MOL    O4512283   0.175   7.482   2.278  0.6875 -0.6436  0.0642
   30MOL    C4612284   0.295   7.403   2.275 -0.0911 -0.3636  0.3868
   30MOL    O4712285   0.410   7.468   2.307 -0.1912  0.1091 -0.0249
   30MOL    C4812286   0.526   7.409   2.265 -0.2247  0.1530  0.3478
   30MOL    C4912287   0.542   7.270   2.240 -0.0435 -0.2286 -0.1651
   30MOL    C5012288   0.663   7.213   2.186  0.2570  0.1306  0.1567
   30MOL    C5112289   0.765   7.305   2.150 -0.0863 -0.4870  0.3268
   30MOL    C5212290   0.756   7.448   2.171 -0.9243 -0.5574  0.2513
   30MOL    C5312291   0.640   7.495   2.234 -0.2449  0.3303 -0.0728
   30MOL    C5412292   0.121   7.721   2.235  0.3534  0.0570  0.4089
   30MOL    H5512293   0.288   7.611   2.162  0.4506  1.6417  0.4789
   30MOL    H5612294   0.304   7.372   2.171  0.9932 -0.6515  0.5619
   30MOL    H5712295   0.289   7.324   2.350 -1.8693  2.2607  3.1279
   30MOL    H5812296   0.460   7.200   2.254 -0.5938  0.2834 -0.7715
   30MOL    H5912297   0.667   7.108   2.160  2.0138  0.5768 -1.5475
   30MOL    H6012298   0.850   7.270   2.093  0.4179 -0.2831  0.9435
   30MOL    H6112299   0.833   7.518   2.140 -1.5682 -0.9103 -2.2977
   30MOL    H6212300   0.636   7.602   2.246  1.1971  0.5099 -1.0801
   30MOL    H6312301   0.144   7.800   2.163 -0.9867 -0.4651 -0.6140
   30MOL    H6412302   0.013   7.714   2.235  0.3586 -0.1139 -0.3285
   30MOL    C6512303   0.183   7.774   2.368 -0.9294  0.1282  0.0481
   30MOL    O6612304   0.325   7.770   2.382 -0.3473  0.5009 -0.8329
   30MOL    C6712305   0.403   7.857   2.303 -0.4590  0.1617  0.4027
   30MOL    O6812306   0.356   7.881   2.169 -0.3838  0.1545 -0.5463
   30MOL    C6912307   0.410   0.017   2.100  1.1710  0.3621  0.4442
   30MOL    C7012308   0.519   0.094   2.147  0.4886  0.7996  0.3576
   30MOL    C7112309   0.558   0.201   2.068 -0.0607  0.0864 -0.6200
   30MOL    C7212310   0.501   0.232   1.943 -0.4419 -0.2363  0.3139
   30MOL    C7312311   0.409   0.138   1.892 -0.4238  0.0674 -0.1334
   30MOL    C7412312   0.360   0.034   1.975  0.1623  0.0237  0.3369
   30MOL    C7512313   0.121   7.904   2.417  0.3630 -0.0251 -0.0216
   30MOL    H7612314   0.141   7.700   2.436  0.8929  0.2219  1.3242
   30MOL    H7712315   0.500   7.807   2.299 -0.5942  0.0145 -1.7990
   30MOL    H7812316   0.425   7.944   2.364  0.0445 -1.8033  3.1481
   30MOL    H7912317   0.566   0.060   2.238 -1.5397 -1.6887  0.5177
   30MOL    H8012318   0.635   0.263   2.112 -0.3272  0.2294 -0.3492
   30MOL    H8112319   0.529   0.313   1.876 -0.9493 -1.0648 -0.9180
   30MOL    H8212320   0.364   0.155   1.795 -1.1332  0.0863  0.1948
   30MOL    H8312321   0.284   7.945   1.931 -0.0298  0.6795 -0.3091
   30MOL    H8412322   0.131   0.008   2.343  1.0805 -0.3830 -0.3126
   30MOL    H8512323   0.013   7.895   2.421  0.4489 -0.9893  0.1596
   30MOL    C8612324   0.190   7.955   2.550  0.1964  0.8233  0.3979
   30MOL    O8712325   0.172   0.128   2.559  0.2128 -0.5169  0.5061
   30MOL    C8812326   0.258   0.212   2.488 -0.2316  0.1870 -0.1499
   30MOL    O8912327   0.203   0.337   2.462  0.7577  0.3436 -0.2854
   30MOL    C9012328   0.204   0.439   2.560 -0.2697 -0.3695 -0.1509
   30MOL    C9112329   0.249   0.427   2.695 -0.0939 -0.2542  0.1992
   30MOL    C9212330   0.270   0.546   2.778 -0.2166 -0.3770 -0.0268
   30MOL    C9312331   0.259   0.677   2.721  0.4156 -0.9871 -0.0482
   30MOL    C9412332   0.217   0.684   2.589 -0.3606  0.3992 -0.1768
   30MOL    C9512333   0.193   0.569   2.511  0.3356  0.6955 -0.2533
   30MOL    C9612334   0.121   7.895   2.676  0.7297 -0.7388  0.4755
   30MOL    H9712335   0.297   7.933   2.552  0.1670  0.7129  0.7300
   30MOL    H9812336   0.270   0.171   2.388 -1.0823 -1.9955  0.6106
   30MOL    H9912337   0.350   0.225   2.545 -1.4942  0.9244  1.7711
   30MOL   H10012338   0.269   0.325   2.724  1.2643  0.3054  1.2550
   30MOL   H10112339   0.301   0.536   2.880  1.6694 -1.8368 -0.7125
   30MOL   H10212340   0.283   0.764   2.780  0.4214 -2.2438  1.8559
   30MOL   H10312341   0.207   0.778   2.537 -0.9592  0.4648  0.0490
   30MOL   H10412342   0.155   0.577   2.410  1.3489 -2.2350 -0.9437
   30MOL   H10512343   0.023   7.942   2.678  0.0828 -2.0077 -0.7793
   30MOL   H10612344   0.113   7.788   2.658 -1.1469 -0.3590 -1.1737
   30MOL   C10712345   0.198   7.919   2.808 -0.4116 -0.0684  0.6465
   30MOL   O10812346   0.122   7.911   2.926 -0.5062 -0.2052 -0.2400
   30MOL   C10912347   0.027   0.040   2.949 -0.1544  0.7743 -0.5277
   30MOL   O11012348   0.085   0.166   2.966 -0.0199  0.4142 -0.5935
   30MOL   C11112349   0.121   0.200   3.101  0.2280  0.4179  0.8295
   30MOL   C11212350   0.129   0.100   3.205 -0.5709  0.7972  0.2498
   30MOL   C11312351   0.173   0.135   3.334 -0.0148 -0.3189  0.6013
   30MOL   C11412352   0.210   0.263   3.357 -0.5880  0.4344 -0.4860
   30MOL   C11512353   0.215   0.354   3.256 -0.2932 -0.0924  0.3397
   30MOL   C11612354   0.157   0.331   3.126  0.0547 -0.4142 -0.2667
   30MOL   C11712355   0.325   7.828   2.824  0.7021  0.8015 -0.0850
   30MOL   H11812356   0.228   0.048   2.805  0.4270 -0.1740  3.6876
   30MOL   H11912357   7.926   0.017   3.023  2.5330 -3.8214  1.0498
   30MOL   H12012358   7.943   0.039   2.858  0.0624 -1.4932 -0.6761
   30MOL   H12112359   0.109   7.973   3.179  3.7641  0.5411 -2.5667
   30MOL   H12212360   0.179   0.059   3.410 -0.7880 -0.1549  0.8339
   30MOL   H12312361   0.259   0.274   3.453  0.3169  0.0270 -0.8880
   30MOL   H12412362   0.262   0.445   3.288  0.7935 -1.2780  2.1549
   30MOL   H12512363   0.154   0.411   3.054 -2.4934 -0.9541 -0.7921
   30MOL   H12612364   0.380   7.819   2.731  1.0770  1.6377  0.0504
   30MOL   H12712365   0.295   7.725   2.843  1.6947  0.2927 -1.2610
   30MOL   C12812366   0.424   7.887   2.924 -0.1695 -0.5999 -0.1359
   30MOL   O12912367   0.494   0.019   2.859  0.1623 -0.1641 -0.8377
   30MOL   C13012368   0.504   0.136   2.939 -0.1272 -0.8704 -0.0532
   30MOL   O13112369   0.582   0.104   3.049  0.6147 -0.5598  0.1924
   30MOL   C13212370   0.654   0.208   3.104 -0.5184 -0.3665 -0.1568
   30MOL   C13312371   0.603   0.338   3.102  0.7440 -0.4341  0.5369
   30MOL   C13412372   0.690   0.440   3.147 -0.0066 -0.0498 -0.0245
   30MOL   C13512373   0.814   0.411   3.211  0.7035  0.4567 -0.1324
   30MOL   C13612374   0.859   0.278   3.218  0.4386 -0.4859  0.2092
   30MOL   C13712375   0.778   0.176   3.163 -0.3921 -0.5997  0.0619
   30MOL   C13812376   0.524   7.784   2.973 -0.7410  0.4190 -0.0838
   30MOL   H13912377   0.369   7.935   3.005  0.9144 -0.8795  0.7795
   30MOL   H14012378   0.406   0.181   2.958  0.7255  0.4935  1.1646
   30MOL   H14112379   0.569   0.196   2.875  2.9943 -2.6999  1.2706
   30MOL   H14212380   0.510   0.365   3.053  1.0011 -0.4541  0.0318
   30MOL   H14312381   0.664   0.545   3.141  0.8797  0.1438 -0.4866
   30MOL   H14412382   0.874   0.491   3.250 -0.5685 -0.1880  3.2954
   30MOL   H14512383   0.962   0.268   3.249  1.0330  0.9601 -1.2312
   30MOL   H14612384   0.810   0.074   3.174  1.3710  0.0633  1.2394
   30MOL   H14712385   0.574   7.742   2.886  0.3006  0.6624  0.3963
   30MOL   H14812386   0.599   7.829   3.038 -0.9369 -0.1599  0.5485
   30MOL   C14912387   0.458   7.673   3.063 -0.2058  0.4321 -0.7233
   30MOL   O15012388   0.555   7.579   3.106 -0.2508  0.5092 -0.3772
   30MOL   C15112389   0.585   7.464   3.019 -0.0173  0.0475 -0.2965
   30MOL   O15212390   0.666   7.504   2.912 -0.6284 -0.0540 -0.1541
   30MOL   C15312391   0.716   7.419   2.812  0.0221  0.4320 -0.3124
   30MOL   C15412392   0.757   7.479   2.690 -0.7342  0.2824  0.3478
   30MOL   C15512393   0.793   7.397   2.578  0.7445  0.2457  0.1643
   30MOL   C15612394   0.798   7.258   2.593  0.3165  0.2776  0.2695
   30MOL   C15712395   0.777   7.191   2.720  0.1842 -0.3825  0.1127
   30MOL   C15812396   0.719   7.279   2.818 -0.3393  0.0641 -0.5484
   30MOL   C15912397   0.399   7.729   3.198 -0.1016  0.4990  0.6720
   30MOL   H16012398   0.382   7.623   3.002  0.1785 -1.0761  0.0291
   30MOL   H16112399   0.638   7.392   3.080 -0.8325  0.5912  1.0811
   30MOL   H16212400   0.487   7.425   2.992  0.3732 -1.1732  0.0524
   30MOL   H16312401   0.753   7.586   2.674 -1.8348  0.4671  1.7040
   30MOL   H16412402   0.818   7.428   2.478 -0.9219  1.7333  0.1871
   30MOL   H16512403   0.807   7.199   2.504 -0.5133  0.3012  0.1695
   30MOL   H16612404   0.751   7.087   2.726  2.2675 -0.8883  0.4828
   30MOL   H16712405   0.679   7.226   2.902  0.7291  1.9906  1.2319
   30MOL   H16812406   0.359   7.829   3.183  2.3284  1.2155 -1.3543
   30MOL   H16912407   0.469   7.733   3.281  0.2701 -1.6695  0.4841
   30MOL   C17012408   0.270   7.647   3.247 -0.3364  0.1635 -1.2117
   30MOL   O17112409   0.216   7.705   3.366 -0.9715 -0.0799  0.0530
   30MOL   C17212410   0.283   7.650   3.482 -0.4768 -1.0958 -0.1521
   30MOL   O17312411   0.274   7.518   3.501 -0.1446  0.5799  0.0024
   30MOL   C17412412   0.149   7.467   3.526  0.7071  0.3536  0.4730
   30MOL   C17512413   0.037   7.546   3.557  0.7063 -0.1726  0.6512
   30MOL   C17612414   7.881   7.493   3.574  0.2471 -0.4288 -0.4631
   30MOL   C17712415   7.865   7.353   3.585 -0.2150 -0.5805 -0.0076
   30MOL   C17812416   7.975   7.269   3.568 -0.4892 -0.3074  0.2646
   30MOL   C17912417   0.129   7.327   3.532 -0.0297  0.0209  0.1068
   30MOL   C18012418   0.149   7.656   3.138 -0.0614 -0.0310  0.6460
   30MOL   H18112419   0.294   7.543   3.269  0.3133  1.1425  3.2339
   30MOL   H18212420   0.250   7.699   3.573 -0.5536 -2.3732  0.5163
   30MOL   H18312421   0.390   7.671   3.475 -0.6649 -0.2713 -0.6241
   30MOL   H18412422   0.026   7.653   3.551 -1.0541 -0.3526  0.3844
   30MOL   H18512423   7.803   7.565   3.591  0.3906 -0.5133  0.5499
   30MOL   H18612424   7.767   7.309   3.597 -0.0067 -1.4003 -1.2704
   30MOL   H18712425   7.960   7.162   3.573 -0.6185 -0.2151  2.7945
   30MOL   H18812426   0.214   7.263   3.514  1.0304  1.3769  0.2247
   30MOL   H18912427   0.112   7.758   3.126 -0.7398 -0.5232 -1.5861
   30MOL   H19012428   0.178   7.632   3.036 -0.5983 -1.6381  0.8526
   30MOL   C19112429   0.027   7.556   3.157  0.0233 -0.1322  0.0515
   30MOL   O19212430   0.072   7.425   3.121  0.3324 -0.4890  0.3968
   30MOL   C19312431   0.016   7.323   3.194 -0.1274 -0.2620 -0.1760
   30MOL   O19412432   0.081   7.201   3.160 -0.6083 -0.0354  0.7388
   30MOL   C19512433   0.200   7.181   3.223  0.8721  0.3804 -0.4957
   30MOL   C19612434   0.222   7.055   3.283 -0.0510  0.1212  0.2162
   30MOL   C19712435   0.347   7.027   3.345  0.6923  0.8861 -0.3299
   30MOL   C19812436   0.447   7.128   3.357 -0.0498  0.1316  0.0077
   30MOL   C19912437   0.425   7.258   3.297 -0.2282 -0.1064  0.1329
   30MOL   C20012438   0.306   7.279   3.224  0.7178 -0.0969 -0.1092
   30MOL   C20112439   7.879   7.585   3.074  0.6280 -0.2713  0.1905
   30MOL   H20212440   7.964   7.562   3.258 -0.4429 -1.0415 -0.0729
   30MOL   H20312441   7.892   7.304   3.155 -0.5106 -1.5641  1.3923
   30MOL   H20412442   0.026   7.342   3.301  1.3918 -1.6970 -0.0495
   30MOL   H20512443   0.148   6.976   3.281  0.1596 -0.0469 -2.7973
   30MOL   H20612444   0.354   6.935   3.402 -1.6915  0.9423  0.1090
   30MOL   H20712445   0.533   7.114   3.421 -0.1497  4.5265  1.2740
   30MOL   H20812446   0.486   7.345   3.318  0.5819 -1.1477  2.2441
   30MOL   H20912447   0.299   7.362   3.156 -1.0718 -0.4496 -0.3761
   30MOL   H21012448   7.805   7.506   3.089  0.0077  0.7733  2.9735
   30MOL   H21112449   7.828   7.671   3.118  2.0955  0.3815  0.6252
   30MOL   C21212450   7.892   7.608   2.923  0.1383 -0.5436 -0.4317
   30MOL   O21312451   7.873   7.487   2.854  0.1731  0.4707 -0.2285
   30MOL   C21412452   7.915   7.487   2.724  0.1748 -0.4315  0.8491
   30MOL   O21512453   0.075   7.512   2.714  0.0487 -0.4138 -0.3165
   30MOL   C21612454   0.159   7.410   2.744 -0.7730 -0.3993 -0.2806
   30MOL   C21712455   0.130   7.308   2.831 -0.1899 -0.1776 -0.3530
   30MOL   C21812456   0.232   7.214   2.858  0.0472 -0.4789  0.8163
   30MOL   C21912457   0.358   7.223   2.801 -0.6243 -0.3702 -0.1332
   30MOL   C22012458   0.388   7.329   2.709 -0.2527  0.5339 -0.2186
   30MOL   C22112459   0.286   7.420   2.684  0.5226  1.2149  0.0094
   30MOL   C22212460   7.797   7.724   2.883 -0.2210  0.0051 -0.0726
   30MOL   H22312461   0.014   7.650   2.899 -0.0501 -0.0549 -0.3506
   30MOL   H22412462   7.864   7.568   2.673  0.5545 -2.2185 -2.5494
   30MOL   H22512463   7.898   7.397   2.665  2.3039 -0.4467  0.2159
   30MOL   H22612464   0.038   7.297   2.886 -1.3875  1.5690 -1.9553
   30MOL   H22712465   0.214   7.125   2.917  1.8662 -1.7338 -0.4849
   30MOL   H22812466   0.429   7.143   2.817  1.7428  1.5342 -0.7735
   30MOL   H22912467   0.478   7.335   2.650 -1.2251 -1.7958 -2.0023
   30MOL   H23012468   0.300   7.504   2.617 -0.7267  1.2165 -0.2676
   30MOL   H23112469   7.826   7.809   2.946  0.8577  0.0880 -0.6723
   30MOL   H23212470   7.810   7.759   2.780  2.7194  2.1033  0.9325
   30MOL   C23312471   7.654   7.690   2.897  0.5002 -0.3344 -0.0562
   30MOL   O23412472   7.597   7.815   2.942  0.2617  0.2455  0.2628
   30MOL   C23512473   7.532   7.815   3.069  0.1225  0.1950  0.0746
   30MOL   O23612474   7.632   7.821   3.173  0.2412  0.0807 -0.2866
   30MOL   C23712475   7.686   7.944   3.201  0.1506 -0.7696  0.0304
   30MOL   C23812476   7.733   7.960   3.331 -0.1900 -0.5396 -0.0776
   30MOL   C23912477   7.776   0.108   3.379  0.2610 -0.3958 -0.2055
   30MOL   C24012478   7.781   0.217   3.297  0.1390  0.6005  0.1841
   30MOL   C24112479   7.732   0.205   3.166 -0.2495 -0.0570  0.2472
   30MOL   C24212480   7.672   0.087   3.114  0.0778  0.5505 -0.0690
   30MOL   C24312481   7.597   7.622   2.777  0.1895 -0.5693  0.7803
   30MOL   H24412482   7.643   7.617   2.977  0.5643  0.3689  0.5926
   30MOL   H24512483   7.488   7.718   3.092  1.3330 -0.2460  0.6067
   30MOL   H24612484   7.470   7.900   3.096 -0.3515 -0.1210 -0.0176
   30MOL   H24712485   7.741   7.875   3.397 -0.3613  1.5312  2.6988
   30MOL   H24812486   7.799   0.129   3.483  0.4938  0.1262 -0.3580
   30MOL   H24912487   7.805   0.318   3.329 -0.3128  0.7890 -0.0629
   30MOL   H25012488   7.725   0.299   3.112 -0.5752  0.1977  0.7204
   30MOL   H25112489   7.639   0.064   3.014  1.1904  3.6471 -1.1891
   30MOL   H25212490   7.608   7.698   2.700 -0.8070  0.3497  1.5170
   30MOL   H25312491   7.654   7.534   2.748  0.2673  0.4287 -2.3033
   30MOL   C25412492   7.442   7.589   2.775  0.1437  0.0746 -0.2555
   30MOL   O25512493   7.414   7.519   2.901  0.2107  0.2270 -0.4321
   30MOL   C25612494   7.435   7.381   2.891  0.4038 -0.8077  0.0312
   30MOL   O25712495   7.560   7.344   2.931 -0.3902  0.8345  0.6167
   30MOL   C25812496   7.607   7.212   2.925  0.6849 -0.2795 -0.9151
   30MOL   C25912497   7.533   7.096   2.901  0.8679  0.0038  0.3831
   30MOL   C26012498   7.591   6.968   2.913 -0.0368  0.2534  0.0222
   30MOL   C26112499   7.730   6.948   2.937  0.1604  0.9292 -0.5871
   30MOL   C26212500   7.803   7.063   2.951 -0.0524  0.4791 -0.6919
   30MOL   C26312501   7.748   7.196   2.948 -0.1801  0.2173  0.5143
   30MOL   C26412502   7.351   7.716   2.768  0.4160 -0.1835 -0.5464
   30MOL   H26512503   7.412   7.532   2.687  1.6031  0.9880 -1.3822
   30MOL   H26612504   7.415   7.344   2.791  0.2340  0.2205 -0.3178
   30MOL   H26712505   7.362   7.329   2.953  0.7310 -0.9532  0.3007
   30MOL   H26812506   7.430   7.101   2.868  1.2318  0.5491 -0.6834
   30MOL   H26912507   7.533   6.879   2.891 -0.5959  0.3340  1.0907
   30MOL   H27012508   7.778   6.853   2.920  4.5383  2.8433  0.4677
   30MOL   H27112509   7.908   7.046   2.971 -0.0914  1.2125  0.2185
   30MOL   H27212510   7.810   7.283   2.962 -2.0928  1.8116 -0.6665
   30MOL   H27312511   7.247   7.683   2.771 -0.2571  1.8979  0.1688
   30MOL   H27412512   7.348   7.774   2.860 -0.1255  1.3430 -1.5142
   30MOL   C27512513   7.364   7.811   2.653  0.6247  0.3242 -0.2689
   30MOL   O27612514   7.346   7.723   2.538 -0.0721 -0.0278 -0.5694
   30MOL   C27712515   7.380   7.778   2.417 -0.8844  0.0420 -0.6646
   30MOL   O27812516   7.509   7.787   2.387  0.0757  0.0423  0.0767
   30MOL   C27912517   7.579   7.670   2.380  0.1217 -0.4561  0.7726
   30MOL   C28012518   7.722   7.678   2.375 -0.4932  0.6277 -0.5727
   30MOL   C28112519   7.803   7.561   2.360  0.3925 -0.3953  0.3776
   30MOL   C28212520   7.737   7.437   2.363  0.6014 -0.0728  0.0412
   30MOL   C28312521   7.603   7.421   2.383 -0.6978  0.3742  0.4347
   30MOL   C28412522   7.521   7.538   2.376  0.5417  0.3979 -0.4169
   30MOL   C28512523   7.256   7.926   2.665 -0.1414  1.3131  0.1235
   30MOL   H28612524   7.463   7.856   2.649  0.8254  0.0715  1.7744
   30MOL   H28712525   7.336   7.877   2.403 -1.0869  0.1935  1.0464
   30MOL   H28812526   7.328   7.709   2.351  0.8807  0.0512 -2.1178
   30MOL   H28912527   7.765   7.776   2.395 -1.6785  1.1410 -0.4891
   30MOL   H29012528   7.910   7.562   2.351  0.1455  1.5196 -3.5538
   30MOL   H29112529   7.791   7.344   2.358 -1.6093 -1.4777  1.8002
   30MOL   H29212530   7.566   7.320   2.392  1.0265 -0.1574  1.8280
   30MOL   H29312531   7.413   7.530   2.376  0.5269  0.4808  0.4964
   30MOL   H29412532   7.162   7.878   2.692 -0.1166  1.9292  1.3365
   30MOL   H29512533   7.244   0.001   2.569  0.8768 -0.1029 -0.7734
   30MOL   C29612534   7.289   0.065   2.769  0.6841  0.6253 -0.4492
   30MOL   O29712535   7.362   0.163   2.704 -0.6825  0.5741 -0.0311
   30MOL   C29812536   7.487   0.180   2.758 -0.4481 -1.0266 -0.3243
   30MOL   O29912537   7.482   0.226   2.890  0.7480  0.6347 -0.5296
   30MOL   C30012538   7.433   0.346   2.917 -1.0280 -0.1144 -0.8916
   30MOL   C30112539   7.388   0.438   2.823 -0.2890  0.6781 -0.2189
   30MOL   C30212540   7.340   0.559   2.870 -0.7069  0.5170 -0.1626
   30MOL   C30312541   7.326   0.589   3.010  0.2974 -0.8859 -0.0195
   30MOL   C30412542   7.375   0.500   3.107  0.2027  0.0670  0.1259
   30MOL   C30512543   7.424   0.375   3.057  0.2202 -0.3675  0.7257
   30MOL   C30612544   7.162   0.139   2.815 -0.0956  0.5325  0.4130
   30MOL   H30712545   7.341   0.030   2.858 -0.6516 -2.3775 -0.7785
   30MOL   H30812546   7.549   0.254   2.707 -1.2444  0.8932  1.4003
   30MOL   H30912547   7.531   0.082   2.738 -1.5022 -1.7953  1.0811
   30MOL   H31012548   7.389   0.417   2.717 -0.4445 -1.8086  0.2244
   30MOL   H31112549   7.304   0.631   2.797 -2.8188  0.9471  1.2645
   30MOL   H31212550   7.280   0.682   3.040 -0.5650 -0.9686 -1.0553
   30MOL   H31312551   7.375   0.512   3.215  0.1411 -0.4316  0.1838
   30MOL   H31412552   7.456   0.301   3.129  1.6239 -0.0119  0.4716
   30MOL   H31512553   7.098   0.145   2.727 -0.6671  0.4738  0.8162
   30MOL   H31612554   7.187   0.238   2.852  0.7414 -0.6277  3.0775
   30MOL   C31712555   7.104   0.062   2.944  0.4719 -0.7427  0.8392
   30MOL   O31812556   6.971   0.100   2.953 -0.3624  0.4766  0.0582
   30MOL   C31912557   6.890   0.020   2.872 -0.1113 -0.1721  0.5628
   30MOL   O32012558   6.853   7.870   2.929 -0.1961  0.1974  0.6334
   30MOL   C32112559   6.734   7.863   2.984  0.1002 -0.3572 -0.2120
   30MOL   C32212560   6.678   7.969   3.062 -0.2920 -0.4699 -0.0964
   30MOL   C32312561   6.547   7.955   3.114 -0.2585 -0.0508 -0.0491
   30MOL   C32412562   6.468   7.843   3.091 -0.3914 -0.4467  0.3495
   30MOL   C32512563   6.530   7.733   3.025  0.1419  0.7551  0.2661
   30MOL   C32612564   6.656   7.745   2.965 -0.6058 -0.3937 -0.3825
   30MOL   C32712565   7.171   0.103   3.084  0.0075 -0.8064 -0.7020
   30MOL   H32812566   7.127   7.932   2.930 -0.2151 -0.9447  1.1941
   30MOL   H32912567   6.939   0.006   2.775  0.4831  0.0475  0.8281
   30MOL   H33012568   6.799   0.080   2.867 -0.4701 -0.7684 -0.0286
   30MOL   H33112569   6.735   0.082   3.088 -1.2078  0.2365 -0.4773
   30MOL   H33212570   6.507   0.066   3.165 -2.2483 -1.7496  1.3703
   30MOL   H33312571   6.370   7.835   3.135 -0.0437 -1.1329  1.0172
   30MOL   H33412572   6.471   7.644   3.012  2.0053 -0.3572 -0.7520
   30MOL   H33512573   6.699   7.659   2.916 -0.5653 -1.0309  0.7432
   30MOL   H33612574   7.280   0.104   3.085  0.0289  0.6676 -2.1709
   30MOL   H33712575   7.141   0.206   3.104 -1.3665 -0.7955 -2.6537
   30MOL   C33812576   7.129   0.010   3.193  0.0830 -0.1519 -0.7707
   30MOL   O33912577   7.194   7.860   3.167 -0.3558 -0.7049 -0.3089
   30MOL   C34012578   7.120   7.747   3.170 -0.0826 -0.2510 -0.5317
   30MOL   O34112579   7.070   7.718   3.041  0.1258 -0.6692  0.1823
   30MOL   C34212580   7.023   7.595   3.016  0.1956 -0.2492  0.6762
   30MOL   C34312581   7.031   7.480   3.097  0.3042 -0.4045  0.3732
   30MOL   C34412582   6.968   7.366   3.055 -0.8706  0.8274 -0.0575
   30MOL   C34512583   6.907   7.357   2.925 -0.6690  0.0781  0.2858
   30MOL   C34612584   6.911   7.464   2.840  0.9922 -0.5442  0.7404
   30MOL   C34712585   6.963   7.585   2.887  0.5569  0.6832 -0.6673
   30MOL   C34812586   7.169   0.062   3.331  0.3293 -0.4879  0.2847
   30MOL   H34912587   7.021   0.013   3.186  0.0244 -0.3522  0.0406
   30MOL   H35012588   7.035   7.753   3.238  0.3487  1.0580 -0.0926
   30MOL   H35112589   7.190   7.671   3.205 -0.0230  1.3728  3.0387
   30MOL   H35212590   7.072   7.482   3.197 -3.6888  1.7078  2.1121
   30MOL   H35312591   6.986   7.288   3.127  1.1280  1.2651 -0.0640
   30MOL   H35412592   6.868   7.261   2.896 -0.0210 -0.7154  1.9561
   30MOL   H35512593   6.864   7.460   2.743  2.4638  0.8309 -0.0566
   30MOL   H35612594   6.976   7.662   2.813  2.0666  1.5647  0.4868
   30MOL   H35712595   7.164   0.170   3.341  2.0927 -0.1154 -2.2922
   30MOL   H35812596   7.277   0.047   3.331  0.8645  2.7502  4.0335
   30MOL   C35912597   7.112   7.964   3.451  0.6044  0.3958 -0.0278
   30MOL   O36012598   6.980   0.039   3.475  0.3552  0.2531  0.8048
   30MOL   C36112599   6.879   7.927   3.440 -0.2982  0.1453 -0.3002
   30MOL   O36212600   6.885   7.806   3.513 -0.5552  0.4389 -0.3632
   30MOL   C36312601   6.839   7.692   3.452 -0.1517  0.0839  0.0950
   30MOL   C36412602   6.868   7.571   3.514  0.2428 -0.0349  0.6836
   30MOL   C36512603   6.830   7.449   3.459 -0.5872  0.3648  0.7217
   30MOL   C36612604   6.754   7.446   3.340 -0.1131  0.1512  0.1696
   30MOL   C36712605   6.714   7.565   3.279 -0.4579 -0.1751  0.2604
   30MOL   C36812606   6.756   7.689   3.333  0.7203 -0.1063  0.2844
   30MOL   C36912607   7.187   0.006   3.585 -0.1923 -0.1213  0.3781
   30MOL   H37012608   7.102   7.859   3.425  0.2911  0.6087 -0.7799
   30MOL   H37112609   6.888   7.908   3.333 -0.2276  0.2756 -0.3178
   30MOL   H37212610   6.781   7.972   3.455  0.5943  2.7632 -1.8152
   30MOL   H37312611   6.926   7.577   3.606 -1.1586  3.0541  1.4159
   30MOL   H37412612   6.855   7.357   3.510 -0.4655 -0.1096 -0.1896
   30MOL   H37512613   6.733   7.349   3.297  0.5593 -0.2628  0.7672
   30MOL   H37612614   6.648   7.569   3.194  1.4457  1.1194 -1.2014
   30MOL   H37712615   6.722   7.782   3.288 -3.7515 -2.0322 -0.6129
   30MOL   H37812616   7.284   7.932   3.576  0.2935  0.4403  2.3942
   30MOL   H37912617   7.132   7.931   3.664 -0.1021 -1.6613 -0.5232
   30MOL   C38012618   7.210   0.151   3.629  0.2107  0.1421  0.4346
   30MOL   O38112619   7.316   0.196   3.547  0.1559  0.2624  0.2628
   30MOL   C38212620   7.321   0.335   3.537  0.6502 -0.8347  0.1420
   30MOL   O38312621   7.211   0.402   3.469 -0.9302  0.8450 -0.4505
   30MOL   C38412622   7.224   0.540   3.448 -0.1500  0.0676  0.6415
   30MOL   C38512623   7.318   0.620   3.510  0.1377 -1.0788  0.1186
   30MOL   C38612624   7.340   0.757   3.485 -0.3794 -0.1719  0.1068
   30MOL   C38712625   7.247   0.819   3.397  0.0993  0.4444 -0.0452
   30MOL   C38812626   7.138   0.742   3.344  0.2797  0.2768 -0.1256
   30MOL   C38912627   7.130   0.604   3.366 -0.1284  0.2213  0.8426
   30MOL   C39012628   7.244   0.159   3.778 -0.9084 -0.4230  0.1869
   30MOL   H39112629   7.124   0.213   3.606 -0.6248 -0.4900  1.7578
   30MOL   H39212630   7.333   0.379   3.636 -0.4280  1.2119 -0.6166
   30MOL   H39312631   7.410   0.356   3.478  0.8442  0.2113  0.7988
   30MOL   H39412632   7.384   0.579   3.586  2.3292 -0.1700 -1.2399
   30MOL   H39512633   7.417   0.823   3.521  0.1752 -0.3729 -0.7063
   30MOL   H39612634   7.243   0.924   3.372 -0.0077  0.7645  1.3078
   30MOL   H39712635   7.061   0.790   3.285 -1.2996 -0.1643  1.5369
   30MOL   H39812636   7.051   0.543   3.325  0.2081  1.6525 -2.1433
   30MOL   H39912637   7.286   0.256   3.804  1.0195 -0.3100 -3.0871
   30MOL   H40012638   7.323   0.087   3.798 -1.0356 -0.4352  0.6505
   30MOL   C40112639   7.134   0.138   3.884  0.4310  0.3209  0.5874
   30MOL   O40212640   7.215   0.124   4.009 -0.4308 -0.1863 -0.0200
   30MOL   C40312641   7.227   7.967   4.057  0.6239 -0.5252 -0.1991
   30MOL   O40412642   7.097   7.906   4.068 -0.0213  0.5547  0.4507
   30MOL   C40512643   7.016   7.936   4.175  0.0704  0.4263  0.0765
   30MOL   C40612644   7.068   7.934   4.307 -0.0469  0.2575  0.1986
   30MOL   C40712645   6.993   0.016   4.409  0.0031 -0.0316 -0.2137
   30MOL   C40812646   6.864   0.063   4.384  0.0376  0.7789 -1.0689
   30MOL   C40912647   6.807   0.048   4.257  0.0149  0.3411 -0.0799
   30MOL   C41012648   6.885   0.001   4.150 -1.0924  0.2315 -0.2768
   30MOL   C41112649   7.044   0.260   3.888  0.5663 -0.2907  0.6022
   30MOL   H41212650   7.078   0.050   3.854 -0.4838  0.9642  0.3834
   30MOL   H41312651   7.276   7.975   4.154  0.9165 -0.0425 -0.3813
   30MOL   H41412652   7.280   7.909   3.982  1.1794 -0.0760 -0.1601
   30MOL   H41512653   7.169   7.901   4.327 -0.7577 -0.8825  2.0880
   30MOL   H41612654   7.031   0.003   4.509 -0.3636 -0.0232 -0.0710
   30MOL   H41712655   6.801   0.108   4.459  0.7786  0.8394 -0.4818
   30MOL   H41812656   6.708   0.091   4.254  0.2584  0.8319 -1.2697
   30MOL   H41912657   6.851   7.969   4.048  1.0113  3.0960 -1.2730
   30MOL   H42012658   6.957   0.238   3.949  0.3258 -0.7708  0.0866
   30MOL   H42112659   7.003   0.293   3.792  1.5134 -0.2832  0.1974
   30MOL   H42212660   7.094   0.343   3.939  0.3227 -0.6766  1.4682
   31MOL     C112661   0.924   3.096   6.172 -0.0068  0.3280  0.7339
   31MOL     O212662   1.039   3.150   6.229 -0.3506 -0.3399  0.0186
   31MOL     C312663   1.047   3.124   6.372 -0.1432  0.2563  0.2872
   31MOL     O412664   0.945   3.179   6.445 -0.4564  0.3224 -0.2813
   31MOL     C512665   0.951   3.310   6.482  0.2349 -0.2169  0.1883
   31MOL     C612666   1.039   3.408   6.421 -0.3905  0.1919 -0.1511
   31MOL     C712667   1.056   3.540   6.475  0.5000 -0.1559  0.2284
   31MOL     C812668   0.987   3.575   6.593  0.4449  0.7956  0.2473
   31MOL     C912669   0.898   3.480   6.653 -0.5472 -0.6370 -0.1448
   31MOL    C1012670   0.883   3.348   6.598  0.8306  0.3343 -0.0950
   31MOL    C1112671   0.920   3.102   6.020  0.3371 -0.4788 -0.1345
   31MOL    H1212672   0.916   2.992   6.204 -2.4731 -0.2000 -1.4388
   31MOL    H1312673   1.045   3.019   6.400 -0.4459 -0.1664 -1.2770
   31MOL    H1412674   1.142   3.162   6.411  0.1838 -0.7370  0.4721
   31MOL    H1512675   1.093   3.386   6.330 -2.0119  1.0273 -1.3276
   31MOL    H1612676   1.127   3.594   6.415  0.7656 -0.0066  0.6782
   31MOL    H1712677   0.998   3.669   6.645  1.1179  0.2704  1.0737
   31MOL    H1812678   0.836   3.510   6.736  3.1431  0.0437  2.4862
   31MOL    H1912679   0.817   3.282   6.652 -1.1220  1.6529 -0.7798
   31MOL    H2012680   1.000   3.038   5.983 -0.2388 -2.3374  1.7283
   31MOL    H2112681   0.935   3.204   5.985  0.5390 -0.7326 -0.7949
   31MOL    H2212682   0.834   3.143   6.212  0.0291  0.6385  0.4470
   31MOL    C2312683   0.797   3.044   5.943 -0.2038  0.2294 -0.4921
   31MOL    O2412684   0.844   2.980   5.826 -0.0581  0.4752  0.0948
   31MOL    C2512685   0.779   2.864   5.796  0.2557  0.2190 -0.2354
   31MOL    O2612686   0.825   2.766   5.884  0.4529  0.4640  0.1783
   31MOL    C2712687   0.742   2.658   5.913  0.2328 -0.1963  0.3100
   31MOL    C2812688   0.765   2.599   6.037 -0.3230  0.2814  0.1942
   31MOL    C2912689   0.686   2.491   6.075 -0.6279  0.0250  0.8096
   31MOL    C3012690   0.580   2.444   5.999  0.1315  0.4555 -0.6179
   31MOL    C3112691   0.555   2.505   5.875 -0.6506 -0.0522  0.2555
   31MOL    C3212692   0.641   2.610   5.828  0.7468  0.1188 -0.9724
   31MOL    C3312693   0.690   3.150   5.897  0.0991 -0.1879  0.1158
   31MOL    H3412694   0.754   2.969   6.009  2.5604 -0.8080  0.2206
   31MOL    H3512695   0.798   2.841   5.691  0.5264  1.8155 -0.5378
   31MOL    H3612696   0.670   2.868   5.808  0.1521 -2.2257  0.0262
   31MOL    H3712697   0.841   2.634   6.104 -1.1567  2.2659  0.1555
   31MOL    H3812698   0.701   2.446   6.172  2.1846 -1.9395 -0.4788
   31MOL    H3912699   0.512   2.368   6.035  0.0441  0.2787 -1.1598
   31MOL    H4012700   0.481   2.457   5.813  0.2873 -1.3250  0.1077
   31MOL    H4112701   0.627   2.650   5.729 -0.7123 -1.6534 -1.5062
   31MOL    H4212702   0.621   3.092   5.836  1.5439 -0.9327 -0.8619
   31MOL    H4312703   0.733   3.224   5.830 -0.7750 -1.6367 -2.1130
   31MOL    C4412704   0.600   3.210   6.012  0.1188  0.2772 -0.1880
   31MOL    O4512705   0.688   3.287   6.093 -0.1314 -1.0721  0.5239
   31MOL    C4612706   0.671   3.424   6.085 -0.4548 -0.0258 -0.1642
   31MOL    O4712707   0.554   3.472   6.144  0.3053 -0.4645 -0.2212
   31MOL    C4812708   0.524   3.424   6.270 -0.2001 -0.3332 -0.5816
   31MOL    C4912709   0.390   3.436   6.303  0.5675  0.7632 -0.0910
   31MOL    C5012710   0.349   3.397   6.431 -0.5209 -0.2469 -0.2385
   31MOL    C5112711   0.434   3.322   6.517  0.2222 -0.4380 -0.6571
   31MOL    C5212712   0.567   3.298   6.476  0.4515  0.0723 -0.1592
   31MOL    C5312713   0.614   3.358   6.355 -0.1763  0.7024  0.0674
   31MOL    C5412714   0.545   3.101   6.108 -0.1303  0.7532 -0.2275
   31MOL    H5512715   0.525   3.269   5.958  2.3125 -0.5773 -4.3281
   31MOL    H5612716   0.678   3.461   5.982  0.3712  0.7333  0.1621
   31MOL    H5712717   0.755   3.457   6.145  0.8405 -1.6301 -1.0560
   31MOL    H5812718   0.319   3.488   6.241  0.1126 -0.9553 -1.0495
   31MOL    H5912719   0.248   3.411   6.465 -0.5403  0.4298 -0.5580
   31MOL    H6012720   0.386   3.279   6.604  1.0333 -0.0882 -0.0190
   31MOL    H6112721   0.633   3.242   6.540 -0.0942  0.1156  0.4399
   31MOL    H6212722   0.719   3.343   6.336  0.1047  1.1689  1.1697
   31MOL    H6312723   0.616   3.039   6.163 -1.6945  1.6699  2.8919
   31MOL    H6412724   0.506   3.161   6.189  1.0510  2.4310 -0.8596
   31MOL    C6512725   0.411   3.025   6.075 -0.2917  0.1397  0.3243
   31MOL    O6612726   0.304   3.116   6.052  0.0439 -0.2328  0.0498
   31MOL    C6712727   0.217   3.135   6.157  0.1699  0.4793  0.5271
   31MOL    O6812728   0.169   3.015   6.206 -0.8519 -0.1524  0.6453
   31MOL    C6912729   0.113   3.020   6.325 -0.1643  0.0641 -0.1239
   31MOL    C7012730   7.973   3.104   6.345  0.5601  0.4506 -0.0171
   31MOL    C7112731   7.892   3.089   6.462 -0.1678 -0.0415  0.0938
   31MOL    C7212732   7.929   2.997   6.557 -0.0704 -0.2897 -0.6615
   31MOL    C7312733   0.073   2.920   6.543  0.1715 -0.2406 -0.3303
   31MOL    C7412734   0.150   2.931   6.429  0.6790 -0.5600 -0.5679
   31MOL    C7512735   0.411   2.928   5.953  0.2777  0.0577 -0.8296
   31MOL    H7612736   0.397   2.954   6.157 -2.2157  1.5907  1.2975
   31MOL    H7712737   0.130   3.196   6.133 -1.1275 -1.4060  0.3488
   31MOL    H7812738   0.273   3.190   6.233  1.5321 -0.4555  0.2247
   31MOL    H7912739   7.940   3.178   6.274 -0.7107  0.1022  0.1918
   31MOL    H8012740   7.806   3.153   6.476  0.5081  0.6266  1.2219
   31MOL    H8112741   7.874   2.988   6.649 -0.7115  1.7378 -0.8111
   31MOL    H8212742   0.113   2.853   6.618 -1.5064 -0.7853  0.1091
   31MOL    H8312743   0.240   2.873   6.416  1.7167  1.0429 -0.7329
   31MOL    H8412744   0.434   2.980   5.860 -2.0254  0.9939 -0.8924
   31MOL    H8512745   0.496   2.862   5.972 -0.3543 -0.0471  1.8573
   31MOL    C8612746   0.282   2.836   5.952  0.0545  0.1952 -0.2980
   31MOL    O8712747   0.266   2.771   5.820 -0.0655 -0.3348  0.2353
   31MOL    C8812748   0.229   2.848   5.709 -0.0345 -1.0295  0.3663
   31MOL    O8912749   0.342   2.918   5.658 -0.1047  0.1698 -0.1107
   31MOL    C9012750   0.429   2.851   5.573 -0.8503  0.1866  0.5670
   31MOL    C9112751   0.526   2.928   5.511 -0.3244 -0.2728 -0.2110
   31MOL    C9212752   0.615   2.868   5.424 -0.3512  0.3747 -0.4131
   31MOL    C9312753   0.620   2.725   5.400 -0.6110 -0.2030  0.3164
   31MOL    C9412754   0.525   2.649   5.463 -0.3163  0.0306 -0.6340
   31MOL    C9512755   0.431   2.711   5.551 -0.6488  0.1463 -0.3123
   31MOL    C9612756   0.295   2.719   6.054  0.5458 -0.5688 -1.3259
   31MOL    H9712757   0.194   2.893   5.981  0.8193  1.0077  0.4421
   31MOL    H9812758   0.147   2.913   5.737 -0.5560 -1.1247 -0.9190
   31MOL    H9912759   0.191   2.777   5.636  0.4475 -1.1922  0.2678
   31MOL   H10012760   0.527   3.035   5.523 -1.7993 -0.1355 -1.1649
   31MOL   H10112761   0.688   2.929   5.373  1.6176  0.6827  2.6310
   31MOL   H10212762   0.703   2.683   5.344  0.4664 -1.0894  2.4943
   31MOL   H10312763   0.531   2.543   5.444 -1.0918 -0.1119 -0.1010
   31MOL   H10412764   0.357   2.648   5.599 -1.3585 -1.6872 -3.6726
   31MOL   H10512765   0.389   2.665   6.043 -0.4680 -2.1348 -2.5046
   31MOL   H10612766   0.292   2.766   6.152 -0.0148 -2.0347 -0.6425
   31MOL   C10712767   0.190   2.605   6.055  0.5898 -0.1142 -0.9341
   31MOL   O10812768   0.237   2.507   6.152  0.1697  0.8750  0.0907
   31MOL   C10912769   0.199   2.377   6.119 -0.3806 -0.1968 -0.0381
   31MOL   O11012770   0.292   2.323   6.036  0.1716 -0.3894  0.0923
   31MOL   C11112771   0.266   2.204   5.974 -0.1464 -0.4093 -0.5267
   31MOL   C11212772   0.356   2.155   5.882 -0.3447  0.0304  1.0726
   31MOL   C11312773   0.337   2.032   5.811  0.2580 -0.2491 -0.1630
   31MOL   C11412774   0.236   1.950   5.847  0.9598  0.0999  0.1028
   31MOL   C11512775   0.145   1.992   5.947 -0.4185  0.1858 -0.8435
   31MOL   C11612776   0.153   2.121   5.996  0.0020 -0.4131 -0.0835
   31MOL   C11712777   0.053   2.658   6.098  0.0883  0.2912 -0.5539
   31MOL   H11812778   0.189   2.549   5.961 -0.5107  0.7250 -1.4210
   31MOL   H11912779   0.101   2.378   6.071  0.8936  0.0365 -2.7420
   31MOL   H12012780   0.187   2.326   6.214  0.6558  1.5916  1.0917
   31MOL   H12112781   0.439   2.219   5.858  0.5064 -1.5956 -0.4660
   31MOL   H12212782   0.407   1.998   5.736  1.2917 -0.8908  1.0768
   31MOL   H12312783   0.235   1.858   5.790 -1.1132 -1.0806  1.9697
   31MOL   H12412784   0.071   1.923   5.983 -0.2504  0.9706  1.0498
   31MOL   H12512785   0.089   2.152   6.078 -1.1020 -2.0944 -0.2812
   31MOL   H12612786   0.071   2.740   6.167 -0.0185  0.5357 -0.8113
   31MOL   H12712787   7.975   2.590   6.165 -0.1228  0.5125 -0.4974
   31MOL   C12812788   7.933   2.710   5.986 -0.3029 -0.2129  0.0721
   31MOL   O12912789   7.825   2.780   6.049 -0.2931  0.4565  0.7381
   31MOL   C13012790   7.842   2.918   6.059  0.3140  0.3560  0.5733
   31MOL   O13112791   7.850   2.977   5.938  0.5414 -0.0483  0.0833
   31MOL   C13212792   7.853   3.116   5.937  0.5092 -0.1502 -0.0522
   31MOL   C13312793   7.923   3.162   5.827  0.1225  0.6192  0.1992
   31MOL   C13412794   7.923   3.306   5.813  0.7413  0.0906 -0.2416
   31MOL   C13512795   7.866   3.397   5.905  0.5236 -0.1779  0.3662
   31MOL   C13612796   7.800   3.341   6.017 -0.1228  0.3350 -0.0646
   31MOL   C13712797   7.792   3.202   6.035  0.6432  0.2221 -0.2257
   31MOL   C13812798   7.881   2.595   5.893  0.0253 -0.4731 -0.0062
   31MOL   H13912799   0.011   2.783   5.926 -1.0384  1.8266  1.8259
   31MOL   H14012800   7.934   2.937   6.115  1.6008 -1.9676 -0.7105
   31MOL   H14112801   7.755   2.955   6.114 -0.5566  2.4934 -2.1270
   31MOL   H14212802   0.001   3.092   5.764 -0.1545  2.5669 -2.2784
   31MOL   H14312803   7.964   3.352   5.724 -0.7734 -0.4641 -1.2422
   31MOL   H14412804   7.886   3.501   5.884 -0.5980 -0.1116 -0.3968
   31MOL   H14512805   7.756   3.405   6.092 -0.8830 -0.4873  0.1918
   31MOL   H14612806   7.734   3.167   6.119  2.2595 -1.4566  0.2263
   31MOL   H14712807   7.969   2.538   5.862  1.0321  1.3406 -0.5315
   31MOL   H14812808   7.817   2.520   5.940 -1.4032  0.0462 -1.0710
   31MOL   C14912809   7.814   2.640   5.763 -0.3859  1.0230  0.4934
   31MOL   O15012810   7.788   2.514   5.698  0.0117  0.1498  0.0142
   31MOL   C15112811   7.830   2.504   5.567 -0.2005 -0.1848  0.7489
   31MOL   O15212812   7.966   2.498   5.547  0.0396 -0.0280  0.2534
   31MOL   C15312813   0.043   2.462   5.427 -0.5552  0.0264 -0.8057
   31MOL   C15412814   0.181   2.451   5.426  0.6251 -0.2703 -1.0659
   31MOL   C15512815   0.248   2.418   5.309 -0.4866  0.6219  0.3110
   31MOL   C15612816   0.175   2.375   5.196  0.6955  0.3074 -0.1591
   31MOL   C15712817   0.033   2.374   5.194  0.2735  0.7895 -0.3720
   31MOL   C15812818   7.941   2.417   5.314 -0.5332  0.1956 -0.0577
   31MOL   C15912819   7.667   2.697   5.787 -0.1825  0.6859 -0.2699
   31MOL   H16012820   7.881   2.696   5.697  1.3215 -0.3476  1.0160
   31MOL   H16112821   7.779   2.416   5.529  0.0230 -0.2594  0.6212
   31MOL   H16212822   7.790   2.588   5.511  0.3695 -0.7485 -0.5237
   31MOL   H16312823   0.240   2.475   5.513  0.2144  0.5177 -1.0093
   31MOL   H16412824   0.355   2.433   5.302 -0.1413 -2.3314 -1.6780
   31MOL   H16512825   0.219   2.350   5.100 -2.0655 -0.9816 -1.1533
   31MOL   H16612826   7.954   2.346   5.105  1.7132 -0.8232 -0.7758
   31MOL   H16712827   7.833   2.412   5.317 -0.5674  0.3176 -0.9391
   31MOL   H16812828   7.678   2.764   5.872 -1.5445  1.9254 -1.0621
   31MOL   H16912829   7.600   2.618   5.821  0.1602  1.1378  1.5258
   31MOL   C17012830   7.607   2.788   5.674  0.5674 -0.0159 -0.2878
   31MOL   O17112831   7.480   2.830   5.717  0.2856 -0.9454 -0.0346
   31MOL   C17212832   7.380   2.763   5.651  0.2085 -0.0372  0.1634
   31MOL   O17312833   7.374   2.632   5.688 -0.4099 -0.3204  0.6297
   31MOL   C17412834   7.269   2.547   5.640 -1.0222 -0.3966  0.4545
   31MOL   C17512835   7.261   2.422   5.705 -0.5708 -0.2700 -0.1736
   31MOL   C17612836   7.149   2.333   5.668  0.6757  0.1141 -1.0576
   31MOL   C17712837   7.053   2.376   5.573 -0.5976 -0.1490  0.8077
   31MOL   C17812838   7.062   2.502   5.513  0.6684  0.2179  0.4085
   31MOL   C17912839   7.165   2.588   5.550  0.1311 -0.3803 -0.4870
   31MOL   C18012840   7.682   2.923   5.649 -0.5433  0.0251  0.0470
   31MOL   H18112841   7.602   2.728   5.584 -1.7468 -3.0731  1.7767
   31MOL   H18212842   7.395   2.763   5.543  1.5356 -0.8007  0.3347
   31MOL   H18312843   7.288   2.810   5.685 -0.7449 -1.0596 -0.9138
   31MOL   H18412844   7.345   2.391   5.765  1.2841  1.9995 -1.5388
   31MOL   H18512845   7.157   2.233   5.706 -1.9702  1.1978  2.5974
   31MOL   H18612846   6.969   2.311   5.555 -0.9053  0.3387  0.4865
   31MOL   H18712847   6.984   2.542   5.451  0.3323 -0.9821  0.0307
   31MOL   H18812848   7.174   2.682   5.499  1.1158  0.4399  1.1506
   31MOL   H18912849   7.683   2.986   5.738  0.5451 -1.0082  0.7893
   31MOL   H19012850   7.787   2.909   5.627 -0.4582  1.1014 -0.2433
   31MOL   C19112851   7.636   2.998   5.521  0.6301 -0.1874  0.0804
   31MOL   O19212852   7.667   2.918   5.408  0.7312  0.1783 -0.1125
   31MOL   C19312853   7.590   2.930   5.289  0.2078  0.5812 -0.3894
   31MOL   O19412854   7.489   2.829   5.291 -0.1397 -0.0510  0.1723
   31MOL   C19512855   7.404   2.821   5.184 -0.3269  0.0568  0.0433
   31MOL   C19612856   7.308   2.717   5.182 -0.6678  0.1101  0.2688
   31MOL   C19712857   7.222   2.702   5.072  0.6962 -1.1522  0.1406
   31MOL   C19812858   7.232   2.793   4.963 -0.1613 -0.5974 -0.1776
   31MOL   C19912859   7.333   2.893   4.962  0.1191  1.1907  0.4633
   31MOL   C20012860   7.416   2.910   5.073 -0.1412 -0.0905 -0.0539
   31MOL   C20112861   7.718   3.126   5.510 -0.0081  1.0108  0.5554
   31MOL   H20212862   7.530   3.019   5.537  1.4324  1.4625  3.7223
   31MOL   H20312863   7.658   2.902   5.209 -0.0337  1.3131 -0.8515
   31MOL   H20412864   7.539   3.025   5.276  0.7186  1.2302  2.2375
   31MOL   H20512865   7.312   2.642   5.259  2.8041 -0.5605 -0.4914
   31MOL   H20612866   7.155   2.618   5.060  0.5966 -0.9768 -0.5420
   31MOL   H20712867   7.161   2.789   4.881  0.8030 -0.5657 -1.0275
   31MOL   H20812868   7.329   2.965   4.882  0.0864  1.1667  0.4431
   31MOL   H20912869   7.480   2.997   5.075 -1.6977  1.0670  1.8255
   31MOL   H21012870   7.742   3.171   5.606  0.4882  3.2549 -0.5749
   31MOL   H21112871   7.818   3.094   5.479  0.7274 -0.5315  4.3036
   31MOL   C21212872   7.672   3.247   5.423 -0.0652 -0.3382  0.6324
   31MOL   O21312873   7.562   3.296   5.490 -0.4235  0.2732  0.4741
   31MOL   C21412874   7.447   3.335   5.416 -0.6285  0.5094  0.3700
   31MOL   O21512875   7.377   3.222   5.363 -0.3628 -0.1276 -0.4805
   31MOL   C21612876   7.298   3.147   5.442  0.1737 -0.0830 -0.7177
   31MOL   C21712877   7.224   3.046   5.386 -0.4306 -0.1524 -0.6781
   31MOL   C21812878   7.129   2.964   5.448 -0.1153 -0.1991  0.6977
   31MOL   C21912879   7.099   2.997   5.582  0.6980 -0.2826 -0.7917
   31MOL   C22012880   7.184   3.093   5.650 -0.6030 -0.6660  0.2184
   31MOL   C22112881   7.281   3.164   5.579  0.3503 -0.8321  0.0181
   31MOL   C22212882   7.782   3.361   5.417  0.0108 -0.3350 -0.3248
   31MOL   H22312883   7.637   3.198   5.332 -1.6685  0.7893  0.6228
   31MOL   H22412884   7.459   3.410   5.337 -0.8219 -0.0912 -0.2295
   31MOL   H22512885   7.385   3.396   5.482 -0.3886  1.6849 -0.4817
   31MOL   H22612886   7.244   3.033   5.281 -0.9050 -1.9541 -0.5634
   31MOL   H22712887   7.073   2.887   5.397 -0.8720 -0.6747  2.2106
   31MOL   H22812888   7.017   2.943   5.627  0.6794  0.7912  0.4549
   31MOL   H22912889   7.163   3.122   5.752 -0.7913 -0.2884  0.0743
   31MOL   H23012890   7.338   3.230   5.643  0.7804 -1.4747  0.3103
   31MOL   H23112891   7.782   3.416   5.510 -1.7875 -0.1924 -0.3750
   31MOL   H23212892   7.879   3.311   5.419  0.9659  1.3616 -2.2588
   31MOL   C23312893   7.766   3.456   5.301  0.6692  0.4030 -0.4707
   31MOL   O23412894   7.808   3.589   5.335  0.6410 -0.0701  0.1771
   31MOL   C23512895   7.692   3.668   5.333 -0.2005  0.1256  0.6732
   31MOL   O23612896   7.636   3.689   5.203  0.4698 -0.8361 -0.2985
   31MOL   C23712897   7.692   3.793   5.123  0.4379 -0.1643 -0.4686
   31MOL   C23812898   7.827   3.835   5.139  0.9300 -0.6214 -0.3687
   31MOL   C23912899   7.879   3.944   5.064 -0.5829  0.5078 -0.4296
   31MOL   C24012900   7.791   4.013   4.979 -0.5587  0.4301 -0.3095
   31MOL   C24112901   7.663   3.973   4.958 -0.2294  0.4377  0.6259
   31MOL   C24212902   7.613   3.854   5.021  0.2146 -0.9071  0.1239
   31MOL   C24312903   7.848   3.416   5.178  0.5813  0.8377  0.1838
   31MOL   H24412904   7.660   3.461   5.280  0.1604  0.9613  2.0035
   31MOL   H24512905   7.719   3.767   5.370  0.2016 -0.5082  2.1427
   31MOL   H24612906   7.612   3.623   5.393 -1.6906  2.2960  0.3653
   31MOL   H24712907   7.892   3.780   5.206 -0.3854 -0.6638  0.8819
   31MOL   H24812908   0.008   3.972   5.071 -0.2828 -0.0797 -2.2473
   31MOL   H24912909   7.832   4.092   4.919  0.9462 -0.9676 -1.1707
   31MOL   H25012910   7.596   4.025   4.891 -0.3891 -0.0910  0.3754
   31MOL   H25112911   7.509   3.836   4.999 -0.0776  3.0363 -2.2463
   31MOL   H25212912   7.849   3.506   5.118  0.9246 -0.4621 -1.7953
   31MOL   H25312913   7.954   3.400   5.199  0.6267 -1.1650 -1.4701
   31MOL   C25412914   7.800   3.309   5.076 -0.0723  0.0817 -0.3606
   31MOL   O25512915   7.817   3.177   5.129 -0.4448  0.0683  0.7728
   31MOL   C25612916   7.936   3.111   5.114 -0.3419 -0.4268 -0.0610
   31MOL   O25712917   7.946   3.060   4.983 -0.1494 -0.3315 -0.3199
   31MOL   C25812918   7.930   2.923   4.969  0.1549  0.3206 -0.0569
   31MOL   C25912919   7.941   2.888   4.833 -0.7726  1.1261  0.2327
   31MOL   C26012920   7.910   2.755   4.791 -0.2925 -0.5589 -0.0234
   31MOL   C26112921   7.870   2.655   4.882 -0.1751 -0.5231  0.1553
   31MOL   C26212922   7.847   2.694   5.011  0.3743 -0.0749  0.0740
   31MOL   C26312923   7.881   2.824   5.058  0.1090  0.5771 -0.2657
   31MOL   C26412924   7.653   3.335   5.039 -0.7641 -0.5593 -0.0198
   31MOL   H26512925   7.853   3.310   4.982  0.6975 -1.6626  0.0454
   31MOL   H26612926   7.941   3.032   5.189 -1.4971 -0.1556  0.3073
   31MOL   H26712927   0.055   3.165   5.126 -1.8144  2.1219  0.2930
   31MOL   H26812928   7.973   2.963   4.763  0.2798  0.7309  0.2827
   31MOL   H26912929   7.922   2.722   4.689  0.3048  0.0686 -0.1602
   31MOL   H27012930   7.874   2.559   4.833  1.8939  0.1371 -1.0186
   31MOL   H27112931   7.808   2.623   5.082 -0.6011  2.5104  2.2266
   31MOL   H27212932   7.872   2.833   5.165  0.2120 -0.5625 -0.1546
   31MOL   H27312933   7.581   3.320   5.120  0.0547 -0.0235  0.8170
   31MOL   H27412934   7.651   3.442   5.017 -0.3606 -0.8353 -1.4859
   31MOL   C27512935   7.608   3.274   4.908 -0.1707 -0.4792 -0.0672
   31MOL   O27612936   7.619   3.138   4.919 -0.1573  0.0286 -0.5049
   31MOL   C27712937   7.641   3.069   4.809  0.4311 -0.2797  1.0836
   31MOL   O27812938   7.542   3.087   4.716 -0.0132 -0.1163 -0.1127
   31MOL   C27912939   7.543   2.997   4.613 -0.8885  0.0155  0.5145
   31MOL   C28012940   7.417   2.948   4.568 -0.0997  0.5487 -0.3583
   31MOL   C28112941   7.410   2.853   4.464  0.4131 -0.5515  0.4921
   31MOL   C28212942   7.527   2.800   4.405  0.3425 -0.0812  0.2779
   31MOL   C28312943   7.652   2.850   4.453  0.2792  0.0057  0.4476
   31MOL   C28412944   7.667   2.946   4.554  0.1971 -0.3666 -0.1447
   31MOL   C28512945   7.455   3.317   4.876 -0.4691 -0.5310 -0.3053
   31MOL   H28612946   7.666   3.302   4.820 -1.4432  1.2172 -0.3943
   31MOL   H28712947   7.624   2.969   4.849 -0.4322 -1.2506 -1.5906
   31MOL   H28812948   7.738   3.083   4.762 -0.0827  0.8291  0.3124
   31MOL   H28912949   7.322   2.985   4.604 -0.6357  0.1206 -1.3134
   31MOL   H29012950   7.310   2.821   4.438 -0.1377  0.9468  0.6788
   31MOL   H29112951   7.517   2.722   4.330 -1.9704  0.8771 -0.4560
   31MOL   H29212952   7.743   2.828   4.400  0.6232 -0.2946  1.1503
   31MOL   H29312953   7.762   2.993   4.574  0.1916  0.7817 -2.6002
   31MOL   H29412954   7.392   3.300   4.963  0.1534 -1.4744 -0.0304
   31MOL   H29512955   7.408   3.247   4.807 -0.0343 -2.1705  1.0345
   31MOL   C29612956   7.457   3.467   4.837 -0.2763  0.3541 -0.5346
   31MOL   O29712957   7.539   3.485   4.715  0.2856 -0.2808 -0.2159
   31MOL   C29812958   7.591   3.616   4.704  0.1461  0.0063 -0.8267
   31MOL   O29912959   7.680   3.628   4.602 -0.5712 -0.6727 -0.6556
   31MOL   C30012960   7.754   3.743   4.579 -0.0348 -0.7289 -0.5794
   31MOL   C30112961   7.862   3.739   4.483  0.1840  0.3831 -0.0742
   31MOL   C30212962   7.931   3.855   4.462 -0.3020  0.2990 -0.3021
   31MOL   C30312963   7.906   3.975   4.529  0.0041 -0.3772  0.2113
   31MOL   C30412964   7.808   3.977   4.625 -1.3503 -0.0019  0.0341
   31MOL   C30512965   7.727   3.863   4.648 -0.4722  0.5769 -0.0296
   31MOL   C30612966   7.315   3.506   4.810  0.0073  0.2433 -0.0611
   31MOL   H30712967   7.498   3.532   4.914 -0.3442 -0.7638  0.4557
   31MOL   H30812968   7.638   3.649   4.797  0.9868 -0.4445 -1.0820
   31MOL   H30912969   7.506   3.674   4.670 -1.7171 -2.6174 -0.8086
   31MOL   H31012970   7.890   3.646   4.436 -1.2155 -1.1295  2.0182
   31MOL   H31112971   0.040   3.856   4.395 -1.7194 -0.4481 -2.1415
   31MOL   H31212972   7.963   4.066   4.514  0.6112 -1.2470 -3.0501
   31MOL   H31312973   7.791   4.071   4.675 -1.7276 -0.1373  0.1556
   31MOL   H31412974   7.649   3.872   4.721 -0.2616 -0.0790  0.2748
   31MOL   H31512975   7.267   3.435   4.742  0.7926 -0.5509  0.1987
   31MOL   H31612976   7.315   3.605   4.764 -1.4400  1.0434  1.6126
   31MOL   C31712977   7.222   3.516   4.940 -0.1723 -0.5411  0.0461
   31MOL   O31812978   7.109   3.585   4.878  0.5698 -0.1034 -0.2258
   31MOL   C31912979   6.998   3.511   4.850  0.1828 -0.1635 -0.2640
   31MOL   O32012980   6.910   3.496   4.953  0.5068  0.1963 -0.3232
   31MOL   C32112981   6.839   3.604   5.008  0.5056  0.1528  0.3375
   31MOL   C32212982   6.863   3.738   4.969 -0.4951  0.1491 -0.1290
   31MOL   C32312983   6.794   3.840   5.035 -0.2300  0.4129  0.6540
   31MOL   C32412984   6.705   3.811   5.142  0.2685  0.3858 -0.2123
   31MOL   C32512985   6.701   3.684   5.194 -0.5602  0.0487  0.1459
   31MOL   C32612986   6.759   3.574   5.122  0.0059  0.4123  0.1677
   31MOL   C32712987   7.288   3.585   5.064 -0.1383 -0.2655 -0.2747
   31MOL   H32812988   7.191   3.415   4.967 -1.2443 -0.4108 -0.6687
   31MOL   H32912989   7.016   3.404   4.859  0.1557 -0.1468  0.0106
   31MOL   H33012990   6.950   3.550   4.760 -0.4184  0.5380  0.3436
   31MOL   H33112991   6.938   3.761   4.895 -0.6635  1.7193  0.1645
   31MOL   H33212992   6.807   3.942   5.001  1.2167  0.0724  0.1693
   31MOL   H33312993   6.654   3.888   5.198  1.4353 -0.4918  2.1426
   31MOL   H33412994   6.658   3.654   5.288 -0.2094  1.0778  0.6436
   31MOL   H33512995   6.741   3.474   5.158 -0.7656  1.7062  3.6006
   31MOL   H33612996   7.368   3.523   5.103 -0.1064  0.6524  1.1529
   31MOL   H33712997   7.333   3.678   5.027  0.7198 -1.8638 -3.4376
   31MOL   C33812998   7.192   3.607   5.183  0.0806  0.1576 -0.4870
   31MOL   O33912999   7.201   3.481   5.245 -0.4543  0.5006 -0.9415
   31MOL   C34013000   7.079   3.411   5.259  0.0275  0.0146  0.5791
   31MOL   O34113001   6.978   3.478   5.318  0.2336 -0.3358  0.7349
   31MOL   C34213002   6.956   3.458   5.454  0.1476  0.5258  0.3573
   31MOL   C34313003   6.835   3.497   5.507  0.1011 -0.6793  0.1228
   31MOL   C34413004   6.809   3.496   5.648 -0.1241 -0.3035  0.1990
   31MOL   C34513005   6.908   3.438   5.728  0.0620  0.0747 -0.0304
   31MOL   C34613006   7.024   3.384   5.673  0.2301 -0.1051  0.2398
   31MOL   C34713007   7.050   3.394   5.535 -0.4729 -0.6911 -0.0880
   31MOL   C34813008   7.260   3.721   5.269  0.2764 -0.5878  0.0983
   31MOL   H34913009   7.090   3.634   5.155  0.8008  3.4251 -0.1190
   31MOL   H35013010   7.097   3.311   5.299 -2.6565  0.2870  2.6330
   31MOL   H35113011   7.033   3.394   5.162  0.8601 -0.1988  0.2163
   31MOL   H35213012   6.761   3.534   5.437 -0.4614 -0.6647  0.7142
   31MOL   H35313013   6.711   3.514   5.690 -0.5070 -0.0943 -0.7564
   31MOL   H35413014   6.882   3.436   5.832  1.0929 -0.3891  0.2293
   31MOL   H35513015   7.102   3.344   5.737  0.2635 -2.2472 -1.1225
   31MOL   H35613016   7.150   3.364   5.509 -0.5174 -0.0994 -0.9313
   31MOL   H35713017   7.297   3.798   5.202  0.2600  0.5071  1.3199
   31MOL   H35813018   7.349   3.680   5.317 -0.9895 -1.2702  1.9109
   31MOL   C35913019   7.175   3.800   5.377 -0.6109  0.1704  0.2009
   31MOL   O36013020   7.120   3.906   5.295  0.0849 -0.0033  0.0742
   31MOL   C36113021   6.987   3.951   5.323 -0.0955  0.6366 -0.0731
   31MOL   O36213022   6.962   4.074   5.275  0.0093  0.2445 -0.4039
   31MOL   C36313023   6.836   4.120   5.306  0.7286  0.3700  0.4070
   31MOL   C36413024   6.800   4.222   5.210  0.2398 -0.1325 -0.2794
   31MOL   C36513025   6.675   4.283   5.233 -0.6903 -0.1645  0.4288
   31MOL   C36613026   6.586   4.240   5.333  0.5454  0.0924 -0.0078
   31MOL   C36713027   6.612   4.125   5.407 -0.0234 -0.4550  0.5001
   31MOL   C36813028   6.739   4.068   5.404 -0.4088  0.4465 -0.1972
   31MOL   C36913029   7.259   3.871   5.481 -0.0734  0.0146 -0.0936
   31MOL   H37013030   7.100   3.729   5.415  0.3250  0.4076  2.5382
   31MOL   H37113031   6.973   3.950   5.431 -0.3898 -2.5947 -0.0735
   31MOL   H37213032   6.913   3.877   5.292  1.4872 -0.5696 -1.0434
   31MOL   H37313033   6.859   4.268   5.132  0.2374  2.3128  1.0921
   31MOL   H37413034   6.648   4.372   5.177  1.5150  0.8326  0.8890
   31MOL   H37513035   6.487   4.283   5.335  0.8421  0.7250  2.2662
   31MOL   H37613036   6.535   4.091   5.474 -0.6981  0.2689  0.0853
   31MOL   H37713037   6.771   3.982   5.463  0.5433 -1.0983 -2.8812
   31MOL   H37813038   7.188   3.942   5.524 -1.2103 -0.3968 -1.2348
   31MOL   H37913039   7.336   3.927   5.429 -0.3060 -1.7443 -2.4214
   31MOL   C38013040   7.324   3.780   5.585  0.5840  1.1161 -0.0109
   31MOL   O38113041   7.262   3.792   5.710 -0.1863  0.0955  0.7954
   31MOL   C38213042   7.144   3.719   5.730 -0.0318  0.0867 -0.5324
   31MOL   O38313043   7.036   3.765   5.666  0.8794 -0.1908  0.2133
   31MOL   C38413044   6.953   3.852   5.730  0.8973  0.5255 -0.3143
   31MOL   C38513045   6.816   3.846   5.719 -0.3682 -0.5642  0.2611
   31MOL   C38613046   6.732   3.936   5.777  0.0412  1.1605 -0.0382
   31MOL   C38713047   6.789   4.020   5.874  0.8315 -0.1325 -0.3321
   31MOL   C38813048   6.924   4.019   5.906 -0.4754  1.0117  0.4363
   31MOL   C38913049   7.007   3.941   5.821  0.2143 -0.0539 -0.5598
   31MOL   C39013050   7.473   3.829   5.603  0.0923 -0.2884  0.1776
   31MOL   H39113051   7.314   3.676   5.556 -4.1390  0.7781  2.3141
   31MOL   H39213052   7.158   3.619   5.689 -0.1094 -0.1398 -0.0157
   31MOL   H39313053   7.123   3.708   5.837 -1.0694 -1.3554 -0.8648
   31MOL   H39413054   6.761   3.777   5.657 -1.3641  1.6899 -1.4463
   31MOL   H39513055   6.629   3.928   5.745  0.1094 -0.8425  0.2020
   31MOL   H39613056   6.719   4.085   5.926 -0.2042 -1.0637 -0.5487
   31MOL   H39713057   6.961   4.090   5.978  0.4168  2.8590 -1.7694
   31MOL   H39813058   7.114   3.950   5.836 -0.1507  2.9118  0.5951
   31MOL   H39913059   7.466   3.930   5.645  0.3619  0.2271 -1.0009
   31MOL   H40013060   7.524   3.849   5.510  1.4691 -0.1151  0.9613
   31MOL   C40113061   7.551   3.739   5.699  0.1952 -0.2615  0.0580
   31MOL   O40213062   7.530   3.604   5.652  0.3128  0.0795  0.0095
   31MOL   C40313063   7.548   3.498   5.742  0.3124 -0.0763  0.4930
   31MOL   O40413064   7.466   3.502   5.860  0.5484 -0.1193 -0.0933
   31MOL   C40513065   7.414   3.381   5.906 -0.3830 -0.0112 -0.3892
   31MOL   C40613066   7.305   3.389   5.986 -0.3523 -0.4100  0.1347
   31MOL   C40713067   7.245   3.271   6.038 -0.2315  0.2779 -0.4352
   31MOL   C40813068   7.296   3.146   6.005 -0.5773 -0.9714 -0.1562
   31MOL   C40913069   7.411   3.130   5.925  0.9415 -0.2900  0.1232
   31MOL   C41013070   7.474   3.250   5.878  0.9979 -0.1265  0.2366
   31MOL   C41113071   7.701   3.765   5.703  0.2043  0.1984 -0.0209
   31MOL   H41213072   7.524   3.748   5.804  0.7322  0.9637  0.1015
   31MOL   H41313073   7.655   3.480   5.757  0.3321 -0.2432  0.1585
   31MOL   H41413074   7.522   3.411   5.681 -3.4595  0.5907  1.0580
   31MOL   H41513075   7.266   3.485   6.017  0.3681  0.1446 -0.6307
   31MOL   H41613076   7.161   3.280   6.105  0.6686 -1.9216  1.0220
   31MOL   H41713077   7.252   3.073   6.072 -0.6953 -1.1429 -0.4211
   31MOL   H41813078   7.461   3.036   5.910  0.5519 -0.2750 -1.4574
   31MOL   H41913079   7.562   3.240   5.817 -0.8854  0.2530 -2.6155
   31MOL   H42013080   7.719   3.870   5.726  0.8223  0.3995 -1.4029
   31MOL   H42113081   7.746   3.744   5.606  0.8624  0.8675  0.1446
   31MOL   H42213082   7.742   3.702   5.782 -0.4657  0.1182  0.2695
   32MOL     C113083   3.719   4.933   0.994 -0.0844  0.1827 -0.0661
   32MOL     O213084   3.770   5.067   0.978 -0.7103  0.6364 -0.1082
   32MOL     C313085   3.686   5.149   0.905  0.5867 -0.6116  0.5907
   32MOL     O413086   3.558   5.166   0.967  0.3702  0.5248 -0.0426
   32MOL     C513087   3.466   5.265   0.928  0.3317  0.4056 -1.5336
   32MOL     C613088   3.330   5.249   0.966  0.0539 -0.0769 -0.3891
   32MOL     C713089   3.234   5.351   0.949  0.3502 -0.0189  1.0036
   32MOL     C813090   3.287   5.473   0.895  0.5169  0.2488  0.4283
   32MOL     C913091   3.418   5.494   0.861 -0.7004  0.2366  0.0361
   32MOL    C1013092   3.513   5.386   0.871 -0.0614  0.1397 -0.0745
   32MOL    C1113093   3.809   4.834   1.073 -0.1140  0.0240 -0.2501
   32MOL    H1213094   3.614   4.934   1.024 -0.2556 -1.3344 -0.5610
   32MOL    H1313095   3.738   5.243   0.925 -0.9346  0.3738  0.0314
   32MOL    H1413096   3.676   5.127   0.798 -1.3573  1.9337  0.1764
   32MOL    H1513097   3.295   5.160   1.017  2.3198  0.8279  2.9644
   32MOL    H1613098   3.136   5.343   0.992  0.6092 -0.2200  1.5632
   32MOL    H1713099   3.212   5.550   0.888  1.9022  1.5143 -0.8617
   32MOL    H1813100   3.446   5.589   0.819  3.0019 -0.2979  1.0594
   32MOL    H1913101   3.611   5.399   0.826  0.2520 -3.3888 -0.5693
   32MOL    H2013102   3.793   4.731   1.041  0.8252 -0.0519 -0.4772
   32MOL    H2113103   3.771   4.844   1.175  0.2136 -2.2763  0.1263
   32MOL    H2213104   3.720   4.896   0.891  0.2741 -2.9142  0.9915
   32MOL    C2313105   3.955   4.860   1.057  0.9616  0.8245  0.5769
   32MOL    O2413106   4.000   4.809   0.934  0.6021  0.1078 -0.3646
   32MOL    C2513107   4.008   4.907   0.832 -0.3720 -0.1614 -0.4325
   32MOL    O2613108   3.902   4.900   0.746 -0.0907  0.2160 -0.4101
   32MOL    C2713109   3.902   4.971   0.631 -0.2965 -0.0342  0.5020
   32MOL    C2813110   3.789   4.948   0.549 -0.1120  0.0011 -1.1230
   32MOL    C2913111   3.766   5.016   0.430  0.4257 -1.2871  0.1783
   32MOL    C3013112   3.864   5.101   0.380 -0.1263  0.3321  0.1940
   32MOL    C3113113   3.983   5.126   0.454  0.2306  0.2174 -0.3752
   32MOL    C3213114   4.003   5.063   0.584  0.1972 -0.4314 -0.1970
   32MOL    C3313115   4.037   4.774   1.161 -0.3049 -0.6322  1.4118
   32MOL    H3413116   3.991   4.961   1.079 -1.0234  1.6220  0.2217
   32MOL    H3513117   4.092   4.889   0.765 -0.1236 -0.8407  0.0528
   32MOL    H3613118   4.007   5.010   0.869  0.6455 -0.1590 -0.3875
   32MOL    H3713119   3.711   4.882   0.584  0.7169  0.1379  1.0295
   32MOL    H3813120   3.672   4.998   0.380 -0.4611 -1.2076  1.7893
   32MOL    H3913121   3.860   5.135   0.277 -2.2232  1.0545  0.4957
   32MOL    H4013122   4.059   5.185   0.406  0.3239  0.1556 -0.3050
   32MOL    H4113123   4.093   5.088   0.637 -1.0813  3.1682  0.3826
   32MOL    H4213124   4.145   4.777   1.148 -0.7240  1.6340 -2.0126
   32MOL    H4313125   4.005   4.673   1.136 -1.4932  0.2200 -0.5866
   32MOL    C4413126   4.011   4.818   1.310 -0.7511  0.3147 -0.4619
   32MOL    O4513127   4.077   4.946   1.321  0.4219  0.1599 -0.6589
   32MOL    C4613128   3.985   5.049   1.342  0.2285  0.9740  0.0124
   32MOL    O4713129   3.967   5.090   1.475  0.1366 -0.4926  0.7639
   32MOL    C4813130   4.078   5.132   1.549  0.1548 -0.1040  0.3922
   32MOL    C4913131   4.061   5.146   1.683  0.2381 -0.5309 -0.0669
   32MOL    C5013132   4.166   5.184   1.768 -0.2087  0.0100  0.2800
   32MOL    C5113133   4.293   5.200   1.710 -0.5720  0.1463 -0.1520
   32MOL    C5213134   4.314   5.189   1.571 -0.2574  0.2681 -0.7588
   32MOL    C5313135   4.203   5.155   1.492 -0.3610  0.2864 -0.1540
   32MOL    C5413136   4.074   4.725   1.411 -0.4234  0.3126  0.4265
   32MOL    H5513137   3.905   4.822   1.335 -0.3765  2.9602  0.9594
   32MOL    H5613138   3.885   5.031   1.304  0.7796 -0.5343 -0.7440
   32MOL    H5713139   4.012   5.137   1.283 -0.8097  1.4693  0.2622
   32MOL    H5813140   3.965   5.127   1.727  0.7789 -2.1099  0.4929
   32MOL    H5913141   4.147   5.186   1.874  0.6201  0.6186  0.4182
   32MOL    H6013142   4.376   5.227   1.775 -2.0208  0.1800  1.7382
   32MOL    H6113143   4.412   5.203   1.529  0.0042  0.6261 -0.0444
   32MOL    H6213144   4.219   5.144   1.386 -2.3336  1.8420 -0.6439
   32MOL    H6313145   4.069   4.785   1.501 -0.4282  0.9984 -0.0320
   32MOL    H6413146   4.002   4.646   1.434 -1.0795  0.2105 -1.8970
   32MOL    C6513147   4.209   4.650   1.381  0.7209 -0.3681 -0.5089
   32MOL    O6613148   4.203   4.537   1.295  0.4014  0.8056  0.5565
   32MOL    C6713149   4.221   4.416   1.358 -0.2247  0.6076 -0.6295
   32MOL    O6813150   4.113   4.378   1.442 -0.0930 -0.2757 -0.3936
   32MOL    C6913151   3.985   4.362   1.386  0.3103 -0.1335 -0.1927
   32MOL    C7013152   3.945   4.382   1.249  0.0661  0.5257  0.4523
   32MOL    C7113153   3.821   4.345   1.204 -0.4900 -0.1370 -0.8781
   32MOL    C7213154   3.729   4.291   1.302 -0.5058  0.2152  0.6528
   32MOL    C7313155   3.764   4.272   1.434 -0.8988 -0.5222  0.4070
   32MOL    C7413156   3.887   4.317   1.476 -0.3178 -0.3234  0.4059
   32MOL    C7513157   4.318   4.754   1.350 -0.4584 -0.3200 -0.2795
   32MOL    H7613158   4.224   4.615   1.483 -2.0027  0.0506  0.0779
   32MOL    H7713159   4.314   4.415   1.414  0.5511  1.4467 -1.8735
   32MOL    H7813160   4.233   4.337   1.283 -0.9075 -1.0361  0.9617
   32MOL    H7913161   4.020   4.419   1.181  0.1279  1.4499  1.0073
   32MOL    H8013162   3.797   4.357   1.099 -2.0248 -0.7392 -0.6183
   32MOL    H8113163   3.627   4.266   1.276 -0.2608  0.6213 -0.7600
   32MOL    H8213164   3.692   4.222   1.497 -1.6585  0.2122  0.1382
   32MOL    H8313165   3.921   4.296   1.576  0.6118 -0.0606  0.1502
   32MOL    H8413166   4.328   4.773   1.243  2.5103  0.6144  0.0896
   32MOL    H8513167   4.290   4.854   1.383  2.3601 -0.8673  4.3138
   32MOL    C8613168   4.462   4.731   1.408  0.2100  0.5928  0.3215
   32MOL    O8713169   4.454   4.759   1.548 -0.0198 -0.1395 -0.1072
   32MOL    C8813170   4.498   4.887   1.585  0.0689  0.2905 -0.1136
   32MOL    O8913171   4.636   4.889   1.619 -0.1623  0.1025  0.2829
   32MOL    C9013172   4.691   4.828   1.729 -0.3528  0.3660 -0.1510
   32MOL    C9113173   4.831   4.845   1.756  0.2964 -0.0517  0.2338
   32MOL    C9213174   4.899   4.787   1.862  0.6660  0.1880 -0.2745
   32MOL    C9313175   4.825   4.715   1.957 -0.4315 -0.2941  0.5196
   32MOL    C9413176   4.686   4.698   1.941  0.3659  0.4503  0.3587
   32MOL    C9513177   4.623   4.742   1.825  0.7530 -0.6271 -0.1952
   32MOL    C9613178   4.527   4.596   1.374  0.5419 -0.1668  0.5437
   32MOL    H9713179   4.534   4.800   1.366 -0.1505 -0.0385 -1.3850
   32MOL    H9813180   4.450   4.928   1.674 -2.2175  1.0293 -1.6479
   32MOL    H9913181   4.483   4.957   1.502 -1.4560 -0.3099 -0.3521
   32MOL   H10013182   4.877   4.904   1.679 -1.7397 -2.4946 -3.0057
   32MOL   H10113183   5.005   4.805   1.879  0.8964  0.4093 -1.8729
   32MOL   H10213184   4.874   4.661   2.036 -0.0408 -1.1637 -0.3107
   32MOL   H10313185   4.635   4.646   2.020  1.6519  0.6380  1.3401
   32MOL   H10413186   4.519   4.715   1.812  1.0450 -1.9342  0.0928
   32MOL   H10513187   4.491   4.514   1.436  0.4512  0.6128  1.5310
   32MOL   H10613188   4.507   4.572   1.270  1.5684  1.7426 -0.1100
   32MOL   C10713189   4.678   4.601   1.408 -0.2583 -0.3359 -0.3501
   32MOL   O10813190   4.712   4.468   1.459 -0.0865  1.0531  0.2640
   32MOL   C10913191   4.721   4.456   1.603  0.1873  0.4001 -0.2943
   32MOL   O11013192   4.605   4.485   1.676 -1.0208 -0.2385  0.0973
   32MOL   C11113193   4.505   4.398   1.674  0.2235 -0.2568 -0.0343
   32MOL   C11213194   4.492   4.273   1.607 -0.5846 -0.0567  0.3113
   32MOL   C11313195   4.380   4.195   1.615 -0.0056  0.0319  0.4367
   32MOL   C11413196   4.270   4.231   1.693  0.2577  0.3450 -0.5452
   32MOL   C11513197   4.279   4.356   1.754 -0.0875  0.7018 -0.1265
   32MOL   C11613198   4.396   4.438   1.749  0.8253  0.2090  0.1611
   32MOL   C11713199   4.760   4.621   1.281 -1.0055 -0.3048  0.0926
   32MOL   H11813200   4.699   4.685   1.475 -1.5493  0.5181 -1.0102
   32MOL   H11913201   4.797   4.530   1.630  0.2652 -0.5421  2.2301
   32MOL   H12013202   4.759   4.358   1.631  1.2978  0.8637 -0.1612
   32MOL   H12113203   4.568   4.237   1.539  0.3137  0.1289  1.2171
   32MOL   H12213204   4.374   4.097   1.569 -1.2755 -0.4093  1.5168
   32MOL   H12313205   4.180   4.171   1.701 -0.1417  1.3118  2.6014
   32MOL   H12413206   4.194   4.384   1.814 -1.3211 -1.8840 -0.5888
   32MOL   H12513207   4.397   4.533   1.800 -0.1609  0.4415 -0.2442
   32MOL   H12613208   4.744   4.535   1.216 -2.1685  0.4007 -0.5770
   32MOL   H12713209   4.867   4.609   1.302 -0.8303 -0.1852 -0.7158
   32MOL   C12813210   4.756   4.756   1.207  0.3771  0.5309 -0.0862
   32MOL   O12913211   4.836   4.752   1.084 -0.0247 -0.0811  0.1292
   32MOL   C13013212   4.772   4.768   0.965  0.1329 -0.1966  0.8950
   32MOL   O13113213   4.763   4.903   0.920  0.2729  0.2758 -0.0097
   32MOL   C13213214   4.878   4.964   0.877 -0.0926 -0.2018  0.2155
   32MOL   C13313215   4.872   5.094   0.828 -1.0753 -0.7449  0.5520
   32MOL   C13413216   4.985   5.164   0.781 -0.1719 -0.3161  0.0984
   32MOL   C13513217   5.108   5.100   0.795  0.0245 -0.0072  0.3950
   32MOL   C13613218   5.125   4.969   0.846 -0.1793  0.1698  0.3429
   32MOL   C13713219   5.004   4.901   0.875 -0.4049 -0.1091  0.0055
   32MOL   C13813220   4.824   4.865   1.301 -0.0943  0.3910  0.8007
   32MOL   H13913221   4.653   4.782   1.182  1.1922  1.8922 -2.2046
   32MOL   H14013222   4.670   4.729   0.965 -0.4091  1.1482  1.6590
   32MOL   H14113223   4.833   4.710   0.897  2.3501 -0.6438  3.1787
   32MOL   H14213224   4.772   5.135   0.819 -1.2841 -1.7349 -1.9730
   32MOL   H14313225   4.979   5.266   0.747 -1.5195 -0.4259 -0.0187
   32MOL   H14413226   5.190   5.164   0.764  0.7250 -0.5318  1.1304
   32MOL   H14513227   5.227   4.935   0.850  0.3657  1.5741 -1.1176
   32MOL   H14613228   5.021   4.800   0.909  1.6599  0.3702  0.5024
   32MOL   H14713229   4.801   4.860   1.407  0.8806 -1.1967  0.9584
   32MOL   H14813230   4.932   4.852   1.286 -0.3912  0.2013 -1.4023
   32MOL   C14913231   4.787   5.003   1.258  0.1962 -0.2159  0.4086
   32MOL   O15013232   4.640   5.013   1.272 -0.7777 -0.1114  0.3354
   32MOL   C15113233   4.557   5.060   1.169 -0.2998 -0.0764 -0.4762
   32MOL   O15213234   4.476   4.952   1.131 -0.0650 -0.2632  0.4006
   32MOL   C15313235   4.424   4.952   1.004  0.0629  0.5759 -0.9473
   32MOL   C15413236   4.392   4.824   0.943  0.3502 -0.2832 -0.2137
   32MOL   C15513237   4.356   4.815   0.806 -0.7296 -0.0825  1.4537
   32MOL   C15613238   4.362   4.933   0.725 -0.3299  0.2883 -0.5366
   32MOL   C15713239   4.411   5.058   0.785  0.0128  0.4178  0.5486
   32MOL   C15813240   4.428   5.068   0.923 -0.5231 -0.0768 -0.0909
   32MOL   C15913241   4.861   5.106   1.348  0.1497  0.2477 -0.2150
   32MOL   H16013242   4.821   5.019   1.156  0.0186  0.4823  0.4615
   32MOL   H16113243   4.497   5.145   1.201  2.1822  1.5511  0.0362
   32MOL   H16213244   4.621   5.093   1.087  2.3529  1.2873  2.0386
   32MOL   H16313245   4.395   4.737   1.006  2.7792 -1.3119 -1.6844
   32MOL   H16413246   4.332   4.721   0.759 -1.5549  0.7634  0.1452
   32MOL   H16513247   4.344   4.937   0.619 -2.6711 -1.9699 -0.2937
   32MOL   H16613248   4.427   5.142   0.719 -1.0377  1.3445  1.4552
   32MOL   H16713249   4.455   5.164   0.965 -0.2321  0.5585 -1.6746
   32MOL   H16813250   4.958   5.098   1.298  0.6831  1.9265  0.5254
   32MOL   H16913251   4.878   5.063   1.447 -1.5586 -1.5890 -0.6849
   32MOL   C17013252   4.809   5.248   1.340  0.3448  0.4388  0.4785
   32MOL   O17113253   4.851   5.328   1.456  0.3282  0.2197  0.1391
   32MOL   C17213254   4.776   5.317   1.573 -0.1087  0.0933 -0.7771
   32MOL   O17313255   4.655   5.376   1.560 -0.3373 -0.1272 -0.7686
   32MOL   C17413256   4.646   5.513   1.590 -0.4091 -0.4394  0.7064
   32MOL   C17513257   4.760   5.596   1.626 -0.4218 -0.1769 -0.3701
   32MOL   C17613258   4.735   5.728   1.670 -0.5420 -0.0079  0.8012
   32MOL   C17713259   4.603   5.775   1.680  0.1191 -0.2774  0.0829
   32MOL   C17813260   4.493   5.695   1.655  0.6063 -0.5075  0.3954
   32MOL   C17913261   4.513   5.569   1.601  0.8308  0.4076 -0.1920
   32MOL   C18013262   4.863   5.317   1.215  0.5932 -0.1344 -0.7415
   32MOL   H18113263   4.700   5.246   1.335  0.3481 -1.3582  0.7749
   32MOL   H18213264   4.825   5.349   1.665 -0.0428  0.3511 -0.9026
   32MOL   H18313265   4.757   5.213   1.603 -1.7382  0.0693 -1.8397
   32MOL   H18413266   4.862   5.561   1.632  0.6007  2.4385 -1.8136
   32MOL   H18513267   4.820   5.790   1.696  0.2378 -0.6741 -0.1015
   32MOL   H18613268   4.593   5.875   1.720 -2.9714 -0.1242 -1.0016
   32MOL   H18713269   4.392   5.728   1.676  0.1784 -0.6873 -1.3251
   32MOL   H18813270   4.423   5.510   1.588  0.0780  1.6011 -0.4597
   32MOL   H18913271   4.970   5.339   1.218  0.6071 -0.2416 -0.4625
   32MOL   H19013272   4.846   5.254   1.128 -1.7211  0.5895 -0.8542
   32MOL   C19113273   4.785   5.446   1.180  0.7760  0.5620 -0.2694
   32MOL   O19213274   4.645   5.415   1.165 -0.3004  0.0810 -0.9480
   32MOL   C19313275   4.550   5.499   1.230  0.3784 -0.2604  0.4771
   32MOL   O19413276   4.426   5.437   1.243 -0.4028  0.0456 -0.4744
   32MOL   C19513277   4.354   5.408   1.129  0.4635 -0.5765  0.3956
   32MOL   C19613278   4.396   5.447   0.997  0.1573  0.0108 -1.0288
   32MOL   C19713279   4.319   5.411   0.886  0.7457  0.0348 -0.1494
   32MOL   C19813280   4.204   5.325   0.900 -0.4770 -0.0660  0.5118
   32MOL   C19913281   4.167   5.282   1.025 -0.1807 -0.2705  0.1072
   32MOL   C20013282   4.235   5.336   1.139  0.5436  0.7317  0.0267
   32MOL   C20113283   4.828   5.502   1.043  0.1263  0.1315  0.4991
   32MOL   H20213284   4.802   5.523   1.255  2.2614 -0.5823  0.5905
   32MOL   H20313285   4.548   5.596   1.181  1.1372 -1.4358 -1.9940
   32MOL   H20413286   4.591   5.522   1.328  3.1383  0.3517 -0.7650
   32MOL   H20513287   4.491   5.493   0.974  0.2514 -0.4233 -1.5089
   32MOL   H20613288   4.339   5.439   0.783  0.8545  1.2797  0.2015
   32MOL   H20713289   4.139   5.295   0.819 -1.0920  1.7115  0.3339
   32MOL   H20813290   4.085   5.212   1.033  0.9534 -1.7019 -0.4619
   32MOL   H20913291   4.202   5.298   1.234  3.1130  1.5172  1.2830
   32MOL   H21013292   4.829   5.421   0.970 -1.3456  1.9657 -1.6283
   32MOL   H21113293   4.755   5.573   1.003  0.2152 -0.3502 -0.5379
   32MOL   C21213294   4.972   5.569   1.039  0.2832 -0.1714  0.0744
   32MOL   O21313295   5.042   5.532   0.921 -0.4047  0.0165 -0.2400
   32MOL   C21413296   5.170   5.485   0.941 -0.4364 -0.0102  0.2810
   32MOL   O21513297   5.162   5.358   1.010  0.2166  0.8135 -0.0190
   32MOL   C21613298   5.266   5.317   1.090 -0.1471 -0.3857  1.0806
   32MOL   C21713299   5.396   5.378   1.091 -0.3202 -0.0856  0.7642
   32MOL   C21813300   5.502   5.345   1.176  0.1211  0.0141  0.5397
   32MOL   C21913301   5.470   5.240   1.266 -0.4372  0.2091 -0.7180
   32MOL   C22013302   5.343   5.177   1.280  0.0880 -0.3932  0.7008
   32MOL   C22113303   5.247   5.209   1.183  1.0724  0.0759 -0.7313
   32MOL   C22213304   4.965   5.727   1.038 -0.3043  0.4249  0.0232
   32MOL   H22313305   5.037   5.538   1.119 -0.3650 -3.8421 -0.7551
   32MOL   H22413306   5.237   5.560   0.982 -1.7784  0.1451  2.2929
   32MOL   H22513307   5.223   5.472   0.847  4.0267 -0.2216  2.6660
   32MOL   H22613308   5.424   5.455   1.020 -2.3556 -0.1016 -0.0991
   32MOL   H22713309   5.601   5.388   1.175  0.8818 -1.7341 -0.9881
   32MOL   H22813310   5.546   5.230   1.341  0.5401  2.6777 -1.3127
   32MOL   H22913311   5.327   5.098   1.352 -1.0562 -0.7962  0.0220
   32MOL   H23013312   5.156   5.152   1.195  0.1697  1.4970 -0.7331
   32MOL   H23113313   5.040   5.754   0.965 -0.4171  1.9388  0.4520
   32MOL   H23213314   4.867   5.756   0.999 -0.4765 -0.6252 -0.3569
   32MOL   C23313315   4.996   5.801   1.167 -0.0631  0.1306  0.4759
   32MOL   O23413316   4.909   5.754   1.273  0.0496 -0.1139 -0.0226
   32MOL   C23513317   4.789   5.817   1.286  0.1613  0.6342 -0.2318
   32MOL   O23613318   4.706   5.806   1.171  0.0854 -0.1579  0.2063
   32MOL   C23713319   4.584   5.865   1.171 -0.0031 -0.7243  0.0717
   32MOL   C23813320   4.502   5.846   1.058  0.8502 -0.1509  0.2710
   32MOL   C23913321   4.377   5.906   1.052 -0.1265 -0.1802  0.1674
   32MOL   C24013322   4.332   5.978   1.166 -0.2183  0.2328 -0.1485
   32MOL   C24113323   4.414   5.984   1.285  0.3044 -0.4683 -0.7996
   32MOL   C24213324   4.538   5.926   1.290 -0.3400  0.4206 -0.6101
   32MOL   C24313325   5.148   5.794   1.212 -0.5702 -0.4622 -0.2310
   32MOL   H24413326   4.967   5.903   1.144  2.3026  1.0867  1.5815
   32MOL   H24513327   4.808   5.913   1.333 -4.3617  0.1625  2.8540
   32MOL   H24613328   4.741   5.763   1.368  2.7442 -0.7363  0.4102
   32MOL   H24713329   4.534   5.791   0.971 -0.3619  1.2361 -1.0825
   32MOL   H24813330   4.318   5.896   0.963 -3.0004  3.0944  1.5927
   32MOL   H24913331   4.233   6.020   1.162  0.5028  2.1021  0.9632
   32MOL   H25013332   4.366   6.025   1.373  0.0416 -2.7627  0.1509
   32MOL   H25113333   4.594   5.928   1.382  0.2112 -0.2250 -0.9283
   32MOL   H25213334   5.177   5.692   1.237 -1.2058  0.0815  2.8455
   32MOL   H25313335   5.215   5.823   1.130  0.3965 -0.0342  0.6911
   32MOL   C25413336   5.188   5.882   1.337  0.1049 -0.1301 -0.0008
   32MOL   O25513337   5.330   5.887   1.352 -0.3529  0.0979  0.3069
   32MOL   C25613338   5.395   5.765   1.368 -0.4839  0.5513  0.0210
   32MOL   O25713339   5.436   5.706   1.247 -0.3330 -0.3486 -0.2075
   32MOL   C25813340   5.540   5.776   1.181  0.5759 -1.0265 -0.0762
   32MOL   C25913341   5.611   5.881   1.244 -0.7289 -0.8242  0.4758
   32MOL   C26013342   5.719   5.939   1.179 -0.3026 -0.1250 -0.4204
   32MOL   C26113343   5.765   5.890   1.053  0.8025 -0.3159  0.1271
   32MOL   C26213344   5.699   5.778   0.993  0.7615  0.8457  0.1720
   32MOL   C26313345   5.580   5.725   1.053 -0.3448 -0.0440 -0.0693
   32MOL   C26413346   5.122   6.023   1.333  0.4067  0.2772  0.4445
   32MOL   H26513347   5.144   5.844   1.430 -0.6710 -1.0575 -0.7423
   32MOL   H26613348   5.332   5.695   1.423  0.8335  0.5483  1.5506
   32MOL   H26713349   5.480   5.780   1.434 -0.2063 -0.2613 -0.1436
   32MOL   H26813350   5.584   5.930   1.337 -0.1993  0.0094  0.1966
   32MOL   H26913351   5.774   6.017   1.230 -1.1833  0.1260  0.1491
   32MOL   H27013352   5.850   5.924   0.996  0.3109  2.1774  0.8294
   32MOL   H27113353   5.733   5.752   0.894 -0.4675 -0.8524  0.1740
   32MOL   H27213354   5.547   5.626   1.027 -0.6597  0.1607 -0.4462
   32MOL   H27313355   5.121   6.064   1.231  0.4969 -0.3195  0.2034
   32MOL   H27413356   5.020   6.008   1.369 -0.0372 -1.3021 -1.3885
   32MOL   C27513357   5.185   6.128   1.426 -0.4254 -0.4866 -1.2984
   32MOL   O27613358   5.154   6.262   1.390  0.1518 -0.1516  0.0994
   32MOL   C27713359   5.236   6.326   1.297  0.4157 -0.7338  0.1604
   32MOL   O27813360   5.243   6.260   1.176  0.7952 -0.3871  0.8008
   32MOL   C27913361   5.359   6.249   1.110  0.4068 -0.3570  0.6574
   32MOL   C28013362   5.451   6.353   1.105 -0.0638 -0.0594  0.4987
   32MOL   C28113363   5.566   6.339   1.028 -0.6794 -0.3160  0.6668
   32MOL   C28213364   5.595   6.221   0.951 -0.4906 -0.3063  0.8594
   32MOL   C28313365   5.503   6.113   0.969  0.3621 -0.0130  0.4969
   32MOL   C28413366   5.383   6.126   1.045  0.1130 -0.7186 -0.5195
   32MOL   C28513367   5.159   6.103   1.583  0.0662 -0.5732 -0.4502
   32MOL   H28613368   5.292   6.115   1.409 -0.7223 -1.7142 -2.3468
   32MOL   H28713369   5.338   6.346   1.331  0.4722  0.2317 -0.5574
   32MOL   H28813370   5.185   6.417   1.266  0.4350 -0.2683  1.4533
   32MOL   H28913371   5.439   6.448   1.154 -1.1669 -0.5921  1.2823
   32MOL   H29013372   5.635   6.422   1.037  0.6900 -1.2998 -0.7435
   32MOL   H29113373   5.690   6.227   0.901 -0.0952 -0.9936  1.5257
   32MOL   H29213374   5.524   6.016   0.925 -0.7299 -0.5233  1.0899
   32MOL   H29313375   5.312   6.046   1.039 -0.9970  0.2402 -0.3285
   32MOL   H29413376   5.243   6.150   1.634 -0.1497  0.0027 -0.6276
   32MOL   H29513377   5.190   6.001   1.607  0.0333 -0.3147  0.7110
   32MOL   C29613378   5.017   6.148   1.644 -0.4063  0.9186 -0.1014
   32MOL   O29713379   4.922   6.057   1.597  0.2870  0.1065  0.2049
   32MOL   C29813380   4.796   6.117   1.579 -0.0061  0.4948 -1.0025
   32MOL   O29913381   4.734   6.141   1.693 -0.3499 -0.0280 -0.3311
   32MOL   C30013382   4.595   6.152   1.696  0.6535  0.0892 -0.4401
   32MOL   C30113383   4.533   6.152   1.824 -0.9379  0.0316 -0.2179
   32MOL   C30213384   4.393   6.169   1.829 -0.9787  0.2175 -0.2133
   32MOL   C30313385   4.309   6.194   1.721 -0.5018 -0.6715 -0.1267
   32MOL   C30413386   4.376   6.213   1.598  0.3706 -0.2548 -0.7312
   32MOL   C30513387   4.518   6.182   1.581 -0.2091 -0.3630  0.0786
   32MOL   C30613388   5.015   6.152   1.796 -0.3056  0.0643 -0.7664
   32MOL   H30713389   5.000   6.246   1.600  0.4787  0.1742 -2.1737
   32MOL   H30813390   4.749   6.040   1.518  1.2658 -1.4091  0.3673
   32MOL   H30913391   4.805   6.201   1.511  1.9116  0.2820 -1.0404
   32MOL   H31013392   4.593   6.137   1.912  0.3643 -0.3747 -1.1682
   32MOL   H31113393   4.340   6.153   1.922  1.7906 -1.7470  1.1313
   32MOL   H31213394   4.205   6.221   1.727 -0.7363 -1.3787 -0.9332
   32MOL   H31313395   4.322   6.242   1.508  0.5808  1.7502 -0.2307
   32MOL   H31413396   4.554   6.171   1.480 -0.9910 -1.1584 -0.1197
   32MOL   H31513397   5.064   6.063   1.836  0.8785  1.6712  1.4228
   32MOL   H31613398   4.914   6.139   1.834  0.1343  0.1184  0.4385
   32MOL   C31713399   5.061   6.283   1.856 -0.7984 -0.4293  0.3797
   32MOL   O31813400   5.080   6.274   1.999 -0.7097  0.0994  0.1991
   32MOL   C31913401   4.973   6.227   2.078  0.0894 -0.0454  0.4141
   32MOL   O32013402   4.949   6.093   2.071  0.7471  0.4632 -0.0136
   32MOL   C32113403   4.835   6.034   2.122  0.1544 -0.1476 -0.4082
   32MOL   C32213404   4.836   5.891   2.115  0.1424 -0.4071  0.0770
   32MOL   C32313405   4.730   5.824   2.174  0.2282  0.1827  0.6364
   32MOL   C32413406   4.624   5.891   2.232  0.2719  0.2499  0.4882
   32MOL   C32513407   4.618   6.030   2.235 -0.3705 -0.6310  0.4924
   32MOL   C32613408   4.725   6.104   2.173  0.2925  0.9132  0.6602
   32MOL   C32713409   4.970   6.400   1.820  0.6672 -0.2073  0.4749
   32MOL   H32813410   5.162   6.290   1.817 -2.1098 -0.5309 -3.1531
   32MOL   H32913411   4.884   6.279   2.042  0.1463  0.5957  1.1889
   32MOL   H33013412   4.997   6.257   2.180 -0.5946 -1.6175  1.0623
   32MOL   H33113413   4.913   5.829   2.073  0.3185  0.6762 -1.2403
   32MOL   H33213414   4.727   5.716   2.175  2.3352  0.1013  0.7082
   32MOL   H33313415   4.541   5.834   2.271 -2.2261  1.9799 -2.1068
   32MOL   H33413416   4.544   6.081   2.294 -0.8740 -0.3975 -0.3363
   32MOL   H33513417   4.717   6.211   2.173  0.8850  0.9527  0.1964
   32MOL   H33613418   4.980   6.412   1.712  2.0484 -0.4054  0.5636
   32MOL   H33713419   4.868   6.364   1.831  0.6237 -0.8261 -1.7105
   32MOL   C33813420   4.988   6.535   1.889 -0.2856  0.2559 -0.0805
   32MOL   O33913421   5.113   6.594   1.849  0.1885  0.0095 -0.5924
   32MOL   C34013422   5.204   6.617   1.954  0.6700 -1.4282  0.1101
   32MOL   O34113423   5.163   6.727   2.035  0.6014  0.5503  0.3077
   32MOL   C34213424   5.238   6.752   2.144 -0.3510  0.3547  1.1635
   32MOL   C34313425   5.213   6.873   2.212  0.2119  0.1044 -0.8875
   32MOL   C34413426   5.292   6.914   2.318 -0.8815  0.0513  0.8179
   32MOL   C34513427   5.399   6.829   2.354  0.7829  0.7079 -0.7080
   32MOL   C34613428   5.428   6.709   2.295  0.5244  0.4946 -0.1039
   32MOL   C34713429   5.347   6.672   2.188 -0.2115  0.7335 -0.0008
   32MOL   C34813430   4.886   6.640   1.852  0.3861  0.2000  0.2034
   32MOL   H34913431   4.986   6.528   1.998 -0.3790 -2.6947 -0.2257
   32MOL   H35013432   5.298   6.643   1.904  0.4059 -0.3291  0.1928
   32MOL   H35113433   5.213   6.526   2.013  1.5905 -1.5058 -0.1348
   32MOL   H35213434   5.135   6.939   2.175 -1.4116 -1.4688 -0.3748
   32MOL   H35313435   5.281   7.009   2.366 -1.7109  0.3343  0.0789
   32MOL   H35413436   5.464   6.869   2.431 -0.6155 -1.5857  1.7688
   32MOL   H35513437   5.512   6.652   2.330  0.8506  0.4866 -0.9014
   32MOL   H35613438   5.373   6.583   2.132 -0.7823  1.3393 -1.2366
   32MOL   H35713439   4.868   6.645   1.744 -3.5101 -0.2242  0.7491
   32MOL   H35813440   4.933   6.736   1.873 -0.8581  0.7309  0.6000
   32MOL   C35913441   4.748   6.642   1.929 -0.1569  0.3487 -0.5077
   32MOL   O36013442   4.668   6.542   1.866 -0.2218 -0.3753  0.2228
   32MOL   C36113443   4.567   6.479   1.947  0.0938 -0.7009 -0.0368
   32MOL   O36213444   4.612   6.412   2.061 -0.4654 -0.0737  0.4934
   32MOL   C36313445   4.542   6.425   2.173  0.1569  0.5038 -0.6525
   32MOL   C36413446   4.404   6.413   2.178 -0.4389 -0.0372 -0.1102
   32MOL   C36513447   4.338   6.434   2.302  0.2505 -1.0331  0.7242
   32MOL   C36613448   4.416   6.457   2.420 -0.6279 -0.0754 -0.1597
   32MOL   C36713449   4.561   6.456   2.409  0.7589  0.4238  0.4579
   32MOL   C36813450   4.620   6.446   2.282 -0.0502  0.7926 -0.5348
   32MOL   C36913451   4.679   6.781   1.928  0.2580 -0.4527 -0.0448
   32MOL   H37013452   4.775   6.614   2.031  2.6541  0.5533 -1.1565
   32MOL   H37113453   4.516   6.400   1.892  0.6808 -1.4453  0.4784
   32MOL   H37213454   4.497   6.562   1.963 -1.0641 -1.5152 -0.7621
   32MOL   H37313455   4.349   6.395   2.087 -3.7383  1.1408  1.5514
   32MOL   H37413456   4.231   6.433   2.311 -0.0845  1.0614 -2.2621
   32MOL   H37513457   4.365   6.476   2.513 -1.2990  0.7962 -0.6877
   32MOL   H37613458   4.631   6.481   2.487  0.0159  1.3546  0.8297
   32MOL   H37713459   4.727   6.456   2.271  0.0748 -0.4214 -0.5245
   32MOL   H37813460   4.592   6.770   1.864  0.3139  0.4125 -0.2708
   32MOL   H37913461   4.737   6.856   1.874 -0.9926 -1.0722 -2.2581
   32MOL   C38013462   4.635   6.822   2.071  0.2746 -0.0367  0.4911
   32MOL   O38113463   4.546   6.932   2.080  0.5980 -0.3173 -0.1544
   32MOL   C38213464   4.411   6.913   2.067 -1.1348 -0.5586  0.6807
   32MOL   O38313465   4.373   6.817   1.966 -0.4870  0.0040 -0.0795
   32MOL   C38413466   4.245   6.771   1.973 -0.1333  0.0236 -0.2277
   32MOL   C38513467   4.222   6.644   1.911 -0.2146  1.0498  0.3949
   32MOL   C38613468   4.088   6.594   1.902  0.2690  0.5849 -0.5238
   32MOL   C38713469   3.981   6.652   1.967  0.0255 -0.0332  0.0352
   32MOL   C38813470   4.003   6.773   2.040  0.2139 -0.1340 -0.7831
   32MOL   C38913471   4.133   6.824   2.035  0.5257  0.0358  0.7122
   32MOL   C39013472   4.757   6.862   2.166 -0.4969  0.3486  0.4868
   32MOL   H39113473   4.579   6.739   2.112  0.2305 -0.9216 -1.3035
   32MOL   H39213474   4.385   6.877   2.166  0.7422 -0.1065  1.3641
   32MOL   H39313475   4.366   7.006   2.031  1.2548  0.0580 -0.8164
   32MOL   H39413476   4.302   6.598   1.855  0.4153  1.0927  1.2463
   32MOL   H39513477   4.076   6.505   1.843 -0.6078  0.3712 -0.0172
   32MOL   H39613478   3.882   6.613   1.952  0.1434  0.2326 -1.5750
   32MOL   H39713479   3.925   6.834   2.083  2.3497  0.2619  2.7220
   32MOL   H39813480   4.154   6.920   2.081 -0.1981  1.6124 -2.0919
   32MOL   H39913481   4.758   6.970   2.181  2.0661  0.2178  1.5491
   32MOL   H40013482   4.852   6.835   2.119 -0.2423  1.3750  0.3931
   32MOL   C40113483   4.744   6.781   2.297  0.1368 -0.4469 -0.4962
   32MOL   O40213484   4.866   6.801   2.374  0.3861  0.7098  0.1376
   32MOL   C40313485   4.946   6.695   2.372  0.1035  0.3625 -0.2225
   32MOL   O40413486   4.892   6.581   2.422 -0.0734  0.0617 -0.2484
   32MOL   C40513487   4.982   6.488   2.464 -1.0291 -0.4791  0.0588
   32MOL   C40613488   4.960   6.435   2.591  0.1009  0.1885 -0.7781
   32MOL   C40713489   5.047   6.341   2.648 -0.5715  0.0841  0.1232
   32MOL   C40813490   5.158   6.296   2.572 -0.1496  0.5568 -0.3787
   32MOL   C40913491   5.177   6.349   2.438 -0.4060 -0.5700  0.1474
   32MOL   C41013492   5.096   6.444   2.387  0.4064  0.3806 -0.4803
   32MOL   C41113493   4.629   6.830   2.382 -0.6760  0.0522  0.3853
   32MOL   H41213494   4.726   6.677   2.270 -1.2585 -0.3278 -0.0270
   32MOL   H41313495   5.035   6.728   2.426  0.0809  0.2692 -0.1272
   32MOL   H41413496   4.988   6.683   2.272  0.7575  0.5518  0.0248
   32MOL   H41513497   4.882   6.477   2.653  0.6981  0.0278  0.1029
   32MOL   H41613498   5.033   6.308   2.750 -0.2448  0.9671  0.4534
   32MOL   H41713499   5.229   6.227   2.614  1.1810  3.1125  1.7384
   32MOL   H41813500   5.257   6.319   2.371 -0.2330 -0.5796  0.3591
   32MOL   H41913501   5.110   6.488   2.289 -0.7163  0.2403 -0.7039
   32MOL   H42013502   4.635   6.938   2.386 -2.3369  0.1719  0.1944
   32MOL   H42113503   4.633   6.774   2.475 -1.0167  0.2357  0.5109
   32MOL   H42213504   4.535   6.791   2.341 -0.2298 -1.8166  1.1079
   33MOL     C113505   0.464   6.615   4.471  0.8828  0.2757  0.1904
   33MOL     O213506   0.352   6.614   4.560 -0.2154 -0.6802  0.5125
   33MOL     C313507   0.350   6.505   4.641 -0.2559  0.1415  0.2291
   33MOL     O413508   0.469   6.476   4.702 -0.7320  0.5979 -0.0157
   33MOL     C513509   0.488   6.349   4.753  0.1140 -0.0762 -0.2042
   33MOL     C613510   0.399   6.241   4.739  0.4690 -0.0493  0.1061
   33MOL     C713511   0.426   6.111   4.787  0.0168 -0.2504  0.6680
   33MOL     C813512   0.545   6.091   4.859  0.2680  0.3145 -0.9925
   33MOL     C913513   0.634   6.198   4.873  0.1851 -0.2859  0.4669
   33MOL    C1013514   0.612   6.324   4.818  0.0394  0.4105  0.6014
   33MOL    C1113515   0.446   6.510   4.354  0.1569  0.6353  0.1204
   33MOL    H1213516   0.465   6.718   4.434 -0.2850  0.3400  0.3264
   33MOL    H1313517   0.279   6.517   4.723  0.5353  0.7890  0.8223
   33MOL    H1413518   0.318   6.420   4.580  3.0431 -0.1517 -1.1733
   33MOL    H1513519   0.308   6.239   4.681  0.2148  1.1454  0.4594
   33MOL    H1613520   0.365   6.035   4.741 -0.0403  1.8168 -2.8616
   33MOL    H1713521   0.572   5.993   4.896  0.3195  1.8353  3.3765
   33MOL    H1813522   0.731   6.183   4.918  0.3789  2.2395  1.0030
   33MOL    H1913523   0.695   6.394   4.817  0.3198  0.0808  0.5522
   33MOL    H2013524   0.365   6.534   4.284  1.1002  2.3960 -0.4161
   33MOL    H2113525   0.415   6.411   4.384  1.2920 -1.1675 -4.2378
   33MOL    H2213526   0.554   6.593   4.529 -1.4168 -4.5136  2.2560
   33MOL    C2313527   0.571   6.487   4.274 -0.7682  0.1102  0.2156
   33MOL    O2413528   0.681   6.439   4.358  0.6064  0.1916  0.2038
   33MOL    C2513529   0.670   6.320   4.430  0.5669 -0.8465  0.6177
   33MOL    O2613530   0.655   6.209   4.346  0.1273 -0.4247 -0.1478
   33MOL    C2713531   0.666   6.086   4.408  0.5298 -0.5628  0.3650
   33MOL    C2813532   0.676   5.977   4.324 -0.2194 -0.1867 -0.0474
   33MOL    C2913533   0.677   5.842   4.370  0.4496 -0.4308 -0.0590
   33MOL    C3013534   0.678   5.822   4.516 -0.1672  0.3692  0.2884
   33MOL    C3113535   0.670   5.930   4.603  0.5844  0.4903 -0.0010
   33MOL    C3213536   0.656   6.060   4.543 -0.1722  0.3262  0.1123
   33MOL    C3313537   0.633   6.611   4.205 -0.4452  0.1251 -0.0808
   33MOL    H3413538   0.546   6.414   4.197 -0.7620 -0.6735  0.9497
   33MOL    H3513539   0.586   6.318   4.499  0.4979 -1.8933  0.5174
   33MOL    H3613540   0.755   6.293   4.492  0.9007  0.3875  0.6972
   33MOL    H3713541   0.675   5.996   4.218 -1.0952 -0.3685 -0.0728
   33MOL    H3813542   0.696   5.771   4.291  1.0816 -0.5027  0.1558
   33MOL    H3913543   0.701   5.731   4.569 -1.3530 -0.4785 -0.6228
   33MOL    H4013544   0.682   5.926   4.711  0.2098  0.8954  0.0610
   33MOL    H4113545   0.647   6.143   4.611 -0.2192 -1.0166  1.7565
   33MOL    H4213546   0.732   6.583   4.169 -0.4533  1.0793 -0.8704
   33MOL    H4313547   0.661   6.675   4.288  0.2540  1.7001 -1.5017
   33MOL    C4413548   0.556   6.680   4.096 -0.2062 -0.5873  0.0550
   33MOL    O4513549   0.440   6.743   4.161 -0.2457  0.8513  0.8890
   33MOL    C4613550   0.452   6.879   4.187  1.1850  0.3194 -0.4130
   33MOL    O4713551   0.550   6.897   4.286 -0.5026 -0.0333 -0.2589
   33MOL    C4813552   0.549   7.000   4.369 -0.2165  0.0579 -0.2084
   33MOL    C4913553   0.481   7.125   4.346  0.3760  0.6437  0.4705
   33MOL    C5013554   0.478   7.224   4.449  0.2071 -0.1357  0.2952
   33MOL    C5113555   0.536   7.194   4.573 -0.5581 -0.9018  0.2357
   33MOL    C5213556   0.588   7.070   4.601  0.1535 -0.0841  0.0839
   33MOL    C5313557   0.592   6.972   4.498 -0.1108 -0.5455  0.2255
   33MOL    C5413558   0.508   6.593   3.989 -0.4593  0.4149  0.7181
   33MOL    H5513559   0.618   6.755   4.048 -0.5623  0.0026  0.5049
   33MOL    H5613560   0.352   6.904   4.223  0.2528 -3.1634 -0.3552
   33MOL    H5713561   0.491   6.937   4.104  0.3547  0.9810 -0.3462
   33MOL    H5813562   0.450   7.146   4.245 -0.3472 -0.0115  0.5500
   33MOL    H5913563   0.433   7.320   4.426 -1.5311 -1.2545 -1.1667
   33MOL    H6013564   0.528   7.269   4.650  0.7523 -0.3340 -0.1612
   33MOL    H6113565   0.631   7.048   4.697 -1.2398 -1.9026  0.3292
   33MOL    H6213566   0.626   6.873   4.523 -0.7472 -0.5771  0.9890
   33MOL    H6313567   0.591   6.544   3.936  0.1244  2.0871  0.0381
   33MOL    H6413568   0.440   6.524   4.038  1.2638 -2.3286 -0.6680
   33MOL    C6513569   0.437   6.674   3.878 -0.2071 -0.1935 -0.2700
   33MOL    O6613570   0.547   6.720   3.798 -0.0879 -0.1658 -0.4274
   33MOL    C6713571   0.540   6.856   3.761  0.0322 -0.4306 -0.8591
   33MOL    O6813572   0.576   6.936   3.874 -0.2302  0.5022  0.0812
   33MOL    C6913573   0.654   7.044   3.854  0.1463 -0.0573 -0.3452
   33MOL    C7013574   0.731   7.091   3.964  0.4183 -0.1876  0.4784
   33MOL    C7113575   0.809   7.210   3.952  0.0576  0.0456 -0.4810
   33MOL    C7213576   0.794   7.293   3.830  0.1136  0.4077 -0.6040
   33MOL    C7313577   0.707   7.247   3.723  0.2673  0.9300  0.2841
   33MOL    C7413578   0.644   7.117   3.739 -0.3283  0.1384 -0.1874
   33MOL    C7513579   0.338   6.599   3.786  0.8814 -0.2424 -0.3191
   33MOL    H7613580   0.391   6.763   3.920 -2.6188 -2.2120  1.5603
   33MOL    H7713581   0.442   6.889   3.726 -0.4385 -1.6909 -0.7698
   33MOL    H7813582   0.607   6.864   3.675  0.4275  0.4522 -0.4748
   33MOL    H7913583   0.745   7.031   4.052 -0.9939 -2.5840 -0.8824
   33MOL    H8013584   0.880   7.241   4.027 -0.9357 -0.4737  0.6858
   33MOL    H8113585   0.860   7.377   3.815  0.2525  0.6626  1.3198
   33MOL    H8213586   0.697   7.321   3.645 -0.3120  0.0682 -0.4705
   33MOL    H8313587   0.571   7.085   3.667 -4.5000  2.3372  2.7941
   33MOL    H8413588   0.263   6.584   3.864  0.4652 -0.8492 -0.8274
   33MOL    H8513589   0.290   6.660   3.710  1.3208 -1.7810 -1.8661
   33MOL    C8613590   0.385   6.461   3.730 -0.4407 -0.6188  0.0286
   33MOL    O8713591   0.270   6.391   3.684 -0.0723 -0.1196  0.5441
   33MOL    C8813592   0.237   6.274   3.751  0.0320 -0.1590 -0.2006
   33MOL    O8913593   0.180   6.285   3.878  0.1446  0.3968 -0.2992
   33MOL    C9013594   0.051   6.342   3.888 -0.7713  0.4044  0.2720
   33MOL    C9113595   7.962   6.345   4.016  0.5303 -0.1478 -0.2390
   33MOL    C9213596   7.840   6.408   4.027 -0.0174 -0.1093 -0.5444
   33MOL    C9313597   7.766   6.458   3.918  0.1930  0.4316  1.2940
   33MOL    C9413598   7.823   6.444   3.793  0.3753 -0.4653 -0.0475
   33MOL    C9513599   7.950   6.385   3.774 -0.4203 -0.1279  0.4330
   33MOL    C9613600   0.477   6.479   3.609  0.0398  0.0508  0.0564
   33MOL    H9713601   0.434   6.414   3.816 -0.8393 -1.1308 -0.0185
   33MOL    H9813602   0.322   6.205   3.749 -2.9803 -4.0383 -1.8256
   33MOL    H9913603   0.158   6.226   3.694 -0.4095 -1.7533  1.6576
   33MOL   H10013604   0.033   6.307   4.105 -3.0398 -0.9630  1.3754
   33MOL   H10113605   7.800   6.417   4.127 -0.7056 -1.6517 -0.6618
   33MOL   H10213606   7.668   6.502   3.929 -0.4135 -0.6829  0.4000
   33MOL   H10313607   7.762   6.488   3.716  1.5667  1.5055  0.1024
   33MOL   H10413608   0.016   6.392   3.675  2.8194 -1.2955  1.6287
   33MOL   H10513609   0.411   6.525   3.535  1.5475  1.2428 -0.5556
   33MOL   H10613610   0.551   6.555   3.632 -0.4701  0.7659 -0.6367
   33MOL   C10713611   0.555   6.344   3.575  0.6423 -0.1028 -0.2259
   33MOL   O10813612   0.523   6.325   3.435  0.7485  0.2477 -0.4368
   33MOL   C10913613   0.404   6.262   3.408  0.1695  0.2035 -0.2246
   33MOL   O11013614   0.394   6.137   3.477 -0.0771 -0.4685  0.1612
   33MOL   C11113615   0.277   6.076   3.487 -0.7337  0.4843  0.1723
   33MOL   C11213616   0.264   5.968   3.578 -0.4459 -0.2114  0.8092
   33MOL   C11313617   0.146   5.901   3.603 -0.7561  0.2874 -0.1827
   33MOL   C11413618   0.035   5.940   3.524  0.2891  0.7676  0.0916
   33MOL   C11513619   0.049   6.042   3.430  0.4511  0.0711 -0.7918
   33MOL   C11613620   0.173   6.108   3.405 -0.0928  0.3452 -0.5760
   33MOL   C11713621   0.709   6.352   3.594 -0.3258 -0.1800 -0.6978
   33MOL   H11813622   0.518   6.259   3.632 -2.3749  0.4196 -1.3387
   33MOL   H11913623   0.393   6.232   3.304  0.0839  1.5895 -0.6288
   33MOL   H12013624   0.322   6.333   3.410  0.7851  0.9318 -0.5572
   33MOL   H12113625   0.353   5.948   3.636  0.2126  0.9461  0.2078
   33MOL   H12213626   0.137   5.822   3.677 -1.2070 -0.5166 -1.0939
   33MOL   H12313627   7.914   5.894   3.534  0.4703  0.1019 -1.1320
   33MOL   H12413628   7.934   6.074   3.381 -1.3103 -3.2176  0.1627
   33MOL   H12513629   0.166   6.178   3.323 -0.5820  0.5311 -0.3774
   33MOL   H12613630   0.729   6.392   3.693  0.5157  0.7007 -1.2079
   33MOL   H12713631   0.756   6.418   3.521  2.2956 -0.9500  0.2733
   33MOL   C12813632   0.782   6.210   3.597  0.1753 -0.3018 -0.0024
   33MOL   O12913633   0.896   6.222   3.682 -0.4487  0.0507  0.2422
   33MOL   C13013634   0.895   6.154   3.802  0.2584  0.2251 -0.0764
   33MOL   O13113635   0.794   6.194   3.891 -0.3726  0.1307  0.2291
   33MOL   C13213636   0.689   6.113   3.919  0.5401 -0.5082 -0.2541
   33MOL   C13313637   0.675   5.985   3.862  0.3575 -0.1775  0.4192
   33MOL   C13413638   0.560   5.909   3.895  0.8848 -0.7077  0.4685
   33MOL   C13513639   0.464   5.954   3.989  0.3812  0.2718  0.2653
   33MOL   C13613640   0.477   6.090   4.039 -0.1984  0.0470 -0.7875
   33MOL   C13713641   0.584   6.169   3.994  0.3258  0.2538  0.1682
   33MOL   C13813642   0.818   6.159   3.462  0.0781  0.2815 -0.4021
   33MOL   H13913643   0.707   6.143   3.638  1.4976 -0.2047  2.6616
   33MOL   H14013644   0.993   6.184   3.838  0.0223 -0.2834  1.0272
   33MOL   H14113645   0.911   6.046   3.804 -3.8940 -0.4802 -0.3859
   33MOL   H14213646   0.750   5.934   3.804 -0.7784  1.4207 -2.5537
   33MOL   H14313647   0.552   5.808   3.857 -0.5555 -1.5304  2.8560
   33MOL   H14413648   0.389   5.887   4.029  0.2824  0.7931  0.9595
   33MOL   H14513649   0.405   6.125   4.111  0.6544  0.9370 -0.3578
   33MOL   H14613650   0.600   6.263   4.043 -0.7989  1.6400 -2.0231
   33MOL   H14713651   0.729   6.166   3.399  0.4434  1.7062 -0.7745
   33MOL   H14813652   0.876   6.239   3.417  0.2524  0.6019  0.3837
   33MOL   C14913653   0.895   6.027   3.459  0.3759  0.3898 -0.4856
   33MOL   O15013654   0.801   5.931   3.510  0.6234  0.1320 -0.0907
   33MOL   C15113655   0.859   5.817   3.562  0.4089 -0.8406  0.0987
   33MOL   O15213656   0.781   5.744   3.648 -0.0963  0.3136 -0.4650
   33MOL   C15313657   0.817   5.619   3.694 -0.9036  0.2052 -1.1357
   33MOL   C15413658   0.720   5.532   3.743  0.1776 -0.1952 -0.4853
   33MOL   C15513659   0.756   5.403   3.793  0.0707 -0.3987  0.4582
   33MOL   C15613660   0.889   5.357   3.785  0.3670 -0.4874 -0.2384
   33MOL   C15713661   0.989   5.446   3.735  0.7220 -0.0004 -0.2956
   33MOL   C15813662   0.960   5.574   3.681  0.8101 -0.0707 -0.1295
   33MOL   C15913663   0.943   5.984   3.316  0.3148  0.9286  0.4589
   33MOL   H16013664   0.981   6.038   3.525  0.3907  0.4654 -0.5180
   33MOL   H16113665   0.896   5.760   3.477 -0.3360  1.1539 -1.5949
   33MOL   H16213666   0.945   5.844   3.623 -1.0176  0.4730  1.5650
   33MOL   H16313667   0.618   5.569   3.747 -0.0211 -0.6768 -0.9948
   33MOL   H16413668   0.672   5.349   3.837  0.2582 -1.0468  0.0269
   33MOL   H16513669   0.903   5.253   3.810 -0.8616 -0.8665 -1.0810
   33MOL   H16613670   1.093   5.416   3.741  0.4668 -0.5693  1.7083
   33MOL   H16713671   1.032   5.642   3.640 -0.8057  2.0473  0.4633
   33MOL   H16813672   0.874   6.015   3.237  0.0424 -0.3150  0.2004
   33MOL   H16913673   0.967   5.879   3.304  0.4680  0.7815  1.9117
   33MOL   C17013674   1.066   6.064   3.273  0.0409  0.3215  0.2233
   33MOL   O17113675   1.178   6.016   3.358  0.3560 -0.5847 -0.1330
   33MOL   C17213676   1.258   6.114   3.403  0.3684 -0.3578 -0.1939
   33MOL   O17313677   1.186   6.203   3.491  0.3466 -0.2753  0.2284
   33MOL   C17413678   1.246   6.320   3.524  0.9222 -0.3788  0.3494
   33MOL   C17513679   1.380   6.348   3.490  0.7402 -0.4614  0.5083
   33MOL   C17613680   1.435   6.474   3.521 -0.5541 -0.5008 -0.0581
   33MOL   C17713681   1.356   6.567   3.588 -0.3040  0.1631  0.2619
   33MOL   C17813682   1.224   6.540   3.627  0.2193 -0.1418  0.6608
   33MOL   C17913683   1.167   6.416   3.591  0.4926 -0.3130  0.1465
   33MOL   C18013684   1.090   6.080   3.124  0.3348 -0.3569 -0.0726
   33MOL   H18113685   1.055   6.168   3.304  1.5382  0.3566  0.6873
   33MOL   H18213686   1.291   6.168   3.314  0.2242 -1.4141 -0.9005
   33MOL   H18313687   1.347   6.070   3.449 -0.0586 -0.6810  0.3289
   33MOL   H18413688   1.440   6.275   3.438  0.1761 -1.0274  0.6466
   33MOL   H18513689   1.542   6.488   3.512 -0.7409 -0.4905 -2.5222
   33MOL   H18613690   1.393   6.665   3.616 -1.5645  0.5692  0.5485
   33MOL   H18713691   1.166   6.624   3.662 -0.9600 -1.0826  0.9890
   33MOL   H18813692   1.066   6.388   3.615  1.2286 -1.9101  1.4811
   33MOL   H18913693   1.183   6.136   3.112 -0.5621  1.7303  2.3642
   33MOL   H19013694   1.111   5.979   3.089 -4.4977 -0.9792 -1.4845
   33MOL   C19113695   0.985   6.160   3.040 -0.6277  0.1332 -0.0183
   33MOL   O19213696   1.003   6.142   2.898 -0.3084  0.1628 -0.3029
   33MOL   C19313697   0.940   6.029   2.854  0.5142 -0.5483  0.5224
   33MOL   O19413698   0.805   6.034   2.850  0.8568 -0.2670  0.0245
   33MOL   C19513699   0.742   6.092   2.737 -0.4867 -0.1373 -0.8741
   33MOL   C19613700   0.806   6.152   2.627 -0.5681  0.3561 -0.0287
   33MOL   C19713701   0.738   6.200   2.524  0.5476 -1.2115 -0.0952
   33MOL   C19813702   0.596   6.199   2.531 -0.2380 -0.4291  0.3360
   33MOL   C19913703   0.527   6.140   2.640  0.7052  0.4530  0.1696
   33MOL   C20013704   0.601   6.092   2.746  0.0490  0.1613 -0.6645
   33MOL   C20113705   1.012   6.317   3.052 -0.0856  1.1719 -0.5059
   33MOL   H20213706   0.880   6.146   3.063 -1.4520  1.1158 -2.9892
   33MOL   H20313707   0.962   5.943   2.918  0.6072 -0.6888  0.3019
   33MOL   H20413708   0.985   6.013   2.756  0.9949  1.7227  0.3549
   33MOL   H20513709   0.913   6.149   2.617 -0.4299  0.9261  1.2437
   33MOL   H20613710   0.780   6.240   2.433  0.0594 -0.7705 -0.1289
   33MOL   H20713711   0.548   6.229   2.439  0.7398  0.7802  0.2043
   33MOL   H20813712   0.420   6.147   2.650  0.6503 -2.3248  2.0486
   33MOL   H20913713   0.573   6.038   2.836 -0.5144  0.1115 -0.8701
   33MOL   H21013714   1.061   6.328   3.149 -1.8715 -1.1588  0.7119
   33MOL   H21113715   1.088   6.356   2.984 -0.6830  4.3799  0.5965
   33MOL   C21213716   0.880   6.410   3.053 -0.3190 -0.7372  0.2065
   33MOL   O21313717   0.910   6.541   3.079  0.4725  0.0773 -0.0139
   33MOL   C21413718   0.916   6.571   3.210 -0.1499  0.0012  0.5824
   33MOL   O21513719   0.961   6.700   3.221  0.6190 -0.4190 -0.4103
   33MOL   C21613720   0.924   6.754   3.343  0.0884  0.3879  0.6632
   33MOL   C21713721   0.941   6.891   3.356  0.1950  0.1397  0.2750
   33MOL   C21813722   0.910   6.966   3.475  0.0172  0.1273  0.4786
   33MOL   C21913723   0.872   6.889   3.586  0.5648 -0.0323  0.2748
   33MOL   C22013724   0.869   6.750   3.584 -0.0596 -0.2117  0.1560
   33MOL   C22113725   0.888   6.684   3.463 -0.4032 -0.4353 -0.2325
   33MOL   C22213726   0.804   6.417   2.918  0.4497  0.4873  0.2043
   33MOL   H22313727   0.807   6.373   3.126 -2.0027 -2.0335 -2.0689
   33MOL   H22413728   0.973   6.500   3.271 -3.0104 -1.0724  2.1034
   33MOL   H22513729   0.812   6.570   3.244 -0.2204  1.5059  0.4590
   33MOL   H22613730   0.983   6.935   3.266  2.1002 -0.3756  0.8844
   33MOL   H22713731   0.935   7.071   3.479  2.3034 -0.4252  2.1531
   33MOL   H22813732   0.855   6.946   3.676 -0.6250 -0.2791  0.2053
   33MOL   H22913733   0.836   6.698   3.673  0.2278 -0.7848 -0.0713
   33MOL   H23013734   0.863   6.579   3.453 -2.4706 -0.0671  0.7180
   33MOL   H23113735   0.861   6.494   2.867  0.2961 -0.0450 -0.7784
   33MOL   H23213736   0.821   6.318   2.877 -2.8448 -0.9914  2.1454
   33MOL   C23313737   0.659   6.460   2.916  0.0310 -0.3305  0.3910
   33MOL   O23413738   0.624   6.475   2.776  0.2860 -0.4701  0.0849
   33MOL   C23513739   0.659   6.595   2.713 -0.0539  0.1032  0.1215
   33MOL   O23613740   0.561   6.696   2.745 -0.0967  0.1489 -0.2732
   33MOL   C23713741   0.593   6.785   2.841 -0.0250  0.5042 -0.5554
   33MOL   C23813742   0.720   6.786   2.909 -0.0634  0.0319 -0.1138
   33MOL   C23913743   0.749   6.877   3.014 -0.3669  0.5557  0.1452
   33MOL   C24013744   0.648   6.965   3.047 -0.4781 -0.0144 -0.3850
   33MOL   C24113745   0.521   6.962   2.983  0.2152 -0.4008 -0.0522
   33MOL   C24213746   0.495   6.876   2.873 -0.1643 -0.0123 -0.1960
   33MOL   C24313747   0.563   6.361   2.991 -0.4222 -0.5952 -0.3996
   33MOL   H24413748   0.645   6.553   2.971  0.2076  0.8890 -1.5682
   33MOL   H24513749   0.636   6.574   2.609 -1.3618 -2.4414  0.8842
   33MOL   H24613750   0.765   6.621   2.710 -0.2356  0.7483 -1.1710
   33MOL   H24713751   0.797   6.716   2.881 -0.1285  0.0563 -0.3529
   33MOL   H24813752   0.852   6.878   3.046  0.6167  1.3261 -2.8863
   33MOL   H24913753   0.673   7.034   3.125 -0.3306  0.5564 -0.9371
   33MOL   H25013754   0.450   7.040   3.008  0.2773  0.1477 -1.5821
   33MOL   H25113755   0.398   6.888   2.827  0.1702  0.0239 -0.9044
   33MOL   H25213756   0.584   6.272   2.932  1.3455  0.0638 -0.7863
   33MOL   H25313757   0.602   6.344   3.091 -0.2335  1.4341 -0.1087
   33MOL   C25413758   0.413   6.397   2.994  0.3572  0.6648 -0.0764
   33MOL   O25513759   0.391   6.535   3.025 -0.0645 -0.0828 -0.1474
   33MOL   C25613760   0.407   6.567   3.163 -0.6038  0.0607  0.0662
   33MOL   O25713761   0.309   6.518   3.247 -0.0633  0.1592 -0.2258
   33MOL   C25813762   0.183   6.570   3.256 -0.3585 -0.3771 -0.9506
   33MOL   C25913763   0.139   6.663   3.163 -0.0777 -0.3231 -0.7233
   33MOL   C26013764   0.007   6.715   3.180  0.6893  0.1570  0.3113
   33MOL   C26113765   7.901   6.682   3.288  0.5174  0.3299 -0.1543
   33MOL   C26213766   7.948   6.593   3.385  0.4545 -0.0162 -0.0650
   33MOL   C26313767   0.102   6.541   3.369  0.1431 -0.1043 -0.3015
   33MOL   C26413768   0.353   6.379   2.852  0.6730 -0.0119  0.4292
   33MOL   H26513769   0.365   6.334   3.068  0.0529 -0.1763 -0.9816
   33MOL   H26613770   0.413   6.676   3.174 -2.1345  0.1284  0.2428
   33MOL   H26713771   0.502   6.523   3.193 -0.5980  1.2164  1.8151
   33MOL   H26813772   0.206   6.691   3.083 -0.3179 -1.5565 -1.3646
   33MOL   H26913773   7.954   6.787   3.104 -1.0451 -0.4574  0.3522
   33MOL   H27013774   7.797   6.710   3.279  0.4042 -0.7609 -2.7134
   33MOL   H27113775   7.884   6.569   3.468 -0.3931 -0.1417 -0.7516
   33MOL   H27213776   0.134   6.469   3.443  1.9037  2.1527  1.2234
   33MOL   H27313777   0.409   6.426   2.771  0.9385 -0.6703  0.2294
   33MOL   H27413778   0.359   6.275   2.821  0.6901 -0.0685  0.6242
   33MOL   C27513779   0.208   6.432   2.835  0.0100 -0.3533 -0.3085
   33MOL   O27613780   0.187   6.448   2.696 -0.3013 -0.1976  0.3000
   33MOL   C27713781   0.245   6.559   2.633  0.1740 -0.0648 -0.4236
   33MOL   O27813782   0.189   6.589   2.513  0.5253 -0.4464 -0.3529
   33MOL   C27913783   0.053   6.631   2.513 -0.3235 -0.3278 -0.6476
   33MOL   C28013784   7.975   6.633   2.385 -0.1444 -0.7467  0.6041
   33MOL   C28113785   7.844   6.685   2.366  0.0176 -0.1886  0.2205
   33MOL   C28213786   7.773   6.734   2.475  0.7700  0.0575 -0.4372
   33MOL   C28313787   7.821   6.720   2.606  0.5884  0.4274  0.4260
   33MOL   C28413788   7.948   6.668   2.623  0.0983  0.6800 -0.2471
   33MOL   C28513789   0.097   6.349   2.901 -0.8786 -0.0793  0.2072
   33MOL   H28613790   0.204   6.530   2.881  2.4071 -0.5588  0.3998
   33MOL   H28713791   0.345   6.528   2.604 -0.1341 -1.5595  0.0974
   33MOL   H28813792   0.255   6.649   2.694  3.7381  0.2222 -1.3261
   33MOL   H28913793   0.061   6.599   2.303 -0.9015  1.5640 -0.9732
   33MOL   H29013794   7.803   6.703   2.268  0.1522  2.0963  0.5620
   33MOL   H29113795   7.670   6.764   2.458  0.5094 -0.9039 -0.5709
   33MOL   H29213796   7.763   6.733   2.696  2.1460  0.4888  1.4528
   33MOL   H29313797   0.005   6.640   2.722 -0.9899 -0.8927 -0.3070
   33MOL   H29413798   0.008   6.375   2.844  0.1066  2.1626 -0.3675
   33MOL   H29513799   0.098   6.377   3.006  2.3298  2.2217 -0.3658
   33MOL   C29613800   0.103   6.193   2.892 -0.0897 -0.0873  1.1167
   33MOL   O29713801   7.952   6.151   2.941 -0.1594  0.1010 -0.2414
   33MOL   C29813802   7.958   6.118   3.074  0.3649  0.4359  0.7562
   33MOL   O29913803   7.937   6.233   3.150  0.4390 -0.3225  0.5438
   33MOL   C30013804   7.812   6.283   3.164 -0.2631  0.0056 -0.0056
   33MOL   C30113805   7.722   6.279   3.059  0.0929  1.0076 -0.8650
   33MOL   C30213806   7.587   6.318   3.077  0.2715  0.0263  0.0428
   33MOL   C30313807   7.553   6.363   3.206  0.6986 -0.4651  0.0674
   33MOL   C30413808   7.645   6.396   3.306  0.4469  0.0313  0.3704
   33MOL   C30513809   7.775   6.344   3.284  0.4453  0.6816 -0.2626
   33MOL   C30613810   0.108   6.137   2.746  0.1916 -0.5268 -0.6538
   33MOL   H30713811   0.185   6.145   2.946  0.7065 -1.4705 -1.2504
   33MOL   H30813812   0.074   6.068   3.102 -0.3264 -0.8167  0.8123
   33MOL   H30913813   7.874   6.050   3.084  2.6125 -2.3328  1.2048
   33MOL   H31013814   7.760   6.232   2.969 -1.9567 -1.1292 -0.6759
   33MOL   H31113815   7.504   6.297   3.010 -0.0537  1.1876  0.0791
   33MOL   H31213816   7.448   6.374   3.228  0.4047 -1.2855 -0.8931
   33MOL   H31313817   7.612   6.438   3.400 -1.2390  0.5221 -0.4092
   33MOL   H31413818   7.846   6.331   3.364  0.6259 -0.1882 -0.5648
   33MOL   H31513819   0.197   6.182   2.701 -0.2724  0.1088 -0.9455
   33MOL   H31613820   0.024   6.183   2.693  0.4805  0.1420 -0.5438
   33MOL   C31713821   0.115   5.987   2.751 -0.3244  0.4083 -0.0977
   33MOL   O31813822   0.252   5.951   2.725  0.1586  0.2640 -0.4134
   33MOL   C31913823   0.302   5.870   2.818 -0.3884 -0.2426  0.2625
   33MOL   O32013824   0.334   5.948   2.933 -0.2281  0.1032 -0.1814
   33MOL   C32113825   0.422   5.897   3.027 -1.5686 -0.2479  0.1652
   33MOL   C32213826   0.449   5.980   3.138  0.2635  0.3736 -0.2202
   33MOL   C32313827   0.538   5.941   3.241  0.0899 -0.1563 -0.2042
   33MOL   C32413828   0.603   5.816   3.222  0.4040 -0.2965  0.0176
   33MOL   C32513829   0.570   5.729   3.117  0.6000 -0.4057  0.1195
   33MOL   C32613830   0.476   5.769   3.021  0.2073 -0.3510 -0.3851
   33MOL   C32713831   0.030   5.926   2.638  0.5024  0.6620 -0.6377
   33MOL   H32813832   0.074   5.949   2.845 -0.4066  0.4722 -0.1075
   33MOL   H32913833   0.392   5.832   2.771 -1.2719 -0.4112 -1.3188
   33MOL   H33013834   0.247   5.780   2.845  0.1766 -0.3686  1.0263
   33MOL   H33113835   0.395   6.073   3.148  1.9272  1.5294 -1.9312
   33MOL   H33213836   0.564   6.002   3.326  0.3519 -0.3075 -0.1770
   33MOL   H33313837   0.658   5.775   3.305 -0.6984 -0.4940  0.6608
   33MOL   H33413838   0.622   5.637   3.094 -1.1666 -1.7653  1.4599
   33MOL   H33513839   0.461   5.705   2.935 -0.5778 -0.5811 -0.0886
   33MOL   H33613840   7.901   5.959   2.632 -0.1685 -1.3146 -0.1023
   33MOL   H33713841   0.070   5.964   2.544 -0.7939  0.3294 -1.3399
   33MOL   C33813842   0.025   5.770   2.635  0.2151 -0.2724  0.5143
   33MOL   O33913843   7.871   5.748   2.563  0.9453  0.5966 -0.4073
   33MOL   C34013844   7.768   5.711   2.659 -0.4610 -0.2731  0.3509
   33MOL   O34113845   7.765   5.791   2.777 -0.1030  0.2087  0.6668
   33MOL   C34213846   7.641   5.815   2.826 -0.0340  0.4770  0.1464
   33MOL   C34313847   7.601   5.941   2.867  0.6089 -0.0038 -0.2826
   33MOL   C34413848   7.474   5.965   2.909 -0.1453 -0.1785  0.2003
   33MOL   C34513849   7.379   5.862   2.924  0.6455  0.0665  0.1859
   33MOL   C34613850   7.417   5.731   2.883 -0.4087  0.1982  0.7659
   33MOL   C34713851   7.549   5.708   2.834  0.4994 -0.0245  0.6286
   33MOL   C34813852   0.132   5.699   2.545 -0.3809 -0.0614  0.7491
   33MOL   H34913853   0.034   5.725   2.733  0.2680 -0.3056  0.4943
   33MOL   H35013854   7.766   5.602   2.662 -1.0777 -0.2504  0.8134
   33MOL   H35113855   7.686   5.752   2.601  0.1525  1.0308  0.3993
   33MOL   H35213856   7.673   6.021   2.860  0.6762  0.0434  0.8370
   33MOL   H35313857   7.448   6.066   2.937  1.0468  0.6085 -1.4492
   33MOL   H35413858   7.287   5.895   2.969  0.8183  1.8606 -0.7398
   33MOL   H35513859   7.355   5.644   2.900  0.2468 -0.2695  0.7857
   33MOL   H35613860   7.583   5.610   2.804  2.0916  0.6382  0.1824
   33MOL   H35713861   0.233   5.741   2.553 -0.2254 -0.1781 -0.4801
   33MOL   H35813862   0.097   5.700   2.442 -0.7926  0.8886  0.8929
   33MOL   C35913863   0.153   5.554   2.582  0.3873  0.3379  0.4016
   33MOL   O36013864   0.226   5.542   2.710 -0.3011  0.0507  0.2344
   33MOL   C36113865   0.199   5.429   2.799  0.3233 -0.1174 -0.0750
   33MOL   O36213866   0.062   5.433   2.844  0.2313  0.0758 -0.2475
   33MOL   C36313867   0.032   5.526   2.940  0.2666 -0.2248  0.7277
   33MOL   C36413868   7.873   5.545   2.979  0.2627 -0.2535  0.2654
   33MOL   C36513869   7.852   5.642   3.080  0.4485  0.3256  0.3411
   33MOL   C36613870   7.945   5.726   3.145 -0.2668 -0.1002  0.6773
   33MOL   C36713871   0.103   5.703   3.105  0.6350 -0.4563 -0.2587
   33MOL   C36813872   0.132   5.601   3.011  0.0956 -0.1240  0.6017
   33MOL   C36913873   0.236   5.481   2.466  0.3353 -0.4646 -0.3301
   33MOL   H37013874   0.052   5.514   2.587  0.9176 -0.8288  2.9032
   33MOL   H37113875   0.257   5.410   2.889  1.4154  0.2740 -0.6808
   33MOL   H37213876   0.210   5.334   2.748  0.5741 -0.2294  0.1911
   33MOL   H37313877   7.787   5.492   2.939  0.5630 -0.5880  0.0537
   33MOL   H37413878   7.749   5.645   3.115  0.2012 -1.1804 -0.2525
   33MOL   H37513879   7.902   5.797   3.214 -0.4153  0.5982 -0.1354
   33MOL   H37613880   0.182   5.773   3.130 -0.8206  0.8189  0.8660
   33MOL   H37713881   0.235   5.586   2.983 -0.4775 -1.7918 -0.7181
   33MOL   H37813882   0.297   5.401   2.508 -0.3942  0.6458  3.0491
   33MOL   H37913883   0.305   5.550   2.417  1.5834 -0.1820  1.7332
   33MOL   C38013884   0.151   5.422   2.351 -0.5709 -0.4641 -0.2222
   33MOL   O38113885   0.138   5.287   2.376 -0.1426  0.3210  0.8064
   33MOL   C38213886   0.009   5.226   2.356 -0.0801 -0.9945 -0.0267
   33MOL   O38313887   7.895   5.213   2.463  0.0964 -0.6609  0.1927
   33MOL   C38413888   7.938   5.152   2.573 -0.0595  0.0137 -0.3637
   33MOL   C38513889   0.090   5.098   2.589  0.4398 -0.8732  0.3947
   33MOL   C38613890   0.133   5.039   2.706 -0.7644 -0.5129  0.4252
   33MOL   C38713891   0.043   5.013   2.809  0.1602 -0.4930 -0.5705
   33MOL   C38813892   7.890   5.066   2.793 -0.2953 -0.5139 -0.5405
   33MOL   C38913893   7.852   5.140   2.682  0.5441 -0.4690 -0.5080
   33MOL   C39013894   0.206   5.460   2.219  0.0347 -0.0431 -0.8657
   33MOL   H39113895   0.051   5.466   2.347 -0.3196  0.2499  0.8033
   33MOL   H39213896   7.929   5.288   2.287 -0.7889 -0.5022  0.9764
   33MOL   H39313897   0.030   5.128   2.312  0.0810  0.1337 -2.5351
   33MOL   H39413898   0.164   5.102   2.511 -0.4240  0.8341 -0.3525
   33MOL   H39513899   0.227   4.987   2.705 -0.4106  0.0713 -2.0765
   33MOL   H39613900   0.069   4.963   2.901 -0.2408  1.7191  0.7779
   33MOL   H39713901   7.816   5.054   2.871  0.7515 -1.6889  0.2944
   33MOL   H39813902   7.750   5.176   2.673  0.6504 -0.1249 -0.3677
   33MOL   H39913903   0.312   5.439   2.225 -0.1694 -0.5647  1.1775
   33MOL   H40013904   0.190   5.566   2.200  0.1124  0.0089 -0.6347
   33MOL   C40113905   0.155   5.380   2.099 -0.1945 -0.0528 -0.3547
   33MOL   O40213906   0.017   5.414   2.084 -0.0795 -0.2974  0.3635
   33MOL   C40313907   7.908   5.328   2.008  0.1293  0.0970 -0.8274
   33MOL   O40413908   7.887   5.210   2.086  0.0251  0.2997  0.6644
   33MOL   C40513909   7.765   5.143   2.082 -0.0889 -0.6342  0.5070
   33MOL   C40613910   7.729   5.063   2.191 -0.8203 -0.6411  0.3300
   33MOL   C40713911   7.614   4.978   2.186 -1.0778 -0.3013  0.3074
   33MOL   C40813912   7.533   4.977   2.074  0.4746  1.1108 -0.3476
   33MOL   C40913913   7.564   5.063   1.965  0.2630  0.2192  0.0358
   33MOL   C41013914   7.675   5.147   1.973 -0.0715 -0.0243 -0.4675
   33MOL   C41113915   0.223   5.414   1.970  0.2415  0.3615 -0.1907
   33MOL   H41213916   0.164   5.273   2.118  0.7369  0.3754  1.8085
   33MOL   H41313917   7.935   5.313   1.903 -1.9902  1.8903 -1.6509
   33MOL   H41413918   7.812   5.379   2.009 -0.0014 -0.1420  0.7361
   33MOL   H41513919   7.802   5.048   2.269  0.0711 -0.8334 -0.5383
   33MOL   H41613920   7.600   4.911   2.269  1.9485 -1.6884 -0.2421
   33MOL   H41713921   7.447   4.912   2.073  1.6015 -0.4202 -0.2980
   33MOL   H41813922   7.506   5.056   1.874  1.0324  1.4626 -0.5536
   33MOL   H41913923   7.705   5.208   1.889  1.4652 -0.0939  0.0294
   33MOL   H42013924   0.230   5.523   1.973 -0.8982  0.4154  0.4965
   33MOL   H42113925   0.175   5.384   1.877  1.2154 -1.3662 -0.1490
   33MOL   H42213926   0.326   5.377   1.967 -0.7262 -2.6069  2.1304
   34MOL     C113927   7.073   2.146   7.949  0.2625 -0.5810  0.4059
   34MOL     O213928   7.103   2.239   0.073 -0.4908 -0.6257  0.2694
   34MOL     C313929   7.064   2.379   0.063  0.0658 -0.2702  0.7015
   34MOL     O413930   7.103   2.438   7.915  0.2453 -0.4993 -0.0941
   34MOL     C513931   7.235   2.446   7.885  0.6609  0.4562  0.2743
   34MOL     C613932   7.343   2.404   7.963 -0.0337 -1.1737 -0.2096
   34MOL     C713933   7.474   2.413   7.918 -0.3524  0.2892 -0.6318
   34MOL     C813934   7.503   2.467   7.793  0.6712 -0.1050  0.3419
   34MOL     C913935   7.398   2.507   7.712  0.2003  0.3947 -0.1820
   34MOL    C1013936   7.264   2.498   7.760  0.2235 -0.4744 -0.5980
   34MOL    C1113937   7.201   2.078   7.897 -0.0311 -0.5027 -0.2101
   34MOL    H1213938   7.013   2.069   0.023  1.8918 -0.4313  2.6986
   34MOL    H1313939   6.958   2.377   0.090 -0.2737 -0.0539 -0.5935
   34MOL    H1413940   7.099   2.437   0.149  3.0850 -1.5664  0.4133
   34MOL    H1513941   7.333   2.361   0.086  3.1605 -0.2098  0.5922
   34MOL    H1613942   7.552   2.358   7.969  0.2824 -0.7140 -2.6336
   34MOL    H1713943   7.598   2.459   7.742  1.6796 -0.4618  2.2217
   34MOL    H1813944   7.410   2.540   7.610  1.5666  1.1363  0.2068
   34MOL    H1913945   7.184   2.528   7.694  1.5937  1.5117 -1.4270
   34MOL    H2013946   7.254   2.033   0.006  2.2005  3.0536  0.3849
   34MOL    H2113947   7.267   2.157   7.860  0.8770 -1.1348  0.0232
   34MOL    H2213948   7.024   2.198   7.867 -0.5750 -2.2723 -0.1879
   34MOL    C2313949   7.181   1.980   7.778  0.4016 -0.1123 -0.6504
   34MOL    O2413950   7.089   1.895   7.839  0.2777  0.4890 -0.5030
   34MOL    C2513951   6.981   1.858   7.762  0.4638 -0.0414 -0.6636
   34MOL    O2613952   7.027   1.800   7.648 -0.2405  0.0269  0.7932
   34MOL    C2713953   7.064   1.673   7.660 -0.1914  0.3402  0.0787
   34MOL    C2813954   7.071   1.596   7.539  0.4708  0.1425 -0.0063
   34MOL    C2913955   7.109   1.459   7.545 -0.5550 -0.6739 -0.4109
   34MOL    C3013956   7.138   1.399   7.671 -0.4510  0.6462 -0.1986
   34MOL    C3113957   7.133   1.473   7.790 -0.3641 -0.2920 -0.3165
   34MOL    C3213958   7.103   1.611   7.783 -0.8421 -0.8827  0.8705
   34MOL    C3313959   7.310   1.898   7.755  0.8164 -0.6036 -0.0839
   34MOL    H3413960   7.140   2.030   7.691  1.8401 -0.9367 -1.8251
   34MOL    H3513961   6.919   1.937   7.719 -0.2160 -1.0420 -1.5491
   34MOL    H3613962   6.908   1.791   7.808 -0.0366 -0.9136 -2.6576
   34MOL    H3713963   7.050   1.634   7.441  3.3153  3.4037  0.5444
   34MOL    H3813964   7.111   1.403   7.453  2.2040 -2.0817  0.4772
   34MOL    H3913965   7.174   1.298   7.677  1.2120  1.2458  0.2605
   34MOL    H4013966   7.149   1.413   7.879 -2.7310 -0.4729  0.0194
   34MOL    H4113967   7.101   1.666   7.876  0.9753  0.4909  0.1361
   34MOL    H4213968   7.294   1.823   7.678  1.7645 -0.7401 -0.1507
   34MOL    H4313969   7.320   1.837   7.844  0.4456 -0.7876 -0.1647
   34MOL    C4413970   7.445   1.972   7.739 -0.5369 -0.2204 -0.8122
   34MOL    O4513971   7.453   2.017   7.611 -0.4387 -0.1352 -0.2325
   34MOL    C4613972   7.402   2.142   7.593  0.3402  0.0051 -0.9236
   34MOL    O4713973   7.469   2.208   7.488  0.1753 -0.9172  0.5382
   34MOL    C4813974   7.593   2.263   7.502 -0.6034 -0.8859  0.4930
   34MOL    C4913975   7.671   2.254   7.621  0.0238  0.1898 -0.5449
   34MOL    C5013976   7.801   2.305   7.629 -0.0399 -0.8731 -0.7842
   34MOL    C5113977   7.865   2.368   7.519 -0.0277 -0.4069  0.9542
   34MOL    C5213978   7.781   2.381   7.401 -0.1164  0.0843  0.0469
   34MOL    C5313979   7.646   2.345   7.399  0.5767 -0.1691  0.3574
   34MOL    C5413980   7.565   1.878   7.780  0.4996 -0.3999  0.4931
   34MOL    H5513981   7.447   2.051   7.815  0.0669 -1.2593  0.2586
   34MOL    H5613982   7.414   2.204   7.682 -0.7719 -2.5643  1.0674
   34MOL    H5713983   7.300   2.123   7.559 -0.1265 -1.3718  1.1589
   34MOL    H5813984   7.638   2.209   7.713 -1.2472  0.0987 -1.0400
   34MOL    H5913985   7.850   2.294   7.725 -0.1241 -0.7718 -0.7283
   34MOL    H6013986   7.962   2.415   7.529  0.0608 -0.7532  1.7331
   34MOL    H6113987   7.827   2.433   7.318  2.0393 -0.4638  0.8586
   34MOL    H6213988   7.586   2.362   7.311  1.2644 -0.1119 -0.1002
   34MOL    H6313989   7.532   1.775   7.768 -0.2246 -0.0593 -0.4958
   34MOL    H6413990   7.650   1.890   7.713  0.3083  1.1779  0.5129
   34MOL    C6513991   7.619   1.892   7.929  0.2772  0.6441  0.4279
   34MOL    O6613992   7.722   1.801   7.948  0.3053 -0.1619  0.3735
   34MOL    C6713993   7.688   1.686   0.028  0.2285  0.6535 -0.3328
   34MOL    O6813994   7.624   1.602   7.909 -0.1246  0.4725  0.6460
   34MOL    C6913995   7.575   1.481   7.949  0.1960  0.3417  0.0786
   34MOL    C7013996   7.628   1.401   0.078  0.3891  0.9029 -0.3841
   34MOL    C7113997   7.573   1.278   0.115  0.0059  1.2287 -0.1580
   34MOL    C7213998   7.463   1.228   0.033  0.5992  0.3723  0.3601
   34MOL    C7313999   7.412   1.298   7.904 -0.3694 -0.2437 -0.2245
   34MOL    C7414000   7.471   1.421   7.880  0.1689 -0.0146  0.1039
   34MOL    C7514001   7.695   2.023   7.947 -0.0329  0.0317 -0.0002
   34MOL    H7614002   7.535   1.884   0.023 -0.2681 -1.5427 -0.4429
   34MOL    H7714003   7.625   1.697   0.116  2.3196  0.1030  1.2518
   34MOL    H7814004   7.776   1.641   0.073 -0.5390  0.7943  1.3545
   34MOL    H7914005   7.703   1.445   0.143  0.8294 -0.1199 -0.1912
   34MOL    H8014006   7.612   1.234   0.206  0.4308  1.0939 -0.4001
   34MOL    H8114007   7.408   1.138   0.058  1.2941 -0.2800 -0.4062
   34MOL    H8214008   7.324   1.271   7.849 -1.0822 -1.0524  1.2731
   34MOL    H8314009   7.425   1.479   7.802  1.4817 -0.7034 -1.2186
   34MOL    H8414010   7.761   2.041   7.862  1.9742 -0.1360  1.4825
   34MOL    H8514011   7.615   2.095   7.936  0.8041  1.2143  1.4368
   34MOL    C8614012   7.773   2.037   0.105  1.1873 -0.1164 -0.0758
   34MOL    O8714013   7.879   2.127   0.072 -0.2674 -0.6701 -0.7336
   34MOL    C8814014   0.019   2.070   0.022 -0.1530  0.8137 -0.4917
   34MOL    O8914015   0.118   2.055   0.111 -0.1843  0.7125  0.1734
   34MOL    C9014016   0.178   2.177   0.150 -0.0228 -0.2942  0.3737
   34MOL    C9114017   0.314   2.191   0.113 -0.5118 -0.0516 -0.3386
   34MOL    C9214018   0.382   2.305   0.146  0.8728  0.2150  0.8575
   34MOL    C9314019   0.317   2.417   0.194  0.4727 -0.1916  0.1369
   34MOL    C9414020   0.178   2.409   0.222 -0.0332  0.1463 -0.9999
   34MOL    C9514021   0.105   2.289   0.199 -0.0254 -0.0160 -0.3574
   34MOL    C9614022   7.695   2.080   0.228  0.0526 -0.1764 -0.3279
   34MOL    H9714023   7.824   1.945   0.133 -0.7219 -0.9594  0.7297
   34MOL    H9814024   0.048   2.122   7.906 -1.1906 -1.6616 -2.3176
   34MOL    H9914025   7.973   1.971   7.955  0.7363 -0.1922  1.3356
   34MOL   H10014026   0.370   2.112   0.067  1.1756  0.5690  0.6168
   34MOL   H10114027   0.481   2.324   0.109  0.8688 -1.3622  0.0151
   34MOL   H10214028   0.364   2.514   0.204  2.7045 -1.3251  0.8881
   34MOL   H10314029   0.119   2.490   0.262 -1.1114 -1.4312  0.7090
   34MOL   H10414030   7.974   2.290   0.215 -0.2788 -0.5137 -1.9678
   34MOL   H10514031   7.756   2.118   0.310 -0.0176 -0.1231 -0.2999
   34MOL   H10614032   7.633   2.164   0.196 -2.7372 -2.2171 -0.5762
   34MOL   C10714033   7.611   1.965   0.279 -0.1033  0.3544 -0.7880
   34MOL   O10814034   7.661   1.943   0.416 -0.2106  0.3160 -0.6986
   34MOL   C10914035   7.771   1.861   0.436  0.2934 -0.3826 -0.5957
   34MOL   O11014036   7.742   1.729   0.413 -0.1233 -0.1559 -0.7681
   34MOL   C11114037   7.831   1.630   0.450  0.4987  0.1666 -0.2110
   34MOL   C11214038   7.965   1.655   0.506  0.4797  0.1548  0.2654
   34MOL   C11314039   0.066   1.544   0.545 -0.9542  0.5518 -0.3287
   34MOL   C11414040   0.021   1.414   0.526 -0.8029 -0.3268  0.1842
   34MOL   C11514041   7.874   1.388   0.461  0.4367 -0.7996  0.5663
   34MOL   C11614042   7.791   1.500   0.430 -0.4552  0.7422 -0.0077
   34MOL   C11714043   7.466   2.005   0.288  0.0432  0.6931  0.0442
   34MOL   H11814044   7.629   1.874   0.222  0.5145 -0.3030  0.4467
   34MOL   H11914045   7.811   1.866   0.537  1.7077 -1.7991 -1.0828
   34MOL   H12014046   7.853   1.891   0.371  1.0989 -2.2763 -0.4773
   34MOL   H12114047   0.019   1.757   0.525  0.5848 -0.0627  1.2858
   34MOL   H12214048   0.167   1.553   0.583 -0.0008 -5.0753 -1.1253
   34MOL   H12314049   0.085   1.335   0.565  1.2583  1.1998 -0.0027
   34MOL   H12414050   7.842   1.288   0.435 -0.3913 -1.0261  2.3975
   34MOL   H12514051   7.697   1.483   0.380 -1.2900  2.3253  0.9766
   34MOL   H12614052   7.438   2.025   0.184 -0.8961 -0.2161  0.1172
   34MOL   H12714053   7.462   2.106   0.329  2.6002  0.6460  0.4769
   34MOL   C12814054   7.365   1.900   0.350  0.1239 -0.9423  0.4572
   34MOL   O12914055   7.378   1.793   0.263  0.6585  0.0378 -0.5473
   34MOL   C13014056   7.360   1.666   0.316  0.4780 -0.6985  0.0265
   34MOL   O13114057   7.423   1.643   0.443 -0.5655  0.7654  0.0901
   34MOL   C13214058   7.370   1.554   0.534  0.0454 -0.8819 -0.1709
   34MOL   C13314059   7.457   1.500   0.634 -0.7301  0.6342  0.4199
   34MOL   C13414060   7.412   1.406   0.732 -0.1143 -0.7304  0.4059
   34MOL   C13514061   7.280   1.360   0.727 -0.3493  0.3051  0.3632
   34MOL   C13614062   7.192   1.422   0.640 -0.1231 -0.6156  0.6965
   34MOL   C13714063   7.233   1.522   0.547 -0.0460 -0.5059  1.1447
   34MOL   C13814064   7.220   1.957   0.352  0.2194  0.9392 -0.2161
   34MOL   H13914065   7.391   1.864   0.450  0.4996  0.2693  0.8047
   34MOL   H14014066   7.409   1.601   0.244 -0.0825 -0.4977 -0.5487
   34MOL   H14114067   7.254   1.643   0.304  0.6713 -0.7650 -1.7092
   34MOL   H14214068   7.562   1.522   0.626 -0.8809  0.3332 -2.7776
   34MOL   H14314069   7.475   1.355   0.803 -1.4461 -0.5626  1.7448
   34MOL   H14414070   7.254   1.275   0.789  1.3969  1.0068  2.1293
   34MOL   H14514071   7.091   1.384   0.641 -0.2018 -0.4852 -0.8604
   34MOL   H14614072   7.155   1.550   0.478 -0.9238 -1.0190  1.9084
   34MOL   H14714073   7.230   2.063   0.374  0.2424  1.0760 -0.8699
   34MOL   H14814074   7.176   1.950   0.252  2.7841  1.9776 -1.4692
   34MOL   C14914075   7.142   1.883   0.461  0.3762  0.1166 -0.0699
   34MOL   O15014076   7.181   1.950   0.580 -0.1765 -0.6541 -0.4334
   34MOL   C15114077   7.214   1.862   0.679  0.0795 -0.3344  0.0624
   34MOL   O15214078   7.092   1.816   0.736 -0.0114 -0.3117  0.5620
   34MOL   C15314079   7.102   1.732   0.842 -0.0388 -0.4028 -0.2806
   34MOL   C15414080   6.976   1.691   0.900 -0.2571 -0.4544 -0.5129
   34MOL   C15514081   6.969   1.598   1.006  0.0212  0.1940  0.5632
   34MOL   C15614082   7.091   1.553   1.062 -0.0024 -0.6197  0.1369
   34MOL   C15714083   7.212   1.599   1.013  0.7448  0.0284 -0.4327
   34MOL   C15814084   7.217   1.674   0.897 -0.3820 -0.0653  0.0189
   34MOL   C15914085   6.992   1.893   0.446  0.2081  0.5823  0.1856
   34MOL   H16014086   7.176   1.779   0.460  2.1030  0.6670 -0.7228
   34MOL   H16114087   7.288   1.785   0.659  0.3749  0.7117 -3.1464
   34MOL   H16214088   7.259   1.920   0.759  0.3777 -1.8044  0.9839
   34MOL   H16314089   6.881   1.721   0.861  0.0777 -1.9831 -2.6073
   34MOL   H16414090   6.870   1.566   1.036 -0.6746 -0.1576 -1.9620
   34MOL   H16514091   7.093   1.482   1.144  0.6214 -0.3387  0.3671
   34MOL   H16614092   7.300   1.566   1.065 -1.4657  0.3011  3.6477
   34MOL   H16714093   7.312   1.706   0.854 -0.1039 -0.2351  0.5032
   34MOL   H16814094   6.976   2.000   0.460 -0.2869  0.6676 -0.9642
   34MOL   H16914095   6.939   1.847   0.528 -1.3462  0.5452 -0.8071
   34MOL   C17014096   6.934   1.855   0.310 -0.6128  0.0769  0.3428
   34MOL   O17114097   6.999   1.727   0.289 -0.0819  0.2409  0.4890
   34MOL   C17214098   7.006   1.687   0.163  0.1875 -0.0254  0.4556
   34MOL   O17314099   7.107   1.589   0.143 -0.0393  0.3660  0.4381
   34MOL   C17414100   7.094   1.468   0.211  0.2285 -0.2245  0.2228
   34MOL   C17514101   7.205   1.384   0.207 -0.2710 -0.4588 -0.2423
   34MOL   C17614102   7.210   1.257   0.265 -0.3330  0.7179 -0.2728
   34MOL   C17714103   7.095   1.209   0.331  0.3868  0.4344  0.1183
   34MOL   C17814104   6.977   1.287   0.327 -0.2440  0.0503 -0.9437
   34MOL   C17914105   6.976   1.420   0.270  0.8105  0.3630 -0.5650
   34MOL   C18014106   6.773   1.845   0.303 -1.3240 -0.1571  0.0968
   34MOL   H18114107   6.959   1.930   0.235 -2.0088 -0.7718 -1.0035
   34MOL   H18214108   7.029   1.769   0.096 -0.1863 -0.6558 -0.4566
   34MOL   H18314109   6.912   1.653   0.118  0.3947 -0.2419  0.1868
   34MOL   H18414110   7.290   1.429   0.158 -1.2137 -1.5609 -3.0070
   34MOL   H18514111   7.307   1.211   0.280  1.1236  4.1870  1.7168
   34MOL   H18614112   7.103   1.106   0.361 -0.7230  0.5980  0.9930
   34MOL   H18714113   6.888   1.256   0.380 -0.7194 -0.0010 -1.7444
   34MOL   H18814114   6.890   1.483   0.286 -0.1592 -1.2032  0.5038
   34MOL   H18914115   6.743   1.832   0.199  1.9639  0.1812 -0.9439
   34MOL   H19014116   6.753   1.750   0.352  0.2284 -0.3153  0.4693
   34MOL   C19114117   6.696   1.966   0.367  0.9459  0.6128 -0.0501
   34MOL   O19214118   6.581   1.892   0.404  0.0799  0.5239  0.4171
   34MOL   C19314119   6.514   1.936   0.525 -0.6689 -0.2732  0.3874
   34MOL   O19414120   6.592   1.895   0.637  0.2338 -0.4516 -0.0401
   34MOL   C19514121   6.572   1.966   0.752  0.2925  0.4794  0.1736
   34MOL   C19614122   6.445   2.019   0.788  0.5207 -0.0678  0.2738
   34MOL   C19714123   6.440   2.102   0.900 -0.6664  0.3464 -0.2615
   34MOL   C19814124   6.550   2.116   0.989  0.2908 -0.3089  0.4379
   34MOL   C19914125   6.667   2.050   0.963 -0.1847  0.4641  0.3503
   34MOL   C20014126   6.679   1.975   0.846  1.1380 -0.4115  0.5331
   34MOL   C20114127   6.652   2.084   0.275 -0.4268  0.1829  0.6955
   34MOL   H20214128   6.745   2.006   0.456 -1.1945  2.2657  0.4063
   34MOL   H20314129   6.416   1.889   0.521 -0.8838  0.3245 -1.8760
   34MOL   H20414130   6.513   2.045   0.513  0.5791 -0.3091 -0.1413
   34MOL   H20514131   6.367   2.015   0.713  0.9993  0.9566 -0.3023
   34MOL   H20614132   6.348   2.157   0.913  0.1835  1.8867 -0.5793
   34MOL   H20714133   6.538   2.186   1.071 -0.3317  0.0930  0.0090
   34MOL   H20814134   6.755   2.060   1.024 -1.2592 -1.6302  2.3242
   34MOL   H20914135   6.775   1.928   0.832  1.6663  0.8572 -0.1851
   34MOL   H21014136   6.620   2.042   0.180  2.0644 -0.2489 -0.0025
   34MOL   H21114137   6.570   2.135   0.325  0.0622 -0.2088  1.9191
   34MOL   C21214138   6.769   2.179   0.249  0.1301 -0.5293 -0.3266
   34MOL   O21314139   6.735   2.288   0.156  0.4537  0.3997  0.1764
   34MOL   C21414140   6.641   2.262   0.050 -0.4133 -0.0525  0.1860
   34MOL   O21514141   6.701   2.183   7.921  0.1326 -0.2325  0.3261
   34MOL   C21614142   6.764   2.242   7.812 -0.5103 -0.1915 -0.1276
   34MOL   C21714143   6.772   2.166   7.698  0.4322  0.4223  0.2319
   34MOL   C21814144   6.832   2.225   7.583 -0.1433 -0.5550 -0.3964
   34MOL   C21914145   6.868   2.363   7.586 -0.3329 -0.9200  0.5182
   34MOL   C22014146   6.855   2.442   7.699  0.0447  0.6580  0.6109
   34MOL   C22114147   6.811   2.377   7.814  0.3624  0.6707  0.1020
   34MOL   C22214148   6.824   2.246   0.375  0.3970  0.4893  0.2702
   34MOL   H22314149   6.844   2.123   0.192 -0.6400  0.3152 -2.2273
   34MOL   H22414150   6.619   2.361   0.012  0.1073 -0.2525 -0.6626
   34MOL   H22514151   6.548   2.212   0.076 -1.2090  0.5947 -1.4179
   34MOL   H22614152   6.731   2.066   7.708  0.3134  0.7557  3.6562
   34MOL   H22714153   6.841   2.163   7.496  4.1324  1.4897 -1.5642
   34MOL   H22814154   6.899   2.410   7.494 -0.6231  0.0616  0.9165
   34MOL   H22914155   6.897   2.542   7.703  3.7733 -0.8433  0.6000
   34MOL   H23014156   6.819   2.429   7.908  1.2788  0.8279 -0.0562
   34MOL   H23114157   6.863   2.183   0.454  0.2243 -0.3596 -0.3136
   34MOL   H23214158   6.917   2.288   0.336 -0.8576  0.2463 -3.1871
   34MOL   C23314159   6.732   2.346   0.446  0.4428  0.2118 -0.4551
   34MOL   O23414160   6.635   2.274   0.525 -0.3449 -0.1327 -0.0453
   34MOL   C23514161   6.527   2.342   0.582  0.4427  0.6931 -0.4050
   34MOL   O23614162   6.410   2.267   0.574 -0.6234  0.3883 -0.2625
   34MOL   C23714163   6.334   2.286   0.460  0.1892 -0.6336  0.0427
   34MOL   C23814164   6.357   2.370   0.350  0.0167  0.6797 -0.4676
   34MOL   C23914165   6.262   2.387   0.249 -0.3004  0.3272  0.6080
   34MOL   C24014166   6.145   2.311   0.242  0.4483 -0.2088 -0.2043
   34MOL   C24114167   6.118   2.228   0.351  0.5239 -0.3118 -0.3400
   34MOL   C24214168   6.216   2.212   0.457 -0.0500 -0.3579 -0.0515
   34MOL   C24314169   6.819   2.429   0.550  0.2509  0.1613 -0.0588
   34MOL   H24414170   6.685   2.413   0.374  0.8794 -0.3556 -1.2683
   34MOL   H24514171   6.516   2.439   0.534 -2.3449  0.6959  0.1867
   34MOL   H24614172   6.547   2.362   0.687  0.3950  0.8536 -0.4267
   34MOL   H24714173   6.448   2.427   0.339  0.0294  0.6402 -0.5704
   34MOL   H24814174   6.281   2.447   0.161 -0.7846  1.6344  1.3839
   34MOL   H24914175   6.072   2.323   0.163  1.8220  1.0035 -1.3176
   34MOL   H25014176   6.031   2.165   0.349 -0.6395  1.2420  0.1683
   34MOL   H25114177   6.191   2.143   0.535 -1.5008 -1.2926 -1.3068
   34MOL   H25214178   6.746   2.492   0.602  0.5811  1.1169 -0.7357
   34MOL   H25314179   6.842   2.360   0.631 -1.4341 -2.3621 -1.6848
   34MOL   C25414180   6.921   2.528   0.498 -0.3717 -0.4469  0.0655
   34MOL   O25514181   6.861   2.649   0.475  0.0923  0.8250  0.0222
   34MOL   C25614182   6.855   2.689   0.344  0.3235  0.2081 -0.1452
   34MOL   O25714183   6.755   2.615   0.277 -0.5753 -0.2561 -0.4592
   34MOL   C25814184   6.728   2.650   0.144  0.2454 -0.5645 -0.5542
   34MOL   C25914185   6.827   2.699   0.059 -0.4379  0.7968  0.0982
   34MOL   C26014186   6.798   2.722   7.899 -0.9285 -0.5142 -0.6977
   34MOL   C26114187   6.671   2.684   7.848 -0.6620 -0.1017 -0.6112
   34MOL   C26214188   6.570   2.633   7.932  0.2587  0.4601 -0.7170
   34MOL   C26314189   6.605   2.613   0.094 -0.5703  0.1536 -0.1089
   34MOL   C26414190   7.029   2.555   0.603  0.0141  0.8745 -0.2860
   34MOL   H26514191   6.974   2.496   0.408 -1.6382 -0.0603 -0.8521
   34MOL   H26614192   6.952   2.679   0.295 -0.0366 -4.2449 -0.1425
   34MOL   H26714193   6.825   2.794   0.339  1.5285  0.6653  1.7635
   34MOL   H26814194   6.928   2.718   0.094 -0.3265  1.2897 -0.4993
   34MOL   H26914195   6.883   2.754   7.839  0.0115 -0.1169  0.8330
   34MOL   H27014196   6.654   2.709   7.744  2.5688 -0.5285 -1.2883
   34MOL   H27114197   6.472   2.604   7.897  0.4411 -1.2656  0.1593
   34MOL   H27214198   6.529   2.576   0.160  1.2788 -1.6103  1.0908
   34MOL   H27314199   7.086   2.646   0.584  0.8268  0.8531  1.8884
   34MOL   H27414200   6.980   2.586   0.695  1.6737  0.6292  0.7033
   34MOL   C27514201   7.125   2.428   0.621  0.0007 -0.1261  0.1280
   34MOL   O27614202   7.219   2.458   0.523  0.3746 -0.5073 -0.2512
   34MOL   C27714203   7.231   2.358   0.438 -0.2925 -0.3012 -0.2035
   34MOL   O27814204   7.323   2.405   0.346 -0.0420  0.9208  0.1152
   34MOL   C27914205   7.456   2.387   0.371 -0.1725 -0.4976  0.5987
   34MOL   C28014206   7.509   2.323   0.482 -0.4309  0.2642  0.2310
   34MOL   C28114207   7.647   2.309   0.492  0.2483 -0.6842 -0.9491
   34MOL   C28214208   7.735   2.374   0.404  0.2465 -0.0696  0.4953
   34MOL   C28314209   7.684   2.437   0.290  0.1302  0.6799 -0.3410
   34MOL   C28414210   7.545   2.439   0.274 -0.1853  0.4291  0.0695
   34MOL   C28514211   7.192   2.421   0.755 -0.6012  0.1481 -0.7313
   34MOL   H28614212   7.054   2.348   0.603 -1.4785  1.0550  0.6179
   34MOL   H28714213   7.134   2.339   0.392 -0.6032 -3.7021  1.6920
   34MOL   H28814214   7.257   2.263   0.485  1.4848  1.5309  2.6303
   34MOL   H28914215   7.449   2.287   0.564 -1.2105  0.9676 -0.0271
   34MOL   H29014216   7.685   2.266   0.583  0.8332  1.9215  0.1082
   34MOL   H29114217   7.842   2.370   0.420  0.3753  0.0040 -0.2947
   34MOL   H29214218   7.753   2.487   0.224  0.4256  0.5927 -0.1001
   34MOL   H29314219   7.497   2.499   0.198 -1.1185 -1.2233 -0.6883
   34MOL   H29414220   7.141   2.487   0.826  1.9233 -1.7657  3.0398
   34MOL   H29514221   7.291   2.466   0.748 -0.9431  1.0017 -0.0632
   34MOL   C29614222   7.200   2.284   0.824 -0.2780  0.3637  0.4058
   34MOL   O29714223   7.294   2.308   0.925  0.2961  0.3435  0.0885
   34MOL   C29814224   7.381   2.202   0.957  0.1282 -0.2919 -1.1643
   34MOL   O29914225   7.441   2.157   0.845 -0.2818 -0.3355 -0.0807
   34MOL   C30014226   7.503   2.034   0.850 -0.7510 -0.2918  0.6345
   34MOL   C30114227   7.511   1.966   0.727 -0.4849 -0.4332  0.9254
   34MOL   C30214228   7.582   1.837   0.720  0.4461 -0.6585  0.3487
   34MOL   C30314229   7.650   1.789   0.835  0.6182 -0.1306  0.3231
   34MOL   C30414230   7.645   1.857   0.959  0.4182  0.5089  0.5205
   34MOL   C30514231   7.570   1.977   0.966  0.9056  1.0779 -0.0860
   34MOL   C30614232   7.067   2.228   0.881 -0.9905  0.6313  0.3311
   34MOL   H30714233   7.240   2.214   0.750 -0.0710  1.1262 -0.2121
   34MOL   H30814234   7.316   2.125   1.000  0.9309 -0.1586  0.3369
   34MOL   H30914235   7.451   2.232   1.035 -0.7575 -2.3849  0.4971
   34MOL   H31014236   7.475   2.009   0.634 -2.0307 -1.1833  1.1577
   34MOL   H31114237   7.588   1.793   0.621  1.9855 -0.9720  0.5703
   34MOL   H31214238   7.706   1.697   0.823 -1.3328 -1.6417  2.4690
   34MOL   H31314239   7.693   1.818   1.048  0.4774 -0.2904  0.1491
   34MOL   H31414240   7.563   2.023   1.063 -0.2252  0.5089  0.1120
   34MOL   H31514241   7.102   2.139   0.934 -0.2356  0.9075  0.2879
   34MOL   H31614242   7.019   2.184   0.793  0.6019 -2.3258  0.8794
   34MOL   C31714243   6.964   2.303   0.974 -0.7391 -0.2134  1.5687
   34MOL   O31814244   6.910   2.410   0.896 -0.2648  0.1556  0.3592
   34MOL   C31914245   6.770   2.429   0.914  0.6507  0.4577  0.0370
   34MOL   O32014246   6.728   2.462   1.048  0.4271  0.3225  0.3979
   34MOL   C32114247   6.596   2.496   1.072 -0.4734  0.8283 -0.2001
   34MOL   C32214248   6.543   2.452   1.195 -0.1980 -1.0007 -0.1678
   34MOL   C32314249   6.409   2.479   1.222  0.4530  0.6385 -0.0353
   34MOL   C32414250   6.328   2.542   1.126 -0.2614 -0.0112  0.2150
   34MOL   C32514251   6.378   2.584   1.004  0.0391  0.1989 -0.3344
   34MOL   C32614252   6.511   2.560   0.978  0.7233 -0.6748  0.5233
   34MOL   C32714253   7.023   2.368   1.103  0.0087 -0.1982 -0.1660
   34MOL   H32814254   6.879   2.240   1.000 -0.8026 -0.7541  0.1230
   34MOL   H32914255   6.714   2.340   0.885 -1.4026  1.3253  1.1870
   34MOL   H33014256   6.744   2.516   0.853  0.4401 -0.9212 -1.8848
   34MOL   H33114257   6.601   2.414   1.278 -0.3649 -0.3597  0.2424
   34MOL   H33214258   6.365   2.449   1.316  1.2510 -0.1525  0.0874
   34MOL   H33314259   6.225   2.551   1.155  0.4818 -0.9454  3.3667
   34MOL   H33414260   6.319   2.637   0.930  1.3153  0.2339 -1.3416
   34MOL   H33514261   6.548   2.599   0.885 -0.5389  1.8948  1.0489
   34MOL   H33614262   7.109   2.432   1.085  0.2974 -0.7657 -0.8184
   34MOL   H33714263   6.963   2.445   1.152  1.6152  0.4191  0.8783
   34MOL   C33814264   7.067   2.274   1.217 -0.1934 -1.2672  0.1975
   34MOL   O33914265   7.116   2.356   1.324 -0.3832 -0.0703 -0.1154
   34MOL   C34014266   7.257   2.370   1.330  0.1556  0.7286 -0.3832
   34MOL   O34114267   7.319   2.264   1.392  0.7383  0.1192 -0.6873
   34MOL   C34214268   7.313   2.270   1.533  0.0541  0.3011  0.4879
   34MOL   C34314269   7.234   2.355   1.614  0.2864  0.4215  1.1431
   34MOL   C34414270   7.238   2.362   1.754 -0.0964  0.4659  0.6851
   34MOL   C34514271   7.332   2.283   1.815 -0.3095  0.1873 -0.5052
   34MOL   C34614272   7.415   2.195   1.741  0.0532 -0.0173 -0.0154
   34MOL   C34714273   7.398   2.183   1.601 -0.1400  0.1239 -0.0476
   34MOL   C34814274   6.957   2.178   1.271 -0.3006 -0.7535 -1.1122
   34MOL   H34914275   7.152   2.212   1.186  0.3413 -1.0193  1.1252
   34MOL   H35014276   7.285   2.462   1.381  1.6978  1.1455 -1.9067
   34MOL   H35114277   7.296   2.370   1.228  2.1015 -0.2738  0.3328
   34MOL   H35214278   7.169   2.426   1.566  0.1254 -0.0250  0.6992
   34MOL   H35314279   7.190   2.444   1.805  2.2642  1.7750  0.8474
   34MOL   H35414280   7.345   2.279   1.922 -1.2274  1.8079 -0.3124
   34MOL   H35514281   7.475   2.121   1.790  2.4438  1.7239 -0.2130
   34MOL   H35614282   7.454   2.108   1.548  1.3097 -0.0185  1.6420
   34MOL   H35714283   6.871   2.168   1.205 -0.3317  0.4415 -1.2647
   34MOL   H35814284   6.922   2.234   1.357  1.3525 -0.7672 -0.4265
   34MOL   C35914285   7.009   2.038   1.301  0.3117  0.0455  0.2241
   34MOL   O36014286   7.059   1.994   1.175 -0.1391  0.2323  0.0127
   34MOL   C36114287   7.173   1.916   1.195  0.2149 -0.4813  0.4707
   34MOL   O36214288   7.284   1.985   1.257  0.1859  0.4633  0.2401
   34MOL   C36314289   7.396   1.907   1.283 -0.4880 -0.0748 -0.2532
   34MOL   C36414290   7.512   1.971   1.316 -0.3484  0.4361  0.4976
   34MOL   C36514291   7.629   1.910   1.365  0.9408  0.2783 -0.7724
   34MOL   C36614292   7.632   1.770   1.365  0.0997  0.6120  0.4668
   34MOL   C36714293   7.518   1.703   1.318 -0.3030  1.0536  0.6959
   34MOL   C36814294   7.398   1.767   1.292  0.0925 -0.2103  0.0730
   34MOL   C36914295   6.893   1.943   1.345  0.9039 -0.2953 -0.7059
   34MOL   H37014296   7.089   2.049   1.374 -1.6129  1.8965  2.1265
   34MOL   H37114297   7.210   1.885   1.098 -3.5658 -1.1619 -0.8417
   34MOL   H37214298   7.153   1.818   1.240  1.8197 -0.9974  0.1118
   34MOL   H37314299   7.509   2.079   1.305 -0.9382  0.4010  0.3244
   34MOL   H37414300   7.723   1.961   1.382 -0.0277  1.3865  1.4303
   34MOL   H37514301   7.726   1.720   1.382 -1.0682 -1.9071 -0.2239
   34MOL   H37614302   7.528   1.597   1.301 -0.3313  0.5703  3.3725
   34MOL   H37714303   7.316   1.701   1.269  0.6222 -0.4812 -1.0468
   34MOL   H37814304   6.924   1.841   1.326  1.9815 -0.3609  1.3286
   34MOL   H37914305   6.799   1.964   1.294  0.4876  0.6850  0.4445
   34MOL   C38014306   6.861   1.942   1.495  0.3990  0.4423 -0.9374
   34MOL   O38114307   6.984   1.927   1.566  0.4826  0.0156  0.1707
   34MOL   C38214308   7.008   2.003   1.686  0.1916  0.4314  0.0699
   34MOL   O38314309   7.034   1.929   1.792  0.3416  0.1610  0.3211
   34MOL   C38414310   7.163   1.880   1.789 -0.2817  0.4201 -0.0451
   34MOL   C38514311   7.191   1.823   1.913 -0.4305  0.7937  0.4807
   34MOL   C38614312   7.318   1.764   1.939  0.4746  0.2907  0.9242
   34MOL   C38714313   7.410   1.758   1.831 -0.1000  0.9721 -0.0712
   34MOL   C38814314   7.382   1.811   1.705 -0.1282 -1.0572 -0.6317
   34MOL   C38914315   7.255   1.875   1.682 -0.9354  0.4757 -0.4756
   34MOL   C39014316   6.758   1.825   1.525 -0.0190 -0.3393  0.0572
   34MOL   H39114317   6.818   2.040   1.515 -0.3844 -0.3783  1.5467
   34MOL   H39214318   7.088   2.075   1.665  0.7020  0.7758  3.0301
   34MOL   H39314319   6.919   2.055   1.720 -1.4105 -1.8922 -0.4952
   34MOL   H39414320   7.119   1.834   1.993 -1.9503 -1.1015 -0.5937
   34MOL   H39514321   7.339   1.714   2.032 -0.7323 -0.1402  0.9644
   34MOL   H39614322   7.499   1.699   1.848  0.3570  1.6767 -0.0239
   34MOL   H39714323   7.439   1.795   1.615 -1.7323 -1.6381 -1.5797
   34MOL   H39814324   7.244   1.914   1.582  0.1913  1.7104 -0.1477
   34MOL   H39914325   6.814   1.733   1.540 -2.0552 -1.6290 -0.0402
   34MOL   H40014326   6.684   1.808   1.446 -0.1439 -0.0732  0.1168
   34MOL   C40114327   6.675   1.842   1.654 -0.1700 -0.6757 -0.1022
   34MOL   O40214328   6.570   1.934   1.633  0.1933 -0.0351  0.0640
   34MOL   C40314329   6.520   1.992   1.743  0.2314 -0.4920  0.3235
   34MOL   O40414330   6.524   2.134   1.726 -0.5389 -0.1775 -0.1030
   34MOL   C40514331   6.647   2.183   1.773 -0.2522 -0.0629  0.1511
   34MOL   C40614332   6.733   2.243   1.681 -0.1230  0.3433 -0.5296
   34MOL   C40714333   6.850   2.310   1.730  0.0225 -0.0815 -0.5576
   34MOL   C40814334   6.884   2.315   1.870  0.2261  0.0702  0.0874
   34MOL   C40914335   6.795   2.247   1.955 -0.4434  0.2495  0.3961
   34MOL   C41014336   6.680   2.184   1.907 -0.4978  0.7225 -0.0475
   34MOL   C41114337   6.621   1.698   1.685  0.1449 -0.4397 -0.4229
   34MOL   H41214338   6.742   1.870   1.735 -0.0273 -0.8317 -0.1660
   34MOL   H41314339   6.559   1.964   1.841  1.9003 -1.7032 -0.6614
   34MOL   H41414340   6.415   1.968   1.731  0.4563 -2.2029  1.5392
   34MOL   H41514341   6.704   2.239   1.578  0.0741  2.0190 -0.6642
   34MOL   H41614342   6.903   2.374   1.661 -1.6960 -0.2723 -2.0719
   34MOL   H41714343   6.965   2.379   1.903  0.9879  0.0562 -1.6913
   34MOL   H41814344   6.806   2.245   2.062  0.8361  2.8160  0.3559
   34MOL   H41914345   6.613   2.146   1.983  0.1900 -0.3667  0.0261
   34MOL   H42014346   6.578   1.665   1.590 -0.3590 -2.2267  0.3931
   34MOL   H42114347   6.540   1.693   1.757  0.0294  0.8968 -0.4490
   34MOL   H42214348   6.690   1.615   1.700  0.5515 -0.1209 -0.5398
   35MOL     C114349   3.247   7.840   1.224 -0.3503  0.4079  0.0976
   35MOL     O214350   3.244   7.699   1.249 -0.3973  0.4919  0.0708
   35MOL     C314351   3.231   7.620   1.132 -0.7978  0.0868 -0.0719
   35MOL     O414352   3.234   7.479   1.164  0.1741 -0.2796  0.0385
   35MOL     C514353   3.126   7.430   1.227 -0.2731 -0.0675  0.0802
   35MOL     C614354   3.150   7.317   1.297 -0.3328  0.0468  0.5562
   35MOL     C714355   3.053   7.247   1.366  0.4737  0.3541 -0.8110
   35MOL     C814356   2.927   7.307   1.383  0.6248  1.0882 -0.6241
   35MOL     C914357   2.899   7.432   1.324  0.3888  0.1757  0.4914
   35MOL    C1014358   2.993   7.489   1.241 -1.1594 -0.1483  0.0390
   35MOL    C1114359   3.299   7.911   1.351 -0.0123  0.5917  0.4094
   35MOL    H1214360   3.323   7.864   1.149  0.6010  0.5566  1.0903
   35MOL    H1314361   3.146   7.636   1.066 -1.4778 -1.2709  0.4426
   35MOL    H1414362   3.322   7.638   1.075 -1.9019  1.0198 -1.5642
   35MOL    H1514363   3.244   7.264   1.293 -1.6517 -2.1653 -2.6783
   35MOL    H1614364   3.083   7.148   1.398 -1.2188  0.5329  1.4960
   35MOL    H1714365   2.850   7.255   1.437  2.2148  0.8327  1.4581
   35MOL    H1814366   2.804   7.475   1.353  0.3381  0.4778 -0.1160
   35MOL    H1914367   2.966   7.586   1.202 -0.9385 -0.3273 -0.5704
   35MOL    H2014368   3.401   7.877   1.368 -0.0592  0.3040  0.1241
   35MOL    H2114369   3.244   7.872   1.436 -1.5410 -0.3378 -0.9711
   35MOL    H2214370   3.149   7.874   1.191  0.1172  0.6067 -1.1134
   35MOL    C2314371   3.294   0.091   1.335 -0.7640  0.1083 -0.1695
   35MOL    O2414372   3.387   0.128   1.232 -0.6038  0.0932  0.4356
   35MOL    C2514373   3.374   0.241   1.154 -0.2441 -0.2897 -0.5741
   35MOL    O2614374   3.259   0.252   1.082  0.3478 -0.4215  0.4150
   35MOL    C2714375   3.227   0.163   0.986 -0.1429 -0.2554  0.1749
   35MOL    C2814376   3.093   0.169   0.938  0.2772 -0.6015 -0.2196
   35MOL    C2914377   3.047   0.056   0.865  0.4786 -0.4839  0.0942
   35MOL    C3014378   3.130   7.932   0.815 -0.1936 -0.5292 -0.5662
   35MOL    C3114379   3.267   7.940   0.840  0.1407 -0.2259  0.2453
   35MOL    C3214380   3.313   0.060   0.934  0.1094 -0.4026 -0.1696
   35MOL    C3314381   3.337   0.168   1.461  0.4151 -0.1952  0.4228
   35MOL    H3414382   3.196   0.128   1.303 -1.1152 -0.1027  0.6347
   35MOL    H3514383   3.460   0.244   1.088 -0.2433  1.4110 -0.5036
   35MOL    H3614384   3.379   0.328   1.219 -3.2580 -0.9973  0.6971
   35MOL    H3714385   3.024   0.246   0.970  3.1955  1.7307  0.7059
   35MOL    H3814386   2.940   0.067   0.854  0.4481 -1.5025 -0.5883
   35MOL    H3914387   3.099   7.870   0.732 -2.6376  1.7211 -1.4363
   35MOL    H4014388   3.336   7.878   0.785 -1.8776 -2.2219 -0.0833
   35MOL    H4114389   3.419   0.058   0.956 -0.2968 -0.0608  1.9885
   35MOL    H4214390   3.328   0.274   1.438  1.0807  0.2004  1.9175
   35MOL    H4314391   3.438   0.141   1.494 -0.4238 -0.4109  2.9549
   35MOL    C4414392   3.241   0.153   1.578 -0.7059  0.3368 -0.0023
   35MOL    O4514393   3.116   0.206   1.536  0.1353  0.0136  0.3483
   35MOL    C4614394   3.005   0.138   1.570 -0.8773 -0.7839 -0.2027
   35MOL    O4714395   2.890   0.195   1.526 -0.1331 -0.3022 -0.7380
   35MOL    C4814396   2.776   0.129   1.561 -0.3815  0.0184 -1.1212
   35MOL    C4914397   2.766   0.017   1.652 -0.1134  0.4721  0.2978
   35MOL    C5014398   2.639   7.934   1.671 -0.3944 -0.4009 -0.3975
   35MOL    C5114399   2.527   0.004   1.594  0.1246  0.1772  0.2779
   35MOL    C5214400   2.533   0.125   1.524  0.0712 -0.5066  0.2355
   35MOL    C5314401   2.658   0.180   1.503  0.5410  0.1123 -0.9736
   35MOL    C5414402   3.293   0.233   1.700  0.0649  0.0580  0.3497
   35MOL    H5514403   3.240   0.050   1.613 -0.4332  1.1091  2.3790
   35MOL    H5614404   3.019   0.139   1.678  1.6930  0.6848 -0.5194
   35MOL    H5714405   3.014   0.038   1.527 -2.7577  0.2267 -3.0425
   35MOL    H5814406   2.857   7.958   1.699 -0.2203 -0.8382 -0.4411
   35MOL    H5914407   2.639   7.845   1.731 -1.3204  0.8154  1.4490
   35MOL    H6014408   2.442   7.912   1.594 -0.9032  1.4240 -1.3566
   35MOL    H6114409   2.450   0.168   1.469  1.0297 -0.0121 -0.8413
   35MOL    H6214410   2.666   0.272   1.448 -0.3161 -0.0338 -1.3515
   35MOL    H6314411   3.400   0.255   1.702  0.0589  0.0007  1.4337
   35MOL    H6414412   3.242   0.327   1.680 -0.0711 -0.2192 -0.6458
   35MOL    C6514413   3.244   0.203   1.847 -0.4562 -0.2847  0.1801
   35MOL    O6614414   3.283   0.068   1.868  0.1213 -0.4794  0.1874
   35MOL    C6714415   3.202   7.966   1.956 -0.5123  0.1408  0.9609
   35MOL    O6814416   3.103   7.895   1.897 -0.4383  0.3798 -1.1667
   35MOL    C6914417   3.128   7.799   1.800 -0.0269  0.0484 -0.2221
   35MOL    C7014418   3.021   7.730   1.738  0.0083  0.9057  0.1913
   35MOL    C7114419   3.049   7.639   1.636  0.4961 -0.4799  0.2931
   35MOL    C7214420   3.184   7.606   1.599  0.0998  0.0737 -0.0150
   35MOL    C7314421   3.284   7.667   1.675  0.1733 -0.2271  1.0550
   35MOL    C7414422   3.258   7.765   1.774 -0.3780 -0.0830 -0.4976
   35MOL    C7514423   3.323   0.284   1.955  0.3467  0.2722  0.9082
   35MOL    H7614424   3.138   0.218   1.868 -0.1018 -0.6286  2.3254
   35MOL    H7714425   3.157   0.059   2.028  1.7374 -0.8244  3.4079
   35MOL    H7814426   3.265   7.895   2.010  0.2262  1.3459  1.7024
   35MOL    H7914427   2.921   7.756   1.770 -0.4143 -1.8577  1.1891
   35MOL    H8014428   2.971   7.585   1.586  0.0661 -1.6548  2.1825
   35MOL    H8114429   3.212   7.523   1.536 -0.5696  0.2300 -0.5218
   35MOL    H8214430   3.390   7.645   1.669  0.4192  0.2521  3.1600
   35MOL    H8314431   3.335   7.805   1.837 -0.3146 -0.5849 -0.2502
   35MOL    H8414432   3.376   0.221   2.026  0.4072 -0.3284  0.3418
   35MOL    H8514433   3.391   0.353   1.904 -0.1642 -0.4578 -0.8128
   35MOL    C8614434   3.228   0.367   2.043  0.0525  0.6078 -0.2955
   35MOL    O8714435   3.146   0.280   2.119 -0.4671 -0.0416 -0.1787
   35MOL    C8814436   3.014   0.306   2.119  0.9037 -0.3768  0.3840
   35MOL    O8914437   2.940   0.265   2.006 -0.2188 -0.2293 -0.1932
   35MOL    C9014438   2.807   0.299   2.004  0.0856  1.0689 -0.2203
   35MOL    C9114439   2.730   0.252   1.898  0.0065  0.5524  0.0076
   35MOL    C9214440   2.596   0.282   1.890 -0.0608  0.1239  0.1614
   35MOL    C9314441   2.528   0.360   1.982 -0.8455 -0.5707  0.0037
   35MOL    C9414442   2.601   0.417   2.092  0.9601 -0.1954  0.6031
   35MOL    C9514443   2.744   0.388   2.100  0.2254  0.5354  0.2831
   35MOL    C9614444   3.293   0.464   2.150  0.7803 -0.2551 -0.8503
   35MOL    H9714445   3.158   0.426   1.984 -0.4723 -1.6845 -2.0268
   35MOL    H9814446   2.998   0.412   2.140  1.5835 -0.2927  0.4819
   35MOL    H9914447   2.970   0.264   2.209  0.5945 -1.1223 -0.1082
   35MOL   H10014448   2.788   0.201   1.823 -3.2003 -0.1011 -2.1138
   35MOL   H10114449   2.546   0.236   1.806  1.5142 -1.5389  0.0999
   35MOL   H10214450   2.423   0.385   1.971 -0.6569 -0.3515 -1.3567
   35MOL   H10314451   2.547   0.482   2.159 -0.0721 -0.5567  0.1411
   35MOL   H10414452   2.797   0.433   2.182  1.1537 -1.2957  0.6977
   35MOL   H10514453   3.220   0.486   2.228  0.5799 -0.2973 -1.0277
   35MOL   H10614454   3.373   0.411   2.202  0.7886 -0.2046 -0.8110
   35MOL   C10714455   3.339   0.601   2.097 -0.6448 -1.0284 -0.4177
   35MOL   O10814456   3.229   0.690   2.078 -0.4802  0.0871 -0.0688
   35MOL   C10914457   3.241   0.774   1.977  0.8388 -0.3037 -0.4123
   35MOL   O11014458   3.247   0.706   1.852 -0.0781 -0.4583 -0.1936
   35MOL   C11114459   3.134   0.638   1.804 -0.1762  0.7260  0.2402
   35MOL   C11214460   3.134   0.603   1.669  0.2407  0.6276 -0.3469
   35MOL   C11314461   3.028   0.531   1.608 -0.0512  0.1100 -0.8210
   35MOL   C11414462   2.910   0.514   1.685  0.3732  0.5271 -0.2946
   35MOL   C11514463   2.898   0.562   1.816 -0.3049 -0.1891  0.8625
   35MOL   C11614464   3.015   0.616   1.879  0.7210  0.2583 -0.5002
   35MOL   C11714465   3.437   0.663   2.193  0.1403 -0.5922 -0.0836
   35MOL   H11814466   3.392   0.582   2.004 -0.6617  1.2752 -0.9324
   35MOL   H11914467   3.327   0.840   1.988  3.2384 -3.4987  0.6939
   35MOL   H12014468   3.150   0.834   1.972  0.3332 -1.0377 -0.1297
   35MOL   H12114469   3.219   0.612   1.603  0.4937  1.5083  0.0871
   35MOL   H12214470   3.034   0.491   1.508 -1.5962  0.7374 -1.1807
   35MOL   H12314471   2.823   0.465   1.644  1.6374 -0.6907 -1.5937
   35MOL   H12414472   2.806   0.541   1.869 -2.2957 -0.1772 -2.4672
   35MOL   H12514473   3.004   0.656   1.979 -1.4661  0.2928 -0.7196
   35MOL   H12614474   3.395   0.638   2.291 -0.4715  0.5126 -0.0545
   35MOL   H12714475   3.439   0.772   2.193  2.4768 -0.6146 -0.6763
   35MOL   C12814476   3.589   0.636   2.175 -0.3713 -0.6251  0.7499
   35MOL   O12914477   3.615   0.497   2.220 -0.4010 -0.0522 -0.3972
   35MOL   C13014478   3.690   0.421   2.139 -0.2340 -0.0427  0.9104
   35MOL   O13114479   3.820   0.471   2.116  0.0651  0.1321 -0.6850
   35MOL   C13214480   3.922   0.430   2.205  0.3701 -0.1079 -1.4289
   35MOL   C13314481   4.054   0.449   2.159 -0.2332  0.6709 -0.2065
   35MOL   C13414482   4.156   0.400   2.238  0.1944 -0.0820 -0.1351
   35MOL   C13514483   4.135   0.339   2.360 -0.1472 -0.2138  0.5388
   35MOL   C13614484   4.006   0.326   2.414 -0.0965  0.8541 -0.7683
   35MOL   C13714485   3.901   0.382   2.342 -0.3359 -0.1778  0.4492
   35MOL   C13814486   3.686   0.739   2.236  0.4387 -0.9748 -0.1064
   35MOL   H13914487   3.591   0.637   2.066 -1.3649  0.1803  0.7334
   35MOL   H14014488   3.646   0.399   2.042 -2.1909  1.6184  1.3843
   35MOL   H14114489   3.692   0.323   2.187  3.5916 -1.1277 -1.2315
   35MOL   H14214490   4.068   0.491   2.061  0.9046  0.0085 -0.3457
   35MOL   H14314491   4.260   0.409   2.209  0.1363 -0.5930 -0.4934
   35MOL   H14414492   4.218   0.297   2.415 -1.1993 -2.2706  0.6000
   35MOL   H14514493   3.981   0.280   2.509 -0.6201  1.8917 -0.4002
   35MOL   H14614494   3.801   0.385   2.382 -0.5262  0.4737 -0.0699
   35MOL   H14714495   3.629   0.827   2.268  2.8859  0.5341  0.2910
   35MOL   H14814496   3.729   0.707   2.331  2.0289 -2.0603 -1.1773
   35MOL   C14914497   3.791   0.799   2.132 -0.2862 -0.2090  0.0313
   35MOL   O15014498   3.707   0.836   2.023  0.4373  0.6189 -0.6227
   35MOL   C15114499   3.784   0.876   1.912  0.0924 -0.2113 -0.5483
   35MOL   O15214500   3.711   0.864   1.794  0.2293 -0.0115 -0.0318
   35MOL   C15314501   3.691   0.737   1.747 -0.7462 -0.8869  0.1514
   35MOL   C15414502   3.588   0.725   1.649  0.6713 -0.0430 -0.6172
   35MOL   C15514503   3.544   0.604   1.601 -0.1003 -0.4195 -0.2787
   35MOL   C15614504   3.617   0.492   1.645 -0.5599 -0.2912 -0.3179
   35MOL   C15714505   3.726   0.499   1.729 -0.4779  0.2686 -0.5231
   35MOL   C15814506   3.765   0.625   1.784  0.0210  0.5505  0.5542
   35MOL   C15914507   3.859   0.926   2.205  0.9404 -0.6823  0.4365
   35MOL   H16014508   3.868   0.727   2.104  1.9093  1.1987  2.1652
   35MOL   H16114509   3.794   0.984   1.922  0.5536 -0.1881 -1.1906
   35MOL   H16214510   3.883   0.829   1.906  1.0126  1.4939  0.8024
   35MOL   H16314511   3.552   0.821   1.614  0.9309  0.2040 -0.2010
   35MOL   H16414512   3.454   0.591   1.542  0.9030 -1.0174 -1.7080
   35MOL   H16514513   3.593   0.395   1.604 -0.5344  0.3769 -1.9471
   35MOL   H16614514   3.772   0.411   1.772  0.6703  0.9953 -0.2394
   35MOL   H16714515   3.840   0.642   1.860  0.8745  3.5524 -0.8529
   35MOL   H16814516   3.778   0.990   2.239  1.2719  0.0309 -0.1049
   35MOL   H16914517   3.921   0.986   2.138  2.3431 -2.6093 -0.0727
   35MOL   C17014518   3.945   0.904   2.330 -0.3848 -0.0518 -0.8550
   35MOL   O17114519   3.859   0.867   2.442 -0.2422  0.8719  0.6437
   35MOL   C17214520   3.838   0.969   2.532 -0.1610  0.2462  0.0983
   35MOL   O17314521   3.756   1.069   2.476 -0.3415 -0.0737 -0.6445
   35MOL   C17414522   3.624   1.057   2.481  0.3759  0.2854 -0.4749
   35MOL   C17514523   3.557   0.931   2.509  0.8999 -0.1813 -0.1046
   35MOL   C17614524   3.416   0.937   2.494 -0.0270  0.0178 -0.7187
   35MOL   C17714525   3.345   1.058   2.466  0.4428 -0.4122  0.1188
   35MOL   C17814526   3.415   1.180   2.450  0.0312 -0.8009 -0.6505
   35MOL   C17914527   3.551   1.179   2.460 -0.1717  0.1031 -0.0508
   35MOL   C18014528   4.063   0.812   2.323 -0.8338  0.1105 -0.3782
   35MOL   H18114529   3.982   1.003   2.356 -0.1251 -1.1051  3.0710
   35MOL   H18214530   3.928   1.009   2.578 -1.0427 -0.3543  2.4231
   35MOL   H18314531   3.785   0.930   2.619  0.3657  0.7028  0.6271
   35MOL   H18414532   3.599   0.834   2.531 -1.2875 -0.5403  2.8542
   35MOL   H18514533   3.363   0.846   2.516  1.9074 -0.5603  1.7712
   35MOL   H18614534   3.239   1.057   2.447  0.6743 -1.6169 -1.1731
   35MOL   H18714535   3.368   1.273   2.420  2.5252  0.0744 -1.9783
   35MOL   H18814536   3.605   1.271   2.449  0.8337 -0.4905 -0.1165
   35MOL   H18914537   4.077   0.765   2.421 -1.8332 -3.2739 -1.7802
   35MOL   H19014538   4.046   0.720   2.267 -1.1250  0.8831 -1.5491
   35MOL   C19114539   4.192   0.874   2.279  0.2775  0.4854  0.5879
   35MOL   O19214540   4.178   0.847   2.135 -0.2654  0.2305  0.6835
   35MOL   C19314541   4.266   0.921   2.064  0.5736  0.1663  0.5071
   35MOL   O19414542   4.220   0.942   1.932 -0.0958  1.1698  0.2079
   35MOL   C19514543   4.148   1.051   1.906  0.1822  0.0359  0.6687
   35MOL   C19614544   4.078   1.140   2.001 -0.7999  0.3343  0.5499
   35MOL   C19714545   4.008   1.245   1.943 -0.1626 -0.0866 -0.5711
   35MOL   C19814546   4.002   1.275   1.805  0.6205 -0.3981 -0.5716
   35MOL   C19914547   4.074   1.194   1.717  0.1824 -0.4715  0.6048
   35MOL   C20014548   4.151   1.089   1.767 -0.0998  0.5473 -0.4332
   35MOL   C20114549   4.325   0.807   2.335 -0.1147  0.4977 -0.4212
   35MOL   H20214550   4.202   0.979   2.304  1.2897  0.7315 -0.8051
   35MOL   H20314551   4.359   0.864   2.066  1.1378  0.9989 -0.7840
   35MOL   H20414552   4.287   1.014   2.116  1.0351 -0.1395  0.8749
   35MOL   H20514553   4.072   1.121   2.107  0.9465 -1.8274  0.2973
   35MOL   H20614554   3.953   1.316   2.003 -1.5936  0.7968 -2.8536
   35MOL   H20714555   3.938   1.359   1.787  1.0866 -0.0311 -0.5341
   35MOL   H20814556   4.074   1.208   1.610  0.2907  0.6410  0.7480
   35MOL   H20914557   4.213   1.046   1.690  0.0381  0.2872 -0.1797
   35MOL   H21014558   4.296   0.778   2.436  2.7305 -1.7035 -0.1534
   35MOL   H21114559   4.338   0.705   2.299  1.8869  0.7602 -0.5222
   35MOL   C21214560   4.454   0.901   2.343 -0.4623  0.2206  0.1387
   35MOL   O21314561   4.434   0.988   2.453 -0.1615  0.3148  0.2071
   35MOL   C21414562   4.492   1.116   2.428  0.0338 -0.2668  0.5372
   35MOL   O21514563   4.433   1.181   2.319 -0.3036 -0.0887 -0.3051
   35MOL   C21614564   4.306   1.233   2.333  0.0500 -0.0126 -0.0774
   35MOL   C21714565   4.215   1.201   2.435  0.1048  0.0410 -0.9626
   35MOL   C21814566   4.082   1.253   2.436  0.4855  0.3723  0.2060
   35MOL   C21914567   4.040   1.344   2.346  0.3218 -0.3141  0.7352
   35MOL   C22014568   4.131   1.378   2.245  1.1718 -0.5876  0.1618
   35MOL   C22114569   4.258   1.317   2.230 -0.5211  1.0347  0.1602
   35MOL   C22214570   4.568   0.813   2.402 -0.4722 -0.5792  0.0550
   35MOL   H22314571   4.478   0.949   2.248 -1.0182 -1.8361 -1.0486
   35MOL   H22414572   4.598   1.116   2.402  0.0120  1.0758  0.4256
   35MOL   H22514573   4.482   1.178   2.517 -0.4883  1.1001 -0.4507
   35MOL   H22614574   4.239   1.129   2.511 -0.9048  1.4153  0.6941
   35MOL   H22714575   4.024   1.210   2.516  0.0388 -0.7608 -0.7041
   35MOL   H22814576   3.937   1.373   2.352 -0.8689 -3.7669 -1.4267
   35MOL   H22914577   4.105   1.452   2.170 -1.3975 -0.8808  0.7217
   35MOL   H23014578   4.327   1.338   2.150 -2.7743  2.5285 -1.4280
   35MOL   H23114579   4.640   0.880   2.449 -0.6613  1.0100 -1.8437
   35MOL   H23214580   4.524   0.743   2.473  1.3621 -0.9461  0.8344
   35MOL   C23314581   4.644   0.729   2.293 -0.3203  0.2765 -0.6334
   35MOL   O23414582   4.747   0.799   2.229 -0.2027 -0.0752 -0.1722
   35MOL   C23514583   4.785   0.758   2.103  0.3037 -0.0394  0.3160
   35MOL   O23614584   4.698   0.804   2.006 -0.3942  0.1397  0.1482
   35MOL   C23714585   4.682   0.941   1.990  0.7025  0.5746  0.6895
   35MOL   C23814586   4.567   0.975   1.916  0.4964 -0.7458  0.6192
   35MOL   C23914587   4.541   1.112   1.880  0.0293 -0.0160 -0.0268
   35MOL   C24014588   4.626   1.206   1.928  0.3941 -0.3157 -0.8816
   35MOL   C24114589   4.735   1.175   2.005  0.4506  0.5386 -0.2967
   35MOL   C24214590   4.764   1.045   2.042 -0.0184 -0.2780 -0.1143
   35MOL   C24314591   4.712   0.604   2.363 -0.4875 -0.9371 -0.6882
   35MOL   H24414592   4.580   0.693   2.212  0.4016 -1.6457 -0.3920
   35MOL   H24514593   4.795   0.649   2.099  1.8196  0.1360 -2.3776
   35MOL   H24614594   4.881   0.800   2.072 -0.1679  0.7442 -0.0955
   35MOL   H24714595   4.514   0.898   1.862  2.6999  1.3586 -4.8966
   35MOL   H24814596   4.462   1.144   1.813 -0.0457  0.7722  0.4401
   35MOL   H24914597   4.624   1.306   1.887  1.5197 -0.1517 -0.5643
   35MOL   H25014598   4.799   1.251   2.047  1.0108 -0.5915  0.9519
   35MOL   H25114599   4.846   1.041   2.112  0.2316 -0.0891 -0.3971
   35MOL   H25214600   4.788   0.563   2.297  0.3877 -0.0950 -0.2242
   35MOL   H25314601   4.766   0.635   2.452 -0.9327 -0.2595 -0.6453
   35MOL   C25414602   4.634   0.475   2.394 -0.3319  0.1546  0.4447
   35MOL   O25514603   4.656   0.375   2.295  0.0256 -0.0642  0.5526
   35MOL   C25614604   4.611   0.397   2.164 -0.2706 -0.0861  0.1740
   35MOL   O25714605   4.716   0.436   2.074  0.5550 -0.2341  0.3011
   35MOL   C25814606   4.821   0.348   2.049  0.5314 -0.1311  0.3629
   35MOL   C25914607   4.805   0.212   2.058 -0.0929  0.8843  0.0143
   35MOL   C26014608   4.905   0.124   2.024 -0.5029  0.1647  0.2699
   35MOL   C26114609   5.028   0.168   1.977 -0.0679 -0.1648  0.9756
   35MOL   C26214610   5.045   0.311   1.970 -0.0398  0.3579  1.1798
   35MOL   C26314611   4.939   0.399   1.995  0.2276  0.2014 -0.4729
   35MOL   C26414612   4.655   0.408   2.528  0.0721  0.2168  0.5180
   35MOL   H26514613   4.528   0.498   2.393 -0.5450 -0.7475  1.2733
   35MOL   H26614614   4.531   0.470   2.163  0.0805  0.3674  2.3852
   35MOL   H26714615   4.576   0.300   2.128  0.9501  0.2200 -1.8956
   35MOL   H26814616   4.714   0.159   2.081 -0.2891  1.0788 -0.3150
   35MOL   H26914617   4.896   0.018   2.038 -0.0043  0.5838  4.3237
   35MOL   H27014618   5.104   0.101   1.939 -1.0597  0.2324 -1.8677
   35MOL   H27114619   5.139   0.349   1.932 -0.5179 -0.1037 -0.4932
   35MOL   H27214620   4.949   0.506   1.993  0.4896  0.2290  1.3653
   35MOL   H27314621   4.629   0.304   2.507  0.1031  0.1788  0.6722
   35MOL   H27414622   4.759   0.400   2.558 -0.0128 -1.0244  0.5013
   35MOL   C27514623   4.564   0.463   2.642  0.2239  0.2697  0.4276
   35MOL   O27614624   4.528   0.357   2.724  0.0881  0.8678 -0.0811
   35MOL   C27714625   4.418   0.277   2.679 -0.0022  0.3690 -0.1610
   35MOL   O27814626   4.294   0.340   2.687  0.2323 -0.1066  0.4205
   35MOL   C27914627   4.250   0.381   2.812  0.1655  0.5141  0.3859
   35MOL   C28014628   4.123   0.445   2.814 -0.1585 -0.3963 -0.4331
   35MOL   C28114629   4.054   0.486   2.935 -0.0421 -0.3779 -0.2854
   35MOL   C28214630   4.125   0.474   3.059 -0.1394 -0.4629 -0.3839
   35MOL   C28314631   4.254   0.418   3.061 -0.6717  0.4822 -1.1896
   35MOL   C28414632   4.317   0.379   2.938  0.1744  0.7930  0.4405
   35MOL   C28514633   4.617   0.578   2.731 -0.0110  0.3980  0.1482
   35MOL   H28614634   4.470   0.501   2.603 -0.6635 -2.7057 -0.4988
   35MOL   H28714635   4.405   0.188   2.741  1.1141 -1.1739 -2.0618
   35MOL   H28814636   4.430   0.254   2.573  0.5035  1.1008 -0.2682
   35MOL   H28914637   4.080   0.473   2.719  0.6492 -1.2361 -1.0526
   35MOL   H29014638   3.953   0.523   2.936 -0.0746 -0.4623  1.3866
   35MOL   H29114639   4.072   0.509   3.147 -1.5859  0.1768 -1.4845
   35MOL   H29214640   4.303   0.418   3.157 -2.5554  0.0230 -0.1951
   35MOL   H29314641   4.422   0.358   2.948  0.2305  1.6732  1.8738
   35MOL   H29414642   4.666   0.651   2.667 -1.0608  0.5827 -0.4488
   35MOL   H29514643   4.693   0.534   2.796  1.3761  0.8180 -1.1597
   35MOL   C29614644   4.522   0.653   2.822 -0.1607 -0.6527 -0.1242
   35MOL   O29714645   4.611   0.733   2.904  0.6152 -0.5356 -0.5917
   35MOL   C29814646   4.630   0.697   3.040  0.9241 -0.9752  0.0611
   35MOL   O29914647   4.686   0.566   3.048 -0.1874  0.7445 -0.0226
   35MOL   C30014648   4.753   0.537   3.169 -0.1266 -0.0623 -0.4466
   35MOL   C30114649   4.751   0.408   3.217 -0.0793  0.5634  0.5211
   35MOL   C30214650   4.830   0.366   3.328 -0.3246 -0.5155 -0.2610
   35MOL   C30314651   4.907   0.460   3.395  0.6418 -0.6150 -1.0541
   35MOL   C30414652   4.906   0.598   3.349 -0.3629  0.3437  0.1016
   35MOL   C30514653   4.835   0.632   3.233 -0.5594 -0.3913  0.1200
   35MOL   C30614654   4.427   0.747   2.747  0.0489  0.4129  0.3039
   35MOL   H30714655   4.464   0.580   2.878  1.9850 -0.9668  1.7976
   35MOL   H30814656   4.545   0.708   3.108  1.4349  0.6798  0.4558
   35MOL   H30914657   4.699   0.778   3.065 -1.5921  2.2119 -2.8981
   35MOL   H31014658   4.685   0.339   3.166 -2.2902  1.7130  1.7358
   35MOL   H31114659   4.824   0.260   3.352  4.4331 -1.0647 -0.9614
   35MOL   H31214660   4.968   0.428   3.478  0.5124  0.2453 -0.6255
   35MOL   H31314661   4.966   0.676   3.393  0.9261  0.0440 -1.0971
   35MOL   H31414662   4.856   0.731   3.193  0.6518  0.7146  3.3100
   35MOL   H31514663   4.374   0.682   2.678  0.7745 -0.2756  0.3853
   35MOL   H31614664   4.484   0.821   2.691  1.9046 -0.3853  1.1108
   35MOL   C31714665   4.318   0.820   2.828  0.0741  0.3497 -0.1256
   35MOL   O31814666   4.221   0.871   2.740 -0.0443  0.2479  1.1078
   35MOL   C31914667   4.105   0.793   2.730 -0.5601 -0.0160  0.0111
   35MOL   O32014668   4.029   0.805   2.847  0.3126 -0.1787  0.1020
   35MOL   C32114669   3.901   0.761   2.848 -0.2762  0.2540  0.4604
   35MOL   C32214670   3.837   0.690   2.748  0.2272  0.4479 -0.2052
   35MOL   C32314671   3.706   0.637   2.771 -0.0468 -0.0974  0.7500
   35MOL   C32414672   3.643   0.655   2.898  0.1447 -0.2631  0.9276
   35MOL   C32514673   3.704   0.729   3.001 -0.7810 -0.1943  0.3577
   35MOL   C32614674   3.838   0.783   2.973 -0.6952  0.8538 -0.1070
   35MOL   C32714675   4.365   0.943   2.902  0.1119 -0.0030 -0.1433
   35MOL   H32814676   4.282   0.751   2.905  0.0589  0.7613  0.2332
   35MOL   H32914677   4.130   0.688   2.717 -0.8538 -0.1805  0.7405
   35MOL   H33014678   4.045   0.821   2.644 -1.4693 -1.4069  0.1801
   35MOL   H33114679   3.888   0.684   2.652 -0.6009  3.5537 -0.8776
   35MOL   H33214680   3.650   0.602   2.685  0.4234  0.9428  0.0123
   35MOL   H33314681   3.552   0.603   2.926 -0.0244 -0.2766  0.3543
   35MOL   H33414682   3.652   0.745   3.094 -1.0208 -0.3563  0.2511
   35MOL   H33514683   3.892   0.837   3.050 -0.6127 -0.0681  0.4861
   35MOL   H33614684   4.470   0.930   2.930 -0.1535  1.8997  1.8221
   35MOL   H33714685   4.359   1.031   2.838 -0.6710  0.4761  0.5895
   35MOL   C33814686   4.283   0.981   3.029 -0.2602 -0.0364  0.1193
   35MOL   O33914687   4.317   0.868   3.112 -0.4091  0.2914  0.5943
   35MOL   C34014688   4.211   0.812   3.165 -0.4362 -0.3743 -0.2624
   35MOL   O34114689   4.258   0.695   3.227  0.4071 -0.4255 -0.3314
   35MOL   C34214690   4.341   0.708   3.336 -1.4027  0.1769  0.5689
   35MOL   C34314691   4.343   0.817   3.422 -0.2817 -0.7079  0.2612
   35MOL   C34414692   4.437   0.824   3.518 -0.5164  0.4903  0.1167
   35MOL   C34514693   4.528   0.722   3.544  0.2085  0.1736 -0.3972
   35MOL   C34614694   4.525   0.609   3.467  0.0275 -0.1924 -0.2568
   35MOL   C34714695   4.436   0.601   3.353  0.1518 -0.1305  0.3426
   35MOL   C34814696   4.305   1.115   3.102 -0.0212 -0.2556 -0.1961
   35MOL   H34914697   4.178   0.967   3.003 -0.5841 -0.4266  1.5577
   35MOL   H35014698   4.144   0.776   3.087  1.3775  1.8466 -2.9451
   35MOL   H35114699   4.158   0.881   3.231  0.4261  1.0435 -1.0420
   35MOL   H35214700   4.271   0.898   3.421 -1.6365 -1.8758  0.8125
   35MOL   H35314701   4.437   0.912   3.582  0.9282  2.1630 -2.1171
   35MOL   H35414702   4.601   0.732   3.623  0.9297 -0.5532 -0.9675
   35MOL   H35514703   4.592   0.527   3.487 -0.3843  0.0582  2.3099
   35MOL   H35614704   4.444   0.510   3.295 -2.3126 -0.6505  0.7675
   35MOL   H35714705   4.321   1.194   3.029  1.1555 -0.7557 -0.4850
   35MOL   H35814706   4.394   1.097   3.162  1.0681  0.3014 -1.6219
   35MOL   C35914707   4.198   1.146   3.205 -0.5547 -0.1394 -0.6055
   35MOL   O36014708   4.067   1.140   3.132 -0.5987 -0.6406 -0.0428
   35MOL   C36114709   3.959   1.112   3.206 -1.0113 -0.2211 -0.4651
   35MOL   O36214710   3.971   0.997   3.285 -0.0152 -0.2141  0.1495
   35MOL   C36314711   3.851   0.934   3.319  0.2653  0.2482 -0.3325
   35MOL   C36414712   3.718   0.998   3.325 -1.2173  0.1883  0.3952
   35MOL   C36514713   3.607   0.913   3.348 -0.2644  0.4400  1.0874
   35MOL   C36614714   3.625   0.774   3.362  0.2334 -0.0863 -0.0250
   35MOL   C36714715   3.756   0.720   3.362  0.2368 -0.3941  0.1562
   35MOL   C36814716   3.867   0.796   3.351  0.5312 -0.3967 -0.3180
   35MOL   C36914717   4.211   1.299   3.245 -0.0247  0.1685  0.0947
   35MOL   H37014718   4.206   1.072   3.285 -1.6110 -0.6933 -0.9977
   35MOL   H37114719   3.877   1.120   3.135  0.1292  0.1313 -1.7588
   35MOL   H37214720   3.945   1.193   3.277  0.7758  0.6335 -1.0727
   35MOL   H37314721   3.709   1.105   3.327  0.8186  0.3786  1.0899
   35MOL   H37414722   3.508   0.953   3.360 -0.0849  0.9150  1.0163
   35MOL   H37514723   3.534   0.717   3.371 -0.1680  0.4651 -0.5644
   35MOL   H37614724   3.770   0.613   3.367  1.9284 -0.1983 -0.2198
   35MOL   H37714725   3.960   0.740   3.351  0.1874 -0.9729 -0.2138
   35MOL   H37814726   4.117   1.318   3.296 -0.6299  1.3116 -1.4036
   35MOL   H37914727   4.215   1.374   3.166 -0.7158 -0.7474 -0.8159
   35MOL   C38014728   4.328   1.329   3.343  0.1968  0.4010  0.2095
   35MOL   O38114729   4.286   1.410   3.452 -0.0838  0.2153  0.1664
   35MOL   C38214730   4.271   1.332   3.573 -0.5340 -0.3898  0.2154
   35MOL   O38314731   4.186   1.229   3.559 -0.0413  0.2905 -0.7524
   35MOL   C38414732   4.049   1.256   3.570  0.4471  0.2295 -0.2657
   35MOL   C38514733   3.996   1.385   3.557 -0.3223  0.0341  0.4835
   35MOL   C38614734   3.861   1.411   3.577  0.0713  0.3302 -0.5641
   35MOL   C38714735   3.767   1.304   3.594 -0.1411 -0.7666  0.7269
   35MOL   C38814736   3.819   1.177   3.608 -0.2535  0.3532  0.2585
   35MOL   C38914737   3.957   1.154   3.599 -0.2163  0.0794 -0.0822
   35MOL   C39014738   4.449   1.400   3.273 -0.1724 -0.2471  0.5714
   35MOL   H39114739   4.357   1.228   3.371  1.5092 -0.1319 -2.8568
   35MOL   H39214740   4.370   1.290   3.590 -1.5249 -1.7182  2.8841
   35MOL   H39314741   4.253   1.397   3.658  1.8105  0.2129  0.2687
   35MOL   H39414742   4.056   1.470   3.529  1.2634 -1.8814 -2.2118
   35MOL   H39514743   3.818   1.507   3.555  1.0186  0.5599 -1.4333
   35MOL   H39614744   3.663   1.325   3.576  0.8454  1.8122 -2.4824
   35MOL   H39714745   3.764   1.088   3.633  1.4971 -0.6888  0.5175
   35MOL   H39814746   3.984   1.050   3.601  0.1555  0.1833  0.3655
   35MOL   H39914747   4.410   1.485   3.217 -0.6995 -1.2752 -0.6370
   35MOL   H40014748   4.485   1.337   3.192 -1.1103  0.5880 -0.5177
   35MOL   C40114749   4.568   1.445   3.363 -0.6824 -0.1432  1.0770
   35MOL   O40214750   4.523   1.540   3.450 -0.7460 -0.1840  0.7030
   35MOL   C40314751   4.485   1.665   3.407 -0.2590  0.3906  0.1256
   35MOL   O40414752   4.554   1.708   3.294  0.2563  0.4622  0.4641
   35MOL   C40514753   4.522   1.835   3.249 -0.0480 -0.4188 -0.2592
   35MOL   C40614754   4.483   1.849   3.111  1.0087  0.4030  0.4245
   35MOL   C40714755   4.452   1.980   3.067 -1.0144  0.5636  0.3752
   35MOL   C40814756   4.469   2.090   3.154  0.3592 -0.6038  0.1587
   35MOL   C40914757   4.519   2.078   3.282  0.3361 -0.5604  0.7405
   35MOL   C41014758   4.539   1.948   3.333 -0.7604 -0.6434  0.4146
   35MOL   C41114759   4.640   1.337   3.445  0.1842  0.1753  0.3313
   35MOL   H41214760   4.644   1.480   3.292 -1.4298  2.5041  1.5064
   35MOL   H41314761   4.493   1.733   3.491 -2.4125  2.7092 -1.4745
   35MOL   H41414762   4.379   1.657   3.384  0.0388 -1.7117 -0.6391
   35MOL   H41514763   4.473   1.764   3.045 -1.4594  0.0739  1.1589
   35MOL   H41614764   4.415   1.985   2.966 -0.6925  0.2868  0.2444
   35MOL   H41714765   4.437   2.186   3.116  0.8540 -1.2578 -2.0280
   35MOL   H41814766   4.532   2.172   3.334 -1.5741  1.2271 -1.8638
   35MOL   H41914767   4.566   1.945   3.438  1.4927 -1.6767 -0.1721
   35MOL   H42014768   4.572   1.280   3.508 -0.3422  1.2977  0.7896
   35MOL   H42114769   4.716   1.379   3.511 -0.4848  0.7956  0.7239
   35MOL   H42214770   4.700   1.276   3.378  0.4581  0.6289  0.1601
   36MOL     C114771   2.739   6.616   3.296  0.1536 -0.6838 -0.4251
   36MOL     O214772   2.852   6.585   3.223 -0.3815  0.3652 -0.0282
   36MOL     C314773   2.883   6.453   3.217  0.4527  0.3113  0.5698
   36MOL     O414774   2.786   6.380   3.148 -0.3579  0.0997 -0.3728
   36MOL     C514775   2.796   6.245   3.116  0.1213  0.4227 -0.3436
   36MOL     C614776   2.903   6.157   3.169  0.2337 -0.1465  0.1115
   36MOL     C714777   2.904   6.021   3.139 -0.0982 -0.4065 -0.2164
   36MOL     C814778   2.806   5.968   3.051 -0.4562  0.3768 -0.4530
   36MOL     C914779   2.706   6.049   2.998 -0.9085  0.0910  0.4937
   36MOL    C1014780   2.704   6.186   3.029  0.1462  0.2338  0.0934
   36MOL    C1114781   2.729   6.760   3.323 -0.3341  0.5279  0.3167
   36MOL    H1214782   2.646   6.592   3.244 -0.4703 -0.5887  0.6306
   36MOL    H1314783   2.972   6.450   3.154 -0.0987  2.5296 -0.3600
   36MOL    H1414784   2.902   6.414   3.317  0.4226  0.0967  0.4920
   36MOL    H1514785   2.988   6.203   3.216  0.4832  1.9285 -2.2763
   36MOL    H1614786   2.979   5.955   3.177 -0.7048  0.3515  2.4076
   36MOL    H1714787   2.808   5.863   3.027  0.7801  0.1287  0.6763
   36MOL    H1814788   2.635   6.015   2.925 -0.4211 -2.3014  1.0988
   36MOL    H1914789   2.621   6.244   2.991  1.2356  2.3159  0.7723
   36MOL    H2014790   2.702   6.813   3.232 -0.7363  0.8942  0.6435
   36MOL    H2114791   2.830   6.795   3.341 -1.1535  1.9821  2.2920
   36MOL    H2214792   2.733   6.551   3.384  0.6362 -0.6121 -0.3358
   36MOL    C2314793   2.647   6.800   3.448  0.1733 -0.0055  0.7181
   36MOL    O2414794   2.508   6.761   3.436  0.4877  0.5345 -0.5525
   36MOL    C2514795   2.450   6.717   3.553  0.5013  0.0454 -0.1918
   36MOL    O2614796   2.485   6.584   3.586 -0.8734  0.1555  0.8207
   36MOL    C2714797   2.475   6.553   3.722  0.4757  0.0287  0.2585
   36MOL    C2814798   2.405   6.630   3.820 -0.8743 -0.5912  0.5419
   36MOL    C2914799   2.398   6.576   3.954  0.1025 -0.1159  0.2837
   36MOL    C3014800   2.453   6.449   3.985  0.2203 -0.2326  0.3005
   36MOL    C3114801   2.523   6.378   3.888  0.1188  0.4448  0.0569
   36MOL    C3214802   2.536   6.431   3.757 -0.7082  0.2444 -0.0483
   36MOL    C3314803   2.666   6.948   3.468 -0.5865  0.2134 -0.7735
   36MOL    H3414804   2.694   6.737   3.523  1.4341  0.6488  0.4819
   36MOL    H3514805   2.342   6.729   3.546  0.1748 -1.9006  1.1706
   36MOL    H3614806   2.485   6.787   3.629 -0.9147 -0.6592  1.1357
   36MOL    H3714807   2.347   6.719   3.799 -0.6579 -1.0686 -2.1572
   36MOL    H3814808   2.352   6.632   4.034  1.0912  1.9061 -0.5144
   36MOL    H3914809   2.437   6.419   4.087 -0.6781  0.3411  0.3343
   36MOL    H4014810   2.567   6.282   3.911 -0.4311  0.1958  0.0796
   36MOL    H4114811   2.583   6.368   3.683  2.3623  1.6516  0.6663
   36MOL    H4214812   2.587   7.007   3.422 -0.4665 -1.0208 -2.5921
   36MOL    H4314813   2.747   6.980   3.402  1.3767  0.7046  1.7650
   36MOL    C4414814   2.697   6.985   3.611  0.2054 -0.8087  0.0951
   36MOL    O4514815   2.644   7.114   3.641 -0.6506  0.3521  0.3294
   36MOL    C4614816   2.511   7.118   3.686  0.2014 -0.5546 -0.2683
   36MOL    O4714817   2.485   7.031   3.794 -0.5107  0.4041  0.1085
   36MOL    C4814818   2.525   7.068   3.925 -0.1491  0.4454 -0.3704
   36MOL    C4914819   2.620   7.163   3.963  0.2312  0.1296  0.7996
   36MOL    C5014820   2.645   7.190   4.103  0.0093 -0.5017 -0.0873
   36MOL    C5114821   2.575   7.106   4.196 -0.2615 -0.1484  0.3427
   36MOL    C5214822   2.482   7.008   4.161 -0.4387  0.1126  0.1895
   36MOL    C5314823   2.458   6.989   4.025  0.5627 -0.7927 -0.1520
   36MOL    C5414824   2.841   7.024   3.649  0.3638  1.1259 -0.1069
   36MOL    H5514825   2.672   6.898   3.672  0.5758 -1.0034 -0.0286
   36MOL    H5614826   2.440   7.094   3.607 -0.1974 -2.1576  0.5690
   36MOL    H5714827   2.492   7.216   3.730  0.6801  0.9158 -3.1733
   36MOL    H5814828   2.673   7.207   3.880  0.7225  0.1202  1.1054
   36MOL    H5914829   2.717   7.263   4.136 -2.2961  1.2733  1.1967
   36MOL    H6014830   2.597   7.100   4.302 -0.8524 -1.4854  0.4049
   36MOL    H6114831   2.424   6.959   4.237 -2.1961  3.7950  1.3450
   36MOL    H6214832   2.387   6.918   3.986  1.0098 -2.0606  1.2856
   36MOL    H6314833   2.865   7.122   3.608 -0.5850  0.9695 -1.0541
   36MOL    H6414834   2.835   7.044   3.756 -0.0214  1.8218 -0.2575
   36MOL    C6514835   2.954   6.928   3.627  0.1155 -0.9411  0.0694
   36MOL    O6614836   3.083   6.987   3.625 -0.2521  0.4424 -0.4193
   36MOL    C6714837   3.131   7.032   3.505  0.0885  0.1615 -0.5926
   36MOL    O6814838   3.190   6.930   3.428  0.0253  0.5268 -0.2682
   36MOL    C6914839   3.160   6.920   3.296  0.3133  0.4229  0.2602
   36MOL    C7014840   3.245   6.829   3.230  0.7198  0.2076  0.0273
   36MOL    C7114841   3.228   6.815   3.091  0.4722 -0.9058  0.1691
   36MOL    C7214842   3.125   6.883   3.018  0.5439  0.3652 -0.0834
   36MOL    C7314843   3.040   6.971   3.091 -0.0874  0.0911  0.0654
   36MOL    C7414844   3.057   6.986   3.224  0.1965 -0.0133 -0.4516
   36MOL    C7514845   2.957   6.819   3.727  0.7559  0.0337 -0.8748
   36MOL    H7614846   2.934   6.888   3.528 -0.8370 -0.3501  0.0190
   36MOL    H7714847   3.210   7.103   3.525  2.3594 -2.5970  0.5742
   36MOL    H7814848   3.058   7.101   3.461 -0.2134  0.4881  0.4222
   36MOL    H7914849   3.326   6.773   3.276  0.4016  0.8992  1.4639
   36MOL    H8014850   3.291   6.748   3.034  2.2960  0.5171  0.4570
   36MOL    H8114851   3.107   6.853   2.916 -3.2425 -0.6091  0.7802
   36MOL    H8214852   2.950   7.008   3.044  0.1648  1.0992  0.3596
   36MOL    H8314853   2.982   7.042   3.278 -0.1214  0.3808 -1.2897
   36MOL    H8414854   2.987   6.860   3.824  1.8178 -0.4887 -0.9768
   36MOL    H8514855   2.854   6.787   3.742  0.5499  0.7136 -0.8142
   36MOL    C8614856   3.038   6.689   3.694  0.0466  0.1913  0.6066
   36MOL    O8714857   3.031   6.607   3.809 -0.2352 -0.0061  0.0918
   36MOL    C8814858   3.135   6.628   3.898  0.3069  0.1163  0.1192
   36MOL    O8914859   3.257   6.588   3.837 -0.0947  0.8719  0.5512
   36MOL    C9014860   3.301   6.462   3.840 -0.6523  0.1806 -0.0459
   36MOL    C9114861   3.404   6.428   3.749  0.4014  0.0271 -0.0647
   36MOL    C9214862   3.461   6.301   3.744  0.0978  0.0613 -0.6624
   36MOL    C9314863   3.397   6.195   3.819  0.9477 -0.2134  0.3543
   36MOL    C9414864   3.290   6.226   3.903  0.2434 -0.6015 -0.1473
   36MOL    C9514865   3.240   6.357   3.916  0.7014  0.3262  0.3494
   36MOL    C9614866   2.988   6.600   3.576  0.0279 -0.5995  0.7728
   36MOL    H9714867   3.142   6.716   3.672 -0.4066 -1.1455 -3.5905
   36MOL    H9814868   3.108   6.583   3.993 -0.1689 -0.2536 -0.1857
   36MOL    H9914869   3.151   6.734   3.921 -0.3755  0.3426 -0.4179
   36MOL   H10014870   3.445   6.514   3.699 -0.3299 -0.5940 -1.7546
   36MOL   H10114871   3.551   6.286   3.687  0.9315 -1.5499  1.0197
   36MOL   H10214872   3.436   6.094   3.817  1.4829 -0.0104  0.6016
   36MOL   H10314873   3.242   6.150   3.963  0.3131 -0.8410 -0.3929
   36MOL   H10414874   3.160   6.377   3.986  1.4949  0.6954  1.1540
   36MOL   H10514875   2.898   6.556   3.618 -2.6184  2.0942 -1.7192
   36MOL   H10614876   2.954   6.656   3.488  0.6761  1.7839  1.9807
   36MOL   C10714877   3.096   6.501   3.539 -0.1370 -0.6975 -0.3735
   36MOL   O10814878   3.037   6.375   3.520 -0.0997 -0.4686  0.3029
   36MOL   C10914879   2.999   6.293   3.626 -0.3226  0.2374 -0.4365
   36MOL   O11014880   2.927   6.180   3.583  0.0965 -0.0459  0.2692
   36MOL   C11114881   2.993   6.076   3.521  0.4743 -0.2706 -0.1020
   36MOL   C11214882   3.131   6.069   3.494  0.1858 -0.2679 -0.1020
   36MOL   C11314883   3.186   5.959   3.424 -0.1445  0.5210 -0.3961
   36MOL   C11414884   3.100   5.853   3.394 -1.3470 -0.2150  0.4683
   36MOL   C11514885   2.966   5.850   3.433 -0.1857  0.2004  0.0249
   36MOL   C11614886   2.906   5.968   3.483 -0.4223 -0.4215  0.0723
   36MOL   C11714887   3.176   6.549   3.416 -0.4638  0.0833 -0.0025
   36MOL   H11814888   3.161   6.500   3.626  0.2257  1.7441 -0.5721
   36MOL   H11914889   2.920   6.340   3.686  0.5423 -0.2133  1.0911
   36MOL   H12014890   3.090   6.269   3.681 -0.5176  2.3790  0.8849
   36MOL   H12114891   3.192   6.151   3.529  1.4204 -1.0129 -0.4601
   36MOL   H12214892   3.292   5.944   3.408 -0.4124 -1.1596 -0.7006
   36MOL   H12314893   3.127   5.766   3.335  0.4375  0.2925  0.5065
   36MOL   H12414894   2.893   5.779   3.396  2.3862 -2.0855 -0.8041
   36MOL   H12514895   2.799   5.982   3.493 -0.1468  1.9676 -0.1724
   36MOL   H12614896   3.206   6.653   3.428 -2.2851  1.2008 -4.1403
   36MOL   H12714897   3.110   6.549   3.329 -0.9325 -0.0360  0.3533
   36MOL   C12814898   3.302   6.472   3.381  0.0310  0.3780 -0.3906
   36MOL   O12914899   3.400   6.547   3.308 -0.1115  0.3690 -0.1030
   36MOL   C13014900   3.491   6.623   3.383 -0.3752 -0.1029  0.2547
   36MOL   O13114901   3.566   6.541   3.471  0.1176 -0.0334 -0.1255
   36MOL   C13214902   3.678   6.479   3.421  0.5673  0.2912  0.4509
   36MOL   C13314903   3.709   6.456   3.286  0.2018 -0.3025  0.7234
   36MOL   C13414904   3.832   6.399   3.243  0.4988  0.1909 -1.1233
   36MOL   C13514905   3.934   6.376   3.338  0.2200  0.1687 -0.9837
   36MOL   C13614906   3.908   6.388   3.475 -1.0425 -0.0384  0.1860
   36MOL   C13714907   3.778   6.440   3.510  0.0996  0.3455  0.1986
   36MOL   C13814908   3.256   6.343   3.303  0.3993  0.5677 -0.5070
   36MOL   H13914909   3.337   6.439   3.479 -0.6388  2.8981  0.7206
   36MOL   H14014910   3.430   6.690   3.444 -1.2771 -0.6952  0.0120
   36MOL   H14114911   3.551   6.682   3.313 -2.3976 -1.6596 -2.8859
   36MOL   H14214912   3.638   6.469   3.207  0.8881 -0.8192  0.0125
   36MOL   H14314913   3.849   6.365   3.142 -1.7626 -1.6145 -0.9600
   36MOL   H14414914   4.029   6.329   3.314 -0.0605  0.1567 -2.1147
   36MOL   H14514915   3.981   6.362   3.550 -1.0244  1.8678  0.8546
   36MOL   H14614916   3.756   6.449   3.615 -1.2051 -2.1643  0.1537
   36MOL   H14714917   3.183   6.279   3.351  2.3466 -1.3635 -0.0347
   36MOL   H14814918   3.205   6.365   3.209  0.8368  3.0530 -0.1991
   36MOL   C14914919   3.369   6.255   3.264  0.0010  0.0712 -0.6409
   36MOL   O15014920   3.413   6.175   3.379  0.3200 -0.0950  0.3278
   36MOL   C15114921   3.545   6.131   3.386 -0.0565 -0.3576  0.2487
   36MOL   O15214922   3.551   6.007   3.324  0.0362  0.6621 -0.7009
   36MOL   C15314923   3.558   5.900   3.405  0.4395 -0.3375  0.2714
   36MOL   C15414924   3.512   5.901   3.541  0.1809  0.4110 -0.0119
   36MOL   C15514925   3.532   5.789   3.614  0.3978  0.1647  0.3887
   36MOL   C15614926   3.600   5.677   3.566 -0.8886 -0.2375  0.2218
   36MOL   C15714927   3.623   5.666   3.430 -0.2557  0.1414  0.4543
   36MOL   C15814928   3.607   5.780   3.344 -0.0902  0.5393 -0.5880
   36MOL   C15914929   3.341   6.159   3.150 -0.2991 -0.7847  0.5961
   36MOL   H16014930   3.447   6.320   3.226  0.2429  0.7297  0.9452
   36MOL   H16114931   3.609   6.201   3.333  0.8673 -3.9215 -3.6030
   36MOL   H16214932   3.574   6.137   3.490  1.3688 -1.0671 -0.0959
   36MOL   H16314933   3.465   5.986   3.586 -3.0945 -1.1132 -0.4195
   36MOL   H16414934   3.493   5.787   3.715 -0.2734 -2.6798  0.0955
   36MOL   H16514935   3.628   5.598   3.634  2.1757  1.1259  0.6651
   36MOL   H16614936   3.666   5.581   3.379 -0.8967  0.5833 -0.8602
   36MOL   H16714937   3.648   5.779   3.244 -0.7997 -1.6751 -0.8960
   36MOL   H16814938   3.270   6.082   3.178 -0.6215 -0.8847 -0.4819
   36MOL   H16914939   3.428   6.094   3.139  1.2689  1.3910 -0.1907
   36MOL   C17014940   3.309   6.205   3.008  0.7275  0.7087  0.6945
   36MOL   O17114941   3.403   6.299   2.963 -0.0157  0.5937 -0.3084
   36MOL   C17214942   3.371   6.434   2.969  0.2440  0.4670 -0.2046
   36MOL   O17314943   3.262   6.475   2.893  0.0876  0.0714 -0.0085
   36MOL   C17414944   3.262   6.471   2.755 -0.0048 -0.3245 -0.4415
   36MOL   C17514945   3.162   6.540   2.676 -0.1173 -0.1120 -0.5400
   36MOL   C17614946   3.161   6.540   2.537 -0.3810 -0.0954 -0.7642
   36MOL   C17714947   3.269   6.473   2.469 -0.2110  0.5117  0.2615
   36MOL   C17814948   3.376   6.415   2.542 -0.2743 -0.0999 -0.4138
   36MOL   C17914949   3.368   6.412   2.677  0.9406  0.1482  0.0588
   36MOL   C18014950   3.307   6.087   2.906 -0.4020  0.0376  0.1826
   36MOL   H18114951   3.210   6.251   3.006  0.6755  0.5163 -2.2093
   36MOL   H18214952   3.461   6.488   2.938  1.0273  0.0672  1.2898
   36MOL   H18314953   3.347   6.467   3.071  2.5320  0.2447  0.4307
   36MOL   H18414954   3.077   6.588   2.722 -1.4890 -1.5962 -1.4576
   36MOL   H18514955   3.090   6.596   2.479 -2.4349  0.6085  2.2907
   36MOL   H18614956   3.270   6.468   2.361 -0.4703 -1.5185  0.3478
   36MOL   H18714957   3.452   6.363   2.485 -1.4400 -1.8482 -0.4469
   36MOL   H18814958   3.451   6.370   2.733  1.1806  0.4953 -0.0325
   36MOL   H18914959   3.272   6.132   2.814  0.2692  1.4444  0.6066
   36MOL   H19014960   3.410   6.052   2.896 -0.4706  0.3973 -2.1402
   36MOL   C19114961   3.221   5.972   2.937  0.0393  0.0330  0.3526
   36MOL   O19214962   3.308   5.891   3.023  0.1390  0.2592  0.9194
   36MOL   C19314963   3.241   5.788   3.090 -0.0309  0.3395  0.3699
   36MOL   O19414964   3.227   5.680   3.004 -0.1348  0.3174 -0.3013
   36MOL   C19514965   3.337   5.598   2.988  0.5550 -0.1562  0.1755
   36MOL   C19614966   3.322   5.475   2.914 -0.4166  0.0823 -0.7832
   36MOL   C19714967   3.428   5.382   2.898  0.2821 -0.9203  0.0355
   36MOL   C19814968   3.555   5.410   2.955  0.7965  0.4418 -0.2992
   36MOL   C19914969   3.578   5.543   3.010 -0.1070  0.2825 -0.0327
   36MOL   C20014970   3.470   5.631   3.028  0.3466  1.2059  0.2232
   36MOL   C20114971   3.156   5.906   2.815  0.1551 -0.2240 -0.1550
   36MOL   H20214972   3.136   6.001   2.999  0.4793  1.0093  0.5213
   36MOL   H20314973   3.143   5.823   3.123 -0.5642 -1.0122  0.2518
   36MOL   H20414974   3.307   5.770   3.175  0.3899 -2.1601 -0.4295
   36MOL   H20514975   3.223   5.451   2.879 -1.4026  1.7025  0.7629
   36MOL   H20614976   3.409   5.284   2.856 -2.2661 -0.4450 -0.0149
   36MOL   H20714977   3.636   5.339   2.944 -0.8327 -1.8118  1.7468
   36MOL   H20814978   3.676   5.572   3.047 -0.0359 -0.0662  0.0558
   36MOL   H20914979   3.491   5.717   3.090 -0.0341 -0.3621  2.6413
   36MOL   H21014980   3.228   5.902   2.734 -0.2574  3.2566 -0.7566
   36MOL   H21114981   3.113   5.808   2.837 -0.2270 -0.2796 -1.0969
   36MOL   C21214982   3.035   5.979   2.752  0.5169 -0.7478 -0.3759
   36MOL   O21314983   3.066   6.117   2.717 -0.2149 -0.3890 -0.2453
   36MOL   C21414984   2.960   6.206   2.737  0.0055 -0.1678  0.2025
   36MOL   O21514985   2.859   6.192   2.642 -0.0995  0.3012 -0.5803
   36MOL   C21614986   2.888   6.213   2.505  0.3588  0.7409  0.2113
   36MOL   C21714987   2.776   6.202   2.417  0.2434  0.2429 -0.1773
   36MOL   C21814988   2.806   6.208   2.276  0.5395 -0.3312 -0.0985
   36MOL   C21914989   2.930   6.228   2.224  0.5807 -0.3614 -0.0253
   36MOL   C22014990   3.044   6.237   2.311 -0.2760  0.3688 -0.0696
   36MOL   C22114991   3.019   6.228   2.451  0.2304  0.2069 -0.8898
   36MOL   C22214992   2.973   5.906   2.628 -0.1582  0.3943  0.3633
   36MOL   H22314993   2.957   5.974   2.828 -0.6064 -0.1374 -1.4776
   36MOL   H22414994   3.007   6.304   2.735 -1.5502  0.5927 -0.1437
   36MOL   H22514995   2.911   6.184   2.832  0.3903  4.1637  1.5095
   36MOL   H22614996   2.680   6.191   2.466 -0.0423 -1.5484 -1.0896
   36MOL   H22714997   2.721   6.209   2.210 -1.2369 -1.4772  2.1158
   36MOL   H22814998   2.943   6.230   2.117  1.2980  1.6280  0.0783
   36MOL   H22914999   3.149   6.240   2.288  0.5639 -1.8636  3.1858
   36MOL   H23015000   3.103   6.228   2.519 -1.2430  1.2504  0.9496
   36MOL   H23115001   2.892   5.962   2.580 -1.5812 -1.4275  0.6170
   36MOL   H23215002   3.038   5.904   2.540  0.0918 -2.6945  0.5940
   36MOL   C23315003   2.925   5.761   2.653 -0.3309  0.1543 -0.1085
   36MOL   O23415004   2.810   5.762   2.742 -0.1639  0.3719 -0.2841
   36MOL   C23515005   2.791   5.655   2.829 -0.3750 -0.6574  0.0838
   36MOL   O23615006   2.892   5.651   2.920 -0.7120  0.0723 -0.3220
   36MOL   C23715007   2.874   5.588   3.043  1.1922  0.5098 -0.2903
   36MOL   C23815008   2.750   5.592   3.111  0.3284  0.0107  0.6171
   36MOL   C23915009   2.735   5.533   3.233 -0.3696 -0.2540  0.1159
   36MOL   C24015010   2.843   5.470   3.290 -0.5861 -0.1779 -0.4002
   36MOL   C24115011   2.973   5.462   3.227  0.3214 -0.2042 -0.0208
   36MOL   C24215012   2.986   5.521   3.102  0.0169 -0.8629  0.3699
   36MOL   C24315013   2.889   5.697   2.516 -0.2703 -0.2925 -0.3722
   36MOL   H24415014   3.010   5.708   2.697 -1.1533 -0.4964  0.7185
   36MOL   H24515015   2.773   5.557   2.784 -1.3303  0.1982 -1.4766
   36MOL   H24615016   2.692   5.673   2.872 -0.4943 -1.7578  0.2843
   36MOL   H24715017   2.666   5.652   3.078  1.8572  2.3538  0.9251
   36MOL   H24815018   2.638   5.543   3.279 -0.5441 -1.4765  0.0139
   36MOL   H24915019   2.828   5.421   3.385  0.3433  0.5481  0.1287
   36MOL   H25015020   3.052   5.413   3.281 -1.1864 -0.3170  2.1811
   36MOL   H25115021   3.079   5.501   3.052 -0.3260 -3.3924  0.6579
   36MOL   H25215022   2.822   5.617   2.550  2.0290 -1.3098  1.9568
   36MOL   H25315023   2.823   5.768   2.467 -1.6500 -0.9004  0.5458
   36MOL   C25415024   3.016   5.650   2.438 -0.0953  0.1669  0.2972
   36MOL   O25515025   3.083   5.548   2.512 -0.2775 -0.5651  0.6437
   36MOL   C25615026   3.212   5.588   2.561 -0.5864  0.4688  0.9526
   36MOL   O25715027   3.317   5.559   2.471 -0.3864 -0.0209  0.0349
   36MOL   C25815028   3.444   5.567   2.515 -0.2247 -0.0120 -0.2314
   36MOL   C25915029   3.539   5.502   2.431  0.0483  1.0212 -0.6036
   36MOL   C26015030   3.679   5.517   2.463  0.3089  0.2103 -0.0307
   36MOL   C26115031   3.718   5.597   2.569  0.0447 -0.5493 -0.7016
   36MOL   C26215032   3.621   5.657   2.650 -0.4829  0.1125 -0.1508
   36MOL   C26315033   3.483   5.650   2.616  0.1791  1.0926  0.1848
   36MOL   C26415034   2.991   5.588   2.295  0.4211 -0.8039 -0.3575
   36MOL   H26515035   3.071   5.742   2.420 -0.7751  0.4022 -0.6159
   36MOL   H26615036   3.230   5.530   2.651  0.5368 -0.6502  0.0348
   36MOL   H26715037   3.208   5.693   2.590 -1.0578  0.3567  1.3005
   36MOL   H26815038   3.506   5.457   2.339  0.1167  0.0072 -0.1324
   36MOL   H26915039   3.749   5.470   2.397  0.7339 -0.6818  1.0411
   36MOL   H27015040   3.822   5.608   2.598 -0.4980  3.6891  0.0369
   36MOL   H27115041   3.657   5.730   2.721  0.3374 -1.0918  0.6908
   36MOL   H27215042   3.408   5.711   2.663 -1.1639 -0.8936  0.6612
   36MOL   H27315043   2.965   5.483   2.299  0.8836 -1.0094 -2.4470
   36MOL   H27415044   2.904   5.645   2.263  0.7796  0.7195  1.2644
   36MOL   C27515045   3.115   5.607   2.200 -0.1879 -0.6805 -0.4506
   36MOL   O27615046   3.060   5.582   2.075  0.8562 -0.6979  0.8813
   36MOL   C27715047   3.107   5.471   2.003  0.4876 -0.6954 -0.1819
   36MOL   O27815048   3.038   5.459   1.885  0.4260 -0.0939  0.3546
   36MOL   C27915049   2.910   5.410   1.883 -0.1767 -0.6414  0.0232
   36MOL   C28015050   2.845   5.363   1.996 -0.5745  0.5555 -0.3744
   36MOL   C28115051   2.718   5.302   1.984 -1.0800 -0.2238 -0.1745
   36MOL   C28215052   2.667   5.275   1.858 -0.4778  0.5031  0.3758
   36MOL   C28315053   2.732   5.321   1.738  0.1291  0.2656 -0.1506
   36MOL   C28415054   2.854   5.391   1.756  0.2744  0.5688  0.2772
   36MOL   C28515055   3.174   5.740   2.199  0.0508 -0.2170 -0.0270
   36MOL   H28615056   3.191   5.532   2.225  0.3016  0.2262  0.8198
   36MOL   H28715057   3.086   5.384   2.065  0.0711 -1.0248 -0.7716
   36MOL   H28815058   3.212   5.478   1.976  0.8182 -0.6083  1.1353
   36MOL   H28915059   2.894   5.378   2.091 -0.2841 -0.6347 -0.3286
   36MOL   H29015060   2.678   5.267   2.079  2.5091 -1.5950  0.8986
   36MOL   H29115061   2.567   5.234   1.855 -0.9573  1.6899 -4.7533
   36MOL   H29215062   2.697   5.308   1.636  0.0521  0.5780 -0.1634
   36MOL   H29315063   2.899   5.451   1.678 -0.2750 -0.4271 -0.8205
   36MOL   H29415064   3.237   5.741   2.287  2.1983  1.6547 -1.5316
   36MOL   H29515065   3.104   5.824   2.205  1.4325  1.0839 -1.6464
   36MOL   C29615066   3.284   5.762   2.088 -0.1648  0.1647 -0.3981
   36MOL   O29715067   3.320   5.895   2.085  0.1236 -0.4568  0.6176
   36MOL   C29815068   3.232   5.985   2.028  0.2961  0.2478  0.4041
   36MOL   O29915069   3.258   6.000   1.894 -0.7248  0.4249 -0.9237
   36MOL   C30015070   3.171   5.938   1.805 -0.7535  0.3683 -1.0300
   36MOL   C30115071   3.205   5.960   1.669  0.2248 -0.0450  0.0911
   36MOL   C30215072   3.136   5.899   1.565  0.1496  0.2686 -0.6856
   36MOL   C30315073   3.028   5.811   1.591 -0.1200  0.6778 -0.5160
   36MOL   C30415074   2.993   5.792   1.722  0.1040 -0.5540 -0.2508
   36MOL   C30515075   3.068   5.843   1.827  0.0588 -0.5673 -0.2970
   36MOL   C30615076   3.417   5.678   2.118 -0.0307 -0.6330 -0.1562
   36MOL   H30715077   3.243   5.735   1.991 -0.4944  1.4246 -0.6201
   36MOL   H30815078   3.266   6.080   2.069 -3.4200  0.1186  4.0162
   36MOL   H30915079   3.125   5.970   2.039  0.4491 -1.3436 -0.2250
   36MOL   H31015080   3.290   6.025   1.651 -0.4265  0.9455  0.5622
   36MOL   H31115081   3.164   5.922   1.463  3.5245  0.1131  0.1444
   36MOL   H31215082   2.974   5.769   1.507  0.2004 -0.3079 -0.2319
   36MOL   H31315083   2.902   5.742   1.751  0.9270 -0.8377  1.9278
   36MOL   H31415084   3.043   5.813   1.928 -3.0201 -1.9365 -1.3985
   36MOL   H31515085   3.398   5.572   2.136 -0.0317 -0.7189 -0.6594
   36MOL   H31615086   3.464   5.708   2.211  1.0037  0.7103 -1.0993
   36MOL   C31715087   3.527   5.673   2.007  0.5656  0.1676  0.1686
   36MOL   O31815088   3.457   5.618   1.899  0.0795  0.4386  0.4635
   36MOL   C31915089   3.475   5.682   1.781  0.2138 -0.2822 -0.5552
   36MOL   O32015090   3.600   5.657   1.728 -0.1702 -0.3268 -0.0554
   36MOL   C32115091   3.626   5.540   1.663  0.3762  0.1996  0.0079
   36MOL   C32215092   3.551   5.419   1.691 -0.4085  0.2582  0.1558
   36MOL   C32315093   3.598   5.307   1.628  0.1070 -0.7099 -0.4307
   36MOL   C32415094   3.703   5.306   1.533 -0.0579 -0.3334 -0.2405
   36MOL   C32515095   3.776   5.421   1.510 -0.0757 -0.1769 -0.5741
   36MOL   C32615096   3.728   5.537   1.568 -0.6500  0.4753 -0.4304
   36MOL   C32715097   3.650   5.588   2.039  1.4967 -0.4003  0.3387
   36MOL   H32815098   3.557   5.775   1.985  0.3139  0.4486  1.1424
   36MOL   H32915099   3.447   5.788   1.786 -0.8840 -0.5995  0.2530
   36MOL   H33015100   3.400   5.636   1.717  0.8059 -0.1964 -1.3138
   36MOL   H33115101   3.464   5.412   1.753 -1.3195 -0.9904 -1.2328
   36MOL   H33215102   3.537   5.219   1.645  1.2503 -1.4564 -0.1026
   36MOL   H33315103   3.715   5.215   1.476  1.1607 -0.3624  0.0608
   36MOL   H33415104   3.867   5.437   1.455  0.8917 -1.5994  0.5666
   36MOL   H33515105   3.776   5.634   1.555  0.6976 -0.4434 -2.6276
   36MOL   H33615106   3.611   5.507   2.102 -1.0363 -0.3491 -1.1045
   36MOL   H33715107   3.691   5.553   1.945 -0.1327  1.0337 -0.9356
   36MOL   C33815108   3.766   5.659   2.109 -0.2399 -0.2173 -0.6472
   36MOL   O33915109   3.723   5.715   2.230 -0.0003  0.0781  0.3408
   36MOL   C34015110   3.788   5.837   2.251 -0.0609  0.4712 -0.0839
   36MOL   O34115111   3.717   5.940   2.195 -0.3456  0.1152  0.1415
   36MOL   C34215112   3.606   5.984   2.266 -0.3408  0.2225  0.3025
   36MOL   C34315113   3.555   5.926   2.387  0.7469 -0.2807 -0.3274
   36MOL   C34415114   3.443   5.977   2.451 -0.5117  0.6025 -0.3066
   36MOL   C34515115   3.378   6.084   2.398  0.5244 -0.3462  0.5032
   36MOL   C34615116   3.429   6.145   2.278  0.7527  0.1435  0.2920
   36MOL   C34715117   3.535   6.088   2.205  0.0937  0.9636 -0.4146
   36MOL   C34815118   3.888   5.570   2.135 -0.5042  0.4414  0.5664
   36MOL   H34915119   3.806   5.736   2.043 -1.2492 -0.7863 -1.9503
   36MOL   H35015120   3.885   5.842   2.201 -0.4239  2.3806 -0.6339
   36MOL   H35115121   3.811   5.864   2.354  0.4386 -0.2639 -0.0029
   36MOL   H35215122   3.592   5.832   2.424 -1.1329 -1.4668 -1.4070
   36MOL   H35315123   3.388   5.930   2.531  0.8625  0.3066  0.4690
   36MOL   H35415124   3.283   6.115   2.439  0.8442 -0.3423  1.2394
   36MOL   H35515125   3.367   6.221   2.234 -1.2253 -1.4228  0.3052
   36MOL   H35615126   3.565   6.125   2.108  2.2001 -1.6429 -0.8371
   36MOL   H35715127   3.841   5.477   2.166 -1.9528  0.6045 -0.9991
   36MOL   H35815128   3.945   5.606   2.220 -0.7255  2.3856 -0.0813
   36MOL   C35915129   3.987   5.551   2.019 -0.4083  0.1686 -0.0333
   36MOL   O36015130   3.935   5.470   1.918  0.3678  0.0086 -0.1452
   36MOL   C36115131   3.995   5.485   1.790  0.6795  0.3588 -0.0008
   36MOL   O36215132   3.966   5.610   1.736  0.2641 -0.0422 -0.1189
   36MOL   C36315133   4.041   5.652   1.637 -0.5159 -0.2958  0.0325
   36MOL   C36415134   4.055   5.795   1.620 -0.6324  0.0792  0.4220
   36MOL   C36515135   4.119   5.849   1.505 -0.3724 -0.0708  0.3028
   36MOL   C36615136   4.173   5.766   1.409  0.0802 -0.2977  0.4737
   36MOL   C36715137   4.157   5.628   1.416 -0.4096  0.0344  0.3159
   36MOL   C36815138   4.099   5.575   1.532 -0.3342 -0.3105  0.8147
   36MOL   C36915139   4.119   5.483   2.075  0.4224  0.0071 -0.4775
   36MOL   H37015140   4.010   5.652   1.984  0.3098 -0.5765 -1.7799
   36MOL   H37115141   3.954   5.399   1.736 -0.3448 -0.7185  2.4290
   36MOL   H37215142   4.103   5.480   1.794  0.9376 -0.2384 -4.4578
   36MOL   H37315143   4.010   5.867   1.687 -2.8602 -0.8871 -0.0053
   36MOL   H37415144   4.125   5.956   1.492 -1.2156 -0.0511  0.0071
   36MOL   H37515145   4.220   5.809   1.322 -1.2593  0.1629 -0.0272
   36MOL   H37615146   4.206   5.565   1.343 -0.3163 -1.1541  1.3854
   36MOL   H37715147   4.102   5.467   1.531  0.6210 -0.2927  1.5177
   36MOL   H37815148   4.163   5.414   2.003 -0.1524  0.0147 -0.8357
   36MOL   H37915149   4.090   5.419   2.159 -1.5549  0.8199 -0.4988
   36MOL   C38015150   4.218   5.604   2.115 -0.9731  1.0239  0.3884
   36MOL   O38115151   4.255   5.678   1.997  0.0838 -0.6325  0.7384
   36MOL   C38215152   4.340   5.788   2.015  0.1254  0.2079 -0.0615
   36MOL   O38315153   4.295   5.876   2.106 -0.3658 -0.5616  0.2000
   36MOL   C38415154   4.184   5.954   2.094 -0.2678  0.2470  0.1748
   36MOL   C38515155   4.165   6.051   2.192 -0.9842 -0.3896  0.3195
   36MOL   C38615156   4.043   6.129   2.192 -0.2840 -0.0255  0.9790
   36MOL   C38715157   3.946   6.111   2.090  0.4644  1.0660 -0.6349
   36MOL   C38815158   3.971   6.013   1.994 -0.5932 -0.1611  1.1586
   36MOL   C38915159   4.088   5.931   1.997  0.1111 -0.5485  0.2371
   36MOL   C39015160   4.329   5.547   2.196  0.1713 -0.1933  0.4639
   36MOL   H39115161   4.160   5.671   2.178  0.0900  2.2663  0.0607
   36MOL   H39215162   4.437   5.760   2.055 -0.3349  1.5087  2.0145
   36MOL   H39315163   4.372   5.848   1.929 -0.3335  1.7484  0.8289
   36MOL   H39415164   4.247   6.079   2.258 -1.0288  0.8982 -0.1602
   36MOL   H39515165   4.033   6.202   2.271 -0.4783  0.8474  0.1590
   36MOL   H39615166   3.859   6.176   2.086 -0.1945  0.2413  0.0922
   36MOL   H39715167   3.903   5.985   1.915  1.1474  0.0281 -0.4445
   36MOL   H39815168   4.111   5.851   1.928  0.4434 -2.0974  2.1074
   36MOL   H39915169   4.285   5.493   2.280 -0.0079 -1.7146 -0.5906
   36MOL   H40015170   4.391   5.624   2.241  1.8118 -2.0807  1.4900
   36MOL   C40115171   4.430   5.444   2.130 -0.0158  0.3695 -1.4962
   36MOL   O40215172   4.510   5.516   2.031  0.7156  0.1791  0.0867
   36MOL   C40315173   4.521   5.440   1.918 -0.0016  0.0121  0.0696
   36MOL   O40415174   4.589   5.318   1.929  0.3344 -0.1537  0.4131
   36MOL   C40515175   4.728   5.315   1.916 -0.1375 -0.9392  0.0567
   36MOL   C40615176   4.783   5.196   1.876  0.0637  0.5354  0.3206
   36MOL   C40715177   4.921   5.186   1.860  0.6301  0.2855  0.2231
   36MOL   C40815178   5.006   5.297   1.874  0.9763  0.0763 -0.4000
   36MOL   C40915179   4.949   5.423   1.912 -0.9567  0.1829  0.4579
   36MOL   C41015180   4.814   5.427   1.933 -0.4174 -0.1428  0.1489
   36MOL   C41115181   4.523   5.379   2.232  0.5340 -0.0656  0.3590
   36MOL   H41215182   4.374   5.358   2.094 -1.2258  1.3688 -2.0614
   36MOL   H41315183   4.551   5.506   1.836  1.1952  0.2811  0.7094
   36MOL   H41415184   4.426   5.405   1.878 -0.0017 -0.7398  0.7151
   36MOL   H41515185   4.728   5.105   1.856  0.1523  0.9708 -2.1105
   36MOL   H41615186   4.966   5.092   1.832  3.1160  1.2633  0.7552
   36MOL   H41715187   5.113   5.292   1.859  0.7153  0.7109 -2.8339
   36MOL   H41815188   5.011   5.511   1.916 -0.4500 -0.1445 -0.0030
   36MOL   H41915189   4.769   5.518   1.969 -0.0164 -0.0529  0.4322
   36MOL   H42015190   4.596   5.311   2.187  0.4948 -0.2723  0.6065
   36MOL   H42115191   4.459   5.321   2.299  0.3882 -0.8095 -0.4132
   36MOL   H42215192   4.574   5.445   2.301 -0.3760 -0.9743  1.9358
   37MOL     C115193   3.634   6.014   1.498  0.0641 -0.3496 -0.8332
   37MOL     O215194   3.551   5.900   1.496  0.8367  0.2088 -0.6566
   37MOL     C315195   3.538   5.826   1.380  0.3611 -0.0193  0.8021
   37MOL     O415196   3.658   5.797   1.319 -0.1359  0.0259 -0.0755
   37MOL     C515197   3.677   5.667   1.275 -0.5051  0.7447  0.4350
   37MOL     C615198   3.572   5.569   1.248 -1.0645  0.2250  0.3464
   37MOL     C715199   3.609   5.444   1.192  0.7986  0.9404 -0.3556
   37MOL     C815200   3.742   5.417   1.160 -0.2691  0.0929 -0.1252
   37MOL     C915201   3.846   5.513   1.184 -0.2635 -0.1977 -0.3317
   37MOL    C1015202   3.807   5.637   1.232 -0.3232 -0.0938  0.2625
   37MOL    C1115203   3.652   6.050   1.643  0.3992 -0.2214  0.1713
   37MOL    H1215204   3.729   5.970   1.467  0.5337  0.5665 -0.7114
   37MOL    H1315205   3.495   5.733   1.417 -1.1301  0.4511  0.2618
   37MOL    H1415206   3.474   5.883   1.312  0.4803 -0.8429 -0.0038
   37MOL    H1515207   3.467   5.589   1.258 -0.7679  1.2323  1.5918
   37MOL    H1615208   3.538   5.366   1.167  0.5903 -0.0589  3.0443
   37MOL    H1715209   3.776   5.322   1.121 -0.5495  0.2663 -0.7906
   37MOL    H1815210   3.951   5.500   1.164 -0.5319 -0.5498 -1.5882
   37MOL    H1915211   3.879   5.715   1.252  2.9855 -2.9857  0.1699
   37MOL    H2015212   3.704   5.966   1.689  0.4021 -0.2677  0.0827
   37MOL    H2115213   3.549   6.059   1.675  0.2064 -2.7127  0.3311
   37MOL    H2215214   3.598   6.102   1.444 -3.1731 -1.1534 -0.0528
   37MOL    C2315215   3.731   6.186   1.670 -0.6267  0.5498  0.1615
   37MOL    O2415216   3.868   6.146   1.677  0.4948 -0.2873 -0.0823
   37MOL    C2515217   3.943   6.195   1.576  0.0941 -0.0394  0.6834
   37MOL    O2615218   3.962   6.335   1.597  0.0747  0.1424 -0.4870
   37MOL    C2715219   4.031   6.407   1.500 -0.6256 -0.8321 -0.3296
   37MOL    C2815220   4.029   6.550   1.513 -0.2530  0.5786  0.5619
   37MOL    C2915221   4.087   6.631   1.420  0.1525 -0.1041 -0.6268
   37MOL    C3015222   4.153   6.580   1.312 -0.4533  0.8557  0.4951
   37MOL    C3115223   4.155   6.443   1.295 -0.0120 -0.1975  0.3264
   37MOL    C3215224   4.093   6.353   1.384  0.0377 -0.5243  0.1317
   37MOL    C3315225   3.709   6.244   1.810 -0.1391 -0.2181 -1.1413
   37MOL    H3415226   3.707   6.249   1.585  0.9818  0.0449 -0.6854
   37MOL    H3515227   3.908   6.164   1.477 -0.0807 -1.9839  1.3358
   37MOL    H3615228   4.039   6.144   1.574 -0.7235 -1.6939  2.0914
   37MOL    H3715229   3.977   6.590   1.599  1.4284  1.0629  1.3860
   37MOL    H3815230   4.082   6.738   1.432  2.1856  0.1746 -1.9749
   37MOL    H3915231   4.208   6.651   1.252 -0.9615  0.6998 -0.1663
   37MOL    H4015232   4.209   6.396   1.213 -1.6571 -3.3615  0.9689
   37MOL    H4115233   4.100   6.246   1.369 -0.6498 -0.9047  2.3379
   37MOL    H4215234   3.792   6.308   1.840 -1.3269  1.6700 -1.8278
   37MOL    H4315235   3.687   6.168   1.885 -0.8603  1.4363  0.3547
   37MOL    C4415236   3.594   6.347   1.803 -0.0168 -0.4604 -1.0579
   37MOL    O4515237   3.613   6.471   1.869 -0.9181 -0.1171 -0.1927
   37MOL    C4615238   3.632   6.578   1.780 -0.4674  0.4601 -0.6912
   37MOL    O4715239   3.652   6.689   1.858 -0.0066 -0.7601  0.7268
   37MOL    C4815240   3.716   6.804   1.802 -0.1851  0.8695 -0.4889
   37MOL    C4915241   3.765   6.818   1.672  0.1111 -0.6252  0.0374
   37MOL    C5015242   3.821   6.936   1.628 -0.4016  0.3802 -0.2786
   37MOL    C5115243   3.831   7.043   1.718  0.0481  0.4902  0.0715
   37MOL    C5215244   3.777   7.035   1.846  0.0587  0.1465 -0.7573
   37MOL    C5315245   3.716   6.915   1.887 -0.0244  0.1734  0.3895
   37MOL    C5415246   3.457   6.292   1.860  0.2497  0.1466  0.1183
   37MOL    H5515247   3.574   6.359   1.697  1.1542  0.3144 -1.1901
   37MOL    H5615248   3.543   6.578   1.716 -0.6256 -0.5914 -0.4823
   37MOL    H5715249   3.718   6.557   1.718  0.8257 -0.0662  1.2605
   37MOL    H5815250   3.753   6.736   1.603 -1.0991  0.2538 -0.8239
   37MOL    H5915251   3.862   6.943   1.528  1.0830 -0.2387  0.2723
   37MOL    H6015252   3.879   7.137   1.695  0.8317  0.3780  1.2142
   37MOL    H6115253   3.790   7.121   1.910 -1.3669  1.7681 -2.5931
   37MOL    H6215254   3.674   6.901   1.985 -0.1480  0.6071  0.4009
   37MOL    H6315255   3.448   6.190   1.824 -0.3171  0.7677 -1.5336
   37MOL    H6415256   3.456   6.290   1.969 -2.0067 -0.9507  0.1165
   37MOL    C6515257   3.335   6.371   1.807  0.0097  0.8170 -0.4256
   37MOL    O6615258   3.309   6.336   1.672 -0.0912 -0.3698  0.8661
   37MOL    C6715259   3.350   6.430   1.571  0.1079 -0.2562 -0.1658
   37MOL    O6815260   3.466   6.401   1.500 -1.0310  0.7707 -0.1781
   37MOL    C6915261   3.524   6.496   1.422  0.0329 -0.8278 -0.0927
   37MOL    C7015262   3.468   6.623   1.390 -0.5432 -0.9692  0.0177
   37MOL    C7115263   3.544   6.722   1.313  0.2285 -0.3739 -0.4605
   37MOL    C7215264   3.674   6.692   1.260  0.3388 -0.1053  0.3511
   37MOL    C7315265   3.732   6.567   1.296  0.1200 -0.6519 -0.0171
   37MOL    C7415266   3.656   6.473   1.373  0.2487 -0.3561 -1.0186
   37MOL    C7515267   3.217   6.345   1.903 -0.2687 -0.4526  0.2331
   37MOL    H7615268   3.348   6.479   1.809  0.6296  0.7552 -0.9848
   37MOL    H7715269   3.341   6.529   1.614 -0.4491 -0.9091  1.2526
   37MOL    H7815270   3.279   6.431   1.488  0.6254  1.1791 -0.6029
   37MOL    H7915271   3.367   6.645   1.421 -0.5024 -0.8097  0.0398
   37MOL    H8015272   3.497   6.818   1.295 -2.3219 -1.8787 -2.1000
   37MOL    H8115273   3.710   6.769   1.193  0.4836 -0.1519  0.3765
   37MOL    H8215274   3.830   6.544   1.257  0.4984  3.3404 -1.6498
   37MOL    H8315275   3.697   6.377   1.402  0.3734  0.2781  0.9816
   37MOL    H8415276   3.192   6.241   1.882 -1.1675  0.2474 -2.3837
   37MOL    H8515277   3.236   6.347   2.010  0.1931  2.2510  0.1493
   37MOL    C8615278   3.095   6.427   1.874  0.3063 -0.3197  0.4464
   37MOL    O8715279   2.989   6.337   1.829  0.2337 -0.0785 -0.3143
   37MOL    C8815280   2.989   6.311   1.692 -0.2383  0.1826  0.3099
   37MOL    O8915281   2.958   6.420   1.607 -0.4163 -0.2157 -0.6828
   37MOL    C9015282   2.827   6.469   1.624 -0.4781 -0.0011 -0.2434
   37MOL    C9115283   2.735   6.421   1.723 -0.1040 -0.3846 -0.6514
   37MOL    C9215284   2.605   6.478   1.730 -0.0827 -0.2060 -0.0844
   37MOL    C9315285   2.567   6.587   1.643  0.1313 -0.0761  0.2843
   37MOL    C9415286   2.662   6.634   1.550 -0.3009 -0.6400 -0.0266
   37MOL    C9515287   2.788   6.570   1.534 -1.0247 -0.2472 -0.3432
   37MOL    C9615288   3.044   6.509   1.994 -0.6070  0.0554 -0.1456
   37MOL    H9715289   3.109   6.490   1.786 -0.4424  1.0387  1.2829
   37MOL    H9815290   2.916   6.230   1.683 -0.2520  0.2095  0.1675
   37MOL    H9915291   3.079   6.264   1.652 -0.8946 -0.5276 -0.3341
   37MOL   H10015292   2.757   6.337   1.788 -0.1416 -0.4187 -0.6828
   37MOL   H10115293   2.525   6.439   1.790  0.2179 -1.1262 -0.2793
   37MOL   H10215294   2.468   6.628   1.654  1.1001  1.6692  2.7025
   37MOL   H10315295   2.626   6.708   1.480 -2.8427  0.0310  1.9249
   37MOL   H10415296   2.854   6.611   1.460  1.1812 -2.0072  0.5544
   37MOL   H10515297   2.941   6.539   1.973 -0.2742  0.1159 -1.7073
   37MOL   H10615298   3.036   6.451   2.086 -1.1595 -0.8556 -0.7576
   37MOL   C10715299   3.137   6.632   2.011 -0.3372  0.9127 -0.0256
   37MOL   O10815300   3.109   6.725   1.910 -0.1145 -0.4229 -0.4001
   37MOL   C10915301   3.222   6.790   1.868 -1.0732 -0.6616  1.3218
   37MOL   O11015302   3.282   6.726   1.760  0.3156  0.1021  0.0596
   37MOL   C11115303   3.266   6.790   1.642 -0.8089  0.0208  0.2880
   37MOL   C11215304   3.159   6.768   1.566  0.0038  0.2261 -0.5844
   37MOL   C11315305   3.144   6.832   1.442 -0.4924 -0.4649 -0.1052
   37MOL   C11415306   3.253   6.914   1.390 -0.1439  0.5752  0.3297
   37MOL   C11515307   3.373   6.929   1.468  0.2773  0.0428  0.2875
   37MOL   C11615308   3.373   6.872   1.599 -0.3058  0.0182  0.2936
   37MOL   C11715309   3.123   6.694   2.153  1.5679  0.9332  0.0533
   37MOL   H11815310   3.237   6.590   2.005 -0.7806 -0.2842  0.7357
   37MOL   H11915311   3.300   6.805   1.942  0.9806 -0.8714 -0.7360
   37MOL   H12015312   3.207   6.893   1.836  0.2198 -0.5239  1.1386
   37MOL   H12115313   3.083   6.701   1.603  0.7955  0.6505  1.9358
   37MOL   H12215314   3.047   6.820   1.397 -0.8402 -2.4008  1.0801
   37MOL   H12315315   3.245   6.955   1.290 -0.6205 -0.5738 -0.1083
   37MOL   H12415316   3.458   6.982   1.427 -0.2943 -0.8358 -2.1557
   37MOL   H12515317   3.458   6.885   1.663  0.7128  1.1975 -1.2649
   37MOL   H12615318   3.111   6.617   2.229 -1.1680  2.5439  1.3341
   37MOL   H12715319   3.024   6.740   2.151  0.2433 -1.7810 -2.1671
   37MOL   C12815320   3.240   6.782   2.204  0.1763 -0.2373 -0.1616
   37MOL   O12915321   3.362   6.707   2.195 -0.1875 -0.0836  0.1968
   37MOL   C13015322   3.475   6.783   2.209  0.2081 -0.5416  0.2144
   37MOL   O13115323   3.559   6.743   2.306  1.1384 -0.3549  0.2354
   37MOL   C13215324   3.625   6.623   2.292  0.8369  0.0195 -0.2640
   37MOL   C13315325   3.730   6.602   2.374 -0.6630 -0.7259  0.1617
   37MOL   C13415326   3.814   6.486   2.366  0.4814 -0.2449  0.1368
   37MOL   C13515327   3.783   6.383   2.276  0.3209 -0.6480 -0.5719
   37MOL   C13615328   3.683   6.403   2.178  0.2564  0.3172 -0.1649
   37MOL   C13715329   3.601   6.529   2.186 -0.7677  0.0175 -0.9611
   37MOL   C13815330   3.206   6.840   2.348 -0.2516 -0.1942  0.4065
   37MOL   H13915331   3.241   6.868   2.138  0.0946 -0.3615 -0.3261
   37MOL   H14015332   3.449   6.889   2.217 -0.6667 -0.5255 -2.1918
   37MOL   H14115333   3.543   6.783   2.124 -0.8429  0.1747 -0.6500
   37MOL   H14215334   3.754   6.676   2.449 -0.2253  1.2348 -1.8556
   37MOL   H14315335   3.904   6.475   2.423  1.1148  1.3057 -0.5250
   37MOL   H14415336   3.837   6.290   2.282  1.6307  0.1127 -0.0919
   37MOL   H14515337   3.671   6.327   2.102  2.3813  0.2512 -0.4701
   37MOL   H14615338   3.520   6.540   2.116  0.1340  0.5533 -1.9265
   37MOL   H14715339   3.097   6.847   2.356 -0.1206  2.1711  0.5526
   37MOL   H14815340   3.243   6.771   2.424 -0.7472 -0.0904  0.7425
   37MOL   C14915341   3.260   6.984   2.378  0.0476 -0.1920  0.0395
   37MOL   O15015342   3.209   7.088   2.284  0.4858  0.5614 -0.1522
   37MOL   C15115343   3.300   7.181   2.232 -0.0819 -0.1353 -0.6584
   37MOL   O15215344   3.371   7.124   2.124  0.3318  0.4698  0.1103
   37MOL   C15315345   3.404   7.215   2.021  0.2249 -0.6238  0.2539
   37MOL   C15415346   3.430   7.158   1.897 -0.5574 -0.4697  0.1968
   37MOL   C15515347   3.455   7.240   1.782 -0.4686  0.0113 -0.0506
   37MOL   C15615348   3.446   7.379   1.792  0.5232 -0.5253 -0.2579
   37MOL   C15715349   3.421   7.442   1.919 -0.0853 -0.9022  0.5960
   37MOL   C15815350   3.411   7.358   2.032  0.1196  0.3518 -0.0642
   37MOL   C15915351   3.223   7.016   2.527  0.1675 -0.5479 -0.9595
   37MOL   H16015352   3.369   6.985   2.378  0.0767 -1.2604 -1.5878
   37MOL   H16115353   3.229   7.256   2.198 -0.0521  0.5191  0.6690
   37MOL   H16215354   3.354   7.228   2.314 -0.9214 -0.2438 -0.0310
   37MOL   H16315355   3.420   7.051   1.895 -1.4159 -0.3722 -2.6875
   37MOL   H16415356   3.469   7.196   1.684  0.3841 -1.1477  0.5761
   37MOL   H16515357   3.449   7.448   1.708  0.2468  1.0930  1.0289
   37MOL   H16615358   3.420   7.550   1.921 -1.1522 -0.9178  1.4621
   37MOL   H16715359   3.383   7.406   2.125 -1.8395 -1.2184  0.1997
   37MOL   H16815360   3.267   6.946   2.597  1.4701  1.0448 -0.1288
   37MOL   H16915361   3.114   7.008   2.535  0.1600  0.3945  0.0432
   37MOL   C17015362   3.262   7.150   2.589 -0.8897 -0.5289  0.2762
   37MOL   O17115363   3.208   7.157   2.721  0.2555  0.6544  0.1698
   37MOL   C17215364   3.117   7.258   2.750 -1.5142  1.0138 -0.4056
   37MOL   O17315365   2.994   7.235   2.691  0.0338  0.2630  0.4615
   37MOL   C17415366   2.892   7.319   2.721 -0.3745 -0.1349 -0.3403
   37MOL   C17515367   2.907   7.437   2.791 -0.2654 -0.2550  0.5585
   37MOL   C17615368   2.801   7.528   2.806  0.3590  0.0573  0.7514
   37MOL   C17715369   2.674   7.497   2.749 -0.2890  0.2886  0.0748
   37MOL   C17815370   2.658   7.376   2.682  0.0296  0.5541  0.1523
   37MOL   C17915371   2.767   7.289   2.664 -1.2062  0.1185  0.1117
   37MOL   C18015372   3.411   7.165   2.604  0.4666  0.1901  0.4656
   37MOL   H18115373   3.221   7.234   2.533  1.0895  0.6898  0.5989
   37MOL   H18215374   3.169   7.349   2.724 -0.8829  0.6238 -0.5202
   37MOL   H18315375   3.108   7.258   2.859  1.9758  1.0612 -0.0542
   37MOL   H18415376   3.005   7.469   2.822 -0.7866  0.9841  0.9309
   37MOL   H18515377   2.818   7.620   2.859  1.1221  0.8888 -0.8934
   37MOL   H18615378   2.589   7.559   2.774  2.1657  2.6993  2.8409
   37MOL   H18715379   2.565   7.350   2.634 -0.1010  1.2996 -0.0143
   37MOL   H18815380   2.750   7.196   2.613 -2.3334  0.3557  0.0323
   37MOL   H18915381   3.448   7.100   2.683  1.5691  0.1029 -0.1033
   37MOL   H19015382   3.463   7.139   2.511 -0.5507  0.5547 -0.2138
   37MOL   C19115383   3.469   7.309   2.634  0.3821  0.4219  0.5364
   37MOL   O19215384   3.448   7.383   2.514  0.0294 -0.0017  0.0983
   37MOL   C19315385   3.480   7.522   2.509  0.4223 -0.0037  0.4586
   37MOL   O19415386   3.439   7.591   2.389  0.8036 -0.1316 -0.0397
   37MOL   C19515387   3.306   7.585   2.363 -0.4964 -0.0204 -0.1214
   37MOL   C19615388   3.213   7.538   2.462  0.2298  0.4003 -0.5221
   37MOL   C19715389   3.073   7.532   2.418 -0.3008 -0.0164  0.2500
   37MOL   C19815390   3.033   7.568   2.287 -0.6336 -0.2093 -0.1311
   37MOL   C19915391   3.133   7.616   2.197 -0.3386  0.5439 -0.7579
   37MOL   C20015392   3.268   7.618   2.234  0.6939  0.7469 -0.4823
   37MOL   C20115393   3.625   7.303   2.671 -0.7778  0.4781  0.2345
   37MOL   H20215394   3.411   7.358   2.712 -0.1835 -1.1323  1.0942
   37MOL   H20315395   3.588   7.523   2.493  0.4503  0.0999  0.6423
   37MOL   H20415396   3.462   7.575   2.603  3.9773  0.7676  0.7768
   37MOL   H20515397   3.239   7.517   2.564  0.1782  1.0887 -0.3679
   37MOL   H20615398   3.003   7.492   2.489  0.1760  0.9599  1.2774
   37MOL   H20715399   2.929   7.555   2.258  0.1876 -1.5917 -2.5918
   37MOL   H20815400   3.108   7.653   2.099 -0.9550 -0.0420 -0.8294
   37MOL   H20915401   3.345   7.655   2.168 -0.4503  2.3035 -0.9735
   37MOL   H21015402   3.637   7.214   2.732  0.3486  0.5158  0.0897
   37MOL   H21115403   3.689   7.262   2.593 -2.3577 -0.8163 -0.3868
   37MOL   C21215404   3.695   7.425   2.738 -0.0902  0.9192  0.2856
   37MOL   O21315405   3.598   7.483   2.831 -0.0826  0.5305  0.1682
   37MOL   C21415406   3.638   7.606   2.882  0.1137  0.0051 -0.1053
   37MOL   O21515407   3.613   7.717   2.800 -0.2196 -0.6485 -0.0628
   37MOL   C21615408   3.486   7.772   2.788 -0.1058  0.7347 -0.1510
   37MOL   C21715409   3.370   7.702   2.820 -0.1621  0.6982 -0.4710
   37MOL   C21815410   3.246   7.742   2.779  0.6115  0.2460 -0.1514
   37MOL   C21915411   3.229   7.865   2.710 -0.1312  0.3768  0.4941
   37MOL   C22015412   3.340   7.941   2.684 -0.8044  0.4265  0.0532
   37MOL   C22115413   3.469   7.894   2.722  0.0845 -0.2359 -0.7308
   37MOL   C22215414   3.826   7.386   2.812 -0.2772 -0.1186  0.2259
   37MOL   H22315415   3.710   7.501   2.661  2.1986  0.6949  0.4505
   37MOL   H22415416   3.742   7.607   2.916 -0.6441 -0.2881  2.3002
   37MOL   H22515417   3.580   7.617   2.973 -0.8825 -0.9027 -0.6206
   37MOL   H22615418   3.372   7.602   2.860 -1.3504  0.4032 -1.1065
   37MOL   H22715419   3.167   7.672   2.803 -0.1440  1.9644  2.5934
   37MOL   H22815420   3.130   7.897   2.680  0.5570 -0.5824 -3.0081
   37MOL   H22915421   3.324   0.056   2.627 -0.2360  0.6551  0.2573
   37MOL   H23015422   3.556   7.944   2.683 -0.0029 -0.7899 -1.6482
   37MOL   H23115423   3.825   7.414   2.917 -0.0137  0.9824 -0.0636
   37MOL   H23215424   3.841   7.278   2.820 -0.7318 -0.2760 -0.8432
   37MOL   C23315425   3.944   7.451   2.745 -0.2606  0.2548  0.0083
   37MOL   O23415426   4.058   7.471   2.832 -0.1110 -0.2696  0.0652
   37MOL   C23515427   4.071   7.605   2.870 -0.8540  0.1644  0.2690
   37MOL   O23615428   3.983   7.635   2.969 -0.0459 -0.6614 -0.5603
   37MOL   C23715429   3.994   7.570   3.092  0.1432  0.3369  0.0435
   37MOL   C23815430   3.909   7.615   3.195 -0.1794  0.0680 -0.8941
   37MOL   C23915431   3.908   7.549   3.320 -0.1260  0.0047  0.0104
   37MOL   C24015432   3.993   7.436   3.349  0.0827  0.0415  0.3842
   37MOL   C24115433   4.088   7.405   3.252  0.1063 -0.1318 -0.3249
   37MOL   C24215434   4.089   7.472   3.126 -0.0104  0.5936  0.1647
   37MOL   C24315435   3.982   7.363   2.622 -0.6411  0.2676 -0.3432
   37MOL   H24415436   3.914   7.546   2.700  1.6891  0.5513 -0.7466
   37MOL   H24515437   4.073   7.673   2.785  0.7010  0.0306  0.1954
   37MOL   H24615438   4.171   7.620   2.909 -0.2127 -1.8845 -0.5103
   37MOL   H24715439   3.838   7.693   3.170 -1.4526 -1.0899 -0.9838
   37MOL   H24815440   3.833   7.587   3.389 -2.1473 -0.4682 -1.8716
   37MOL   H24915441   3.998   7.388   3.445 -0.1426  0.2009  0.4732
   37MOL   H25015442   4.160   7.325   3.262 -1.5200 -1.9338 -2.4230
   37MOL   H25115443   4.149   7.424   3.049 -0.9946 -2.3233  1.1303
   37MOL   H25215444   3.988   7.256   2.638 -0.5378  0.1654 -1.0237
   37MOL   H25315445   3.886   7.373   2.572  0.0328  0.8343 -1.5477
   37MOL   C25415446   4.087   7.419   2.525  0.1353  0.2773 -0.0795
   37MOL   O25515447   4.063   7.557   2.492 -0.5812  0.5001  0.2724
   37MOL   C25615448   3.996   7.593   2.377 -0.2763  0.1650 -0.3743
   37MOL   O25715449   3.863   7.568   2.378 -0.8374  0.2734 -0.1540
   37MOL   C25815450   3.814   7.515   2.260  0.8182 -0.6100  0.0993
   37MOL   C25915451   3.832   7.575   2.136 -0.8802 -0.4753  0.7221
   37MOL   C26015452   3.788   7.513   2.022  0.5674 -0.2236  0.2442
   37MOL   C26115453   3.724   7.387   2.031 -0.0257 -0.8770 -0.4205
   37MOL   C26215454   3.708   7.327   2.151  0.1243  0.3138  0.3526
   37MOL   C26315455   3.750   7.389   2.267  0.7639 -0.1352  0.5555
   37MOL   C26415456   4.233   7.401   2.585 -0.8291  0.4488 -0.3188
   37MOL   H26515457   4.087   7.358   2.435  1.7277  1.6039 -0.9906
   37MOL   H26615458   4.050   7.545   2.295 -0.8845 -0.1378 -0.6027
   37MOL   H26715459   4.009   7.700   2.362 -0.3771 -0.1064 -2.5849
   37MOL   H26815460   3.876   7.674   2.131  0.1625 -0.8913  1.6356
   37MOL   H26915461   3.802   7.567   1.929 -0.7230 -1.0726 -0.4670
   37MOL   H27015462   3.702   7.330   1.942  0.4821 -1.7435  0.0025
   37MOL   H27115463   3.680   7.223   2.159 -2.3072  0.7474 -1.7672
   37MOL   H27215464   3.743   7.343   2.364 -0.4815 -0.3544  0.3802
   37MOL   H27315465   4.248   7.458   2.676 -1.7148 -1.1066  0.8069
   37MOL   H27415466   4.244   7.295   2.606  1.4079  0.5780 -0.7099
   37MOL   C27515467   4.355   7.420   2.495  0.4637 -0.1078 -0.2782
   37MOL   O27615468   4.354   7.329   2.388  0.2378 -0.2293  0.5601
   37MOL   C27715469   4.462   7.246   2.375  0.2397  0.2451 -0.0182
   37MOL   O27815470   4.475   7.158   2.481 -0.1298  0.4747  0.3089
   37MOL   C27915471   4.395   7.044   2.493  0.4454  0.3241  0.1651
   37MOL   C28015472   4.386   6.986   2.622  0.4021  0.1772 -0.8221
   37MOL   C28115473   4.321   6.862   2.633 -1.2709  0.6873 -0.1486
   37MOL   C28215474   4.247   6.806   2.526  0.2587  0.0738  0.2335
   37MOL   C28315475   4.249   6.871   2.399  0.6687 -0.6842 -0.3878
   37MOL   C28415476   4.321   6.989   2.387  0.4301 -0.2307 -0.8505
   37MOL   C28515477   4.368   7.567   2.440  0.3869 -0.3238 -0.2586
   37MOL   H28615478   4.442   7.389   2.552  0.2073  0.9848  0.7188
   37MOL   H28715479   4.549   7.311   2.385 -0.2014  1.0604 -1.4368
   37MOL   H28815480   4.468   7.195   2.279  0.6962 -1.7776  1.0622
   37MOL   H28915481   4.446   7.022   2.704 -0.5879  0.1216 -0.0780
   37MOL   H29015482   4.316   6.805   2.724 -2.5101  0.4537 -0.3606
   37MOL   H29115483   4.191   6.715   2.541 -0.2234  0.1484 -1.0378
   37MOL   H29215484   4.197   6.828   2.315 -0.8132 -1.9277  1.1358
   37MOL   H29315485   4.305   7.048   2.298 -2.5448  0.4126  0.0586
   37MOL   H29415486   4.279   7.593   2.382 -0.2899  0.2018  1.0033
   37MOL   H29515487   4.443   7.560   2.360 -0.0947 -2.6727 -0.5245
   37MOL   C29615488   4.388   7.681   2.546  0.7968 -1.3041  0.7116
   37MOL   O29715489   4.520   7.664   2.598  0.3623 -0.3953 -0.3008
   37MOL   C29815490   4.542   7.638   2.730 -0.2263 -0.6390 -0.9435
   37MOL   O29915491   4.478   7.728   2.815 -0.1964 -0.0450 -0.6242
   37MOL   C30015492   4.532   7.854   2.837 -0.0196 -0.2458  0.0545
   37MOL   C30115493   4.507   7.921   2.955  0.4403 -1.2900 -0.1248
   37MOL   C30215494   4.567   0.065   2.988  0.0558  1.2244  0.1077
   37MOL   C30315495   4.655   0.124   2.898 -0.5673 -0.2479  1.2686
   37MOL   C30415496   4.682   0.061   2.772  0.2259 -0.8506  0.2581
   37MOL   C30515497   4.622   7.917   2.740  0.5762 -0.2693 -0.2998
   37MOL   C30615498   4.368   7.819   2.490  0.5249 -0.6458 -0.1901
   37MOL   H30715499   4.317   7.666   2.629 -1.7502 -0.4800 -1.2444
   37MOL   H30815500   4.648   7.646   2.755 -0.5683  0.3007  0.2404
   37MOL   H30915501   4.513   7.538   2.764 -1.7250 -0.0516 -0.4490
   37MOL   H31015502   4.432   7.884   3.024  0.4547 -0.4874  0.3324
   37MOL   H31115503   4.543   0.121   3.077 -0.8988 -0.4229  0.8998
   37MOL   H31215504   4.702   0.217   2.928  0.8292  0.1966 -2.0203
   37MOL   H31315505   4.750   0.108   2.703  2.0240 -2.2858  1.0123
   37MOL   H31415506   4.646   7.869   2.646  3.5745  0.8210 -0.1498
   37MOL   H31515507   4.404   7.824   2.387  0.0821  1.8684 -0.2479
   37MOL   H31615508   4.442   7.868   2.553  1.2732 -1.0669 -0.7320
   37MOL   C31715509   4.236   7.876   2.501  0.1186 -0.2773 -0.5093
   37MOL   O31815510   4.221   0.007   2.410  0.0452  0.1815  0.5695
   37MOL   C31915511   4.163   7.954   2.290 -0.1316 -0.0834 -0.0779
   37MOL   O32015512   4.238   7.868   2.212  0.7672 -0.7101 -0.0956
   37MOL   C32115513   4.176   7.818   2.103 -0.5417  0.0083  0.3537
   37MOL   C32215514   4.251   7.720   2.030  0.3491 -0.4768  0.1374
   37MOL   C32315515   4.208   7.682   1.902 -0.2905 -0.0046 -0.2855
   37MOL   C32415516   4.085   7.728   1.852  0.4052 -0.0825 -0.6436
   37MOL   C32515517   4.004   7.810   1.933 -0.4243  0.1541  0.4830
   37MOL   C32615518   4.055   7.868   2.050  0.6159  0.1111 -0.0883
   37MOL   C32715519   4.199   7.926   2.644  0.3106  0.1418 -0.0000
   37MOL   H32815520   4.158   7.801   2.491 -1.2779  0.9775  0.8289
   37MOL   H32915521   4.164   0.076   2.242 -1.3705 -0.6053 -1.2056
   37MOL   H33015522   4.058   7.925   2.299 -0.8196  1.6639 -1.9699
   37MOL   H33115523   4.351   7.688   2.057 -0.7249 -2.4505  1.8802
   37MOL   H33215524   4.270   7.616   1.844  1.0044  1.8514 -1.0545
   37MOL   H33315525   4.040   7.692   1.761 -2.7005 -3.2074  1.9815
   37MOL   H33415526   3.908   7.843   1.897 -1.0399 -2.4269 -0.3805
   37MOL   H33515527   3.999   7.949   2.094  1.1620  0.5207 -0.1340
   37MOL   H33615528   4.233   7.851   2.716  2.1930  0.4472 -0.5543
   37MOL   H33715529   4.261   0.035   2.673 -0.8338 -0.1907  3.7035
   37MOL   C33815530   4.047   7.965   2.663  0.3028 -0.2243 -1.0253
   37MOL   O33915531   3.972   7.848   2.649  0.5458  0.1760  0.0593
   37MOL   C34015532   3.846   7.855   2.577 -0.0685 -0.4401  1.0538
   37MOL   O34115533   3.860   7.914   2.448 -0.3883 -0.7064 -0.0891
   37MOL   C34215534   3.744   7.929   2.372  0.0417 -0.2688 -0.1884
   37MOL   C34315535   3.751   0.034   2.253 -0.1785 -0.5751  0.8733
   37MOL   C34415536   3.638   0.051   2.172 -0.0247  0.1329 -0.3266
   37MOL   C34515537   3.515   7.972   2.212 -0.5338 -0.4529  0.1870
   37MOL   C34615538   3.502   7.906   2.334 -0.1284  0.4024 -0.3831
   37MOL   C34715539   3.615   7.880   2.413 -0.1717 -0.5019  0.1023
   37MOL   C34815540   4.037   0.064   2.797  0.4722 -0.0641 -0.2912
   37MOL   H34915541   4.029   0.055   2.578  2.1668  0.3420 -1.0100
   37MOL   H35015542   3.764   7.899   2.633 -0.3671 -0.5979  0.7450
   37MOL   H35115543   3.834   7.748   2.561 -0.8497 -0.5289  2.2720
   37MOL   H35215544   3.843   0.085   2.231 -0.4456 -0.7430 -0.7064
   37MOL   H35315545   3.641   0.115   2.085 -2.0504 -0.1405 -0.6202
   37MOL   H35415546   3.430   0.013   2.148 -0.9817  0.1129  0.9114
   37MOL   H35515547   3.404   7.870   2.362 -0.5319  1.9407  0.2836
   37MOL   H35615548   3.601   7.821   2.502  2.4999 -1.2472  0.0682
   37MOL   H35715549   4.093   0.156   2.781 -1.4444  1.1915  0.0310
   37MOL   H35815550   4.085   0.007   2.877 -0.9087  0.0687  0.6472
   37MOL   C35915551   3.907   0.124   2.841 -0.8600  0.3202  0.1248
   37MOL   O36015552   3.874   0.243   2.771 -0.3747  0.1943 -0.4855
   37MOL   C36115553   3.760   0.239   2.696 -0.5698  0.3747  0.0264
   37MOL   O36215554   3.644   0.229   2.770 -0.2295 -0.1346  0.0993
   37MOL   C36315555   3.528   0.270   2.715  0.0600  0.4677  0.4652
   37MOL   C36415556   3.423   0.316   2.797 -0.3052 -0.3497 -0.4586
   37MOL   C36515557   3.306   0.380   2.744 -0.2063  0.2714  0.8047
   37MOL   C36615558   3.294   0.384   2.604 -0.5094 -0.5350  0.3025
   37MOL   C36715559   3.386   0.321   2.521  0.0333  0.3200  0.3549
   37MOL   C36815560   3.506   0.265   2.576  0.1795 -0.2976  0.4785
   37MOL   C36915561   3.903   0.145   2.999 -0.6453  0.3623  0.6263
   37MOL   H37015562   3.836   0.048   2.809 -0.7936  0.7331 -1.0094
   37MOL   H37115563   3.757   0.150   2.633 -1.3168  0.1066  0.4354
   37MOL   H37215564   3.747   0.326   2.632 -0.7839  0.7533  0.5887
   37MOL   H37315565   3.424   0.317   2.905 -0.1188  0.4675 -0.4625
   37MOL   H37415566   3.228   0.420   2.807  0.4275 -1.4119  2.7425
   37MOL   H37515567   3.205   0.425   2.559  0.1597 -1.8654 -2.3858
   37MOL   H37615568   3.369   0.316   2.415 -0.8855 -1.1820  0.5633
   37MOL   H37715569   3.576   0.226   2.503  0.7073  3.1840 -0.9514
   37MOL   H37815570   3.959   0.233   3.029  2.9559 -1.8240  0.5706
   37MOL   H37915571   3.938   0.052   3.042 -0.8225 -0.6516 -1.3509
   37MOL   C38015572   3.761   0.163   3.059  0.2455 -0.3549 -0.2022
   37MOL   O38115573   3.782   0.252   3.170  0.0717  0.3008  0.2135
   37MOL   C38215574   3.769   0.386   3.132 -0.0225 -0.8151  0.1412
   37MOL   O38315575   3.632   0.426   3.106  0.0289 -0.3171 -0.0237
   37MOL   C38415576   3.545   0.448   3.209  0.4235  0.4504  0.4956
   37MOL   C38515577   3.560   0.396   3.340  0.8546 -0.7103 -0.6468
   37MOL   C38615578   3.459   0.397   3.441 -0.4882  0.8604 -0.1427
   37MOL   C38715579   3.338   0.462   3.411  0.7115 -0.3653  0.0291
   37MOL   C38815580   3.321   0.527   3.289 -0.5463 -0.1542 -0.2189
   37MOL   C38915581   3.424   0.516   3.190 -0.6204  0.0867  1.2830
   37MOL   C39015582   3.695   0.025   3.088 -0.3931 -0.6768  0.4772
   37MOL   H39115583   3.688   0.206   2.990 -0.4484  0.3472  0.9492
   37MOL   H39215584   3.804   0.454   3.210  0.4667 -0.2285 -0.5802
   37MOL   H39315585   3.829   0.406   3.043 -1.1498  1.3480 -0.1573
   37MOL   H39415586   3.660   0.365   3.366  1.1723 -1.1084 -2.2488
   37MOL   H39515587   3.477   0.361   3.541 -0.8880 -0.3150 -0.4824
   37MOL   H39615588   3.253   0.455   3.478  0.0600 -0.1174 -0.7697
   37MOL   H39715589   3.229   0.579   3.268 -0.3517 -0.3998 -1.7608
   37MOL   H39815590   3.416   0.567   3.096  0.2739  1.7894  2.1123
   37MOL   H39915591   3.771   7.941   3.139 -0.2016  0.7788  1.9192
   37MOL   H40015592   3.663   7.960   2.992 -1.0167  0.2199  0.3077
   37MOL   C40115593   3.564   0.029   3.168 -0.5488 -0.3057  0.2806
   37MOL   O40215594   3.474   7.908   3.133 -0.0853  0.9880 -0.2037
   37MOL   C40315595   3.358   7.962   3.075  0.2755 -0.3221  0.2820
   37MOL   O40415596   3.289   0.057   3.169  0.3421 -0.0431  0.1063
   37MOL   C40515597   3.202   0.152   3.126  0.6338  0.1678  0.1782
   37MOL   C40615598   3.159   0.177   2.991  0.1210 -0.4764 -0.2724
   37MOL   C40715599   3.056   0.272   2.970  0.6235 -0.4485  0.2996
   37MOL   C40815600   3.010   0.356   3.074 -1.0272  0.8462 -0.2044
   37MOL   C40915601   3.063   0.337   3.201  0.3039 -0.1731 -1.0781
   37MOL   C41015602   3.151   0.231   3.229 -0.2896 -0.2560 -0.1866
   37MOL   C41115603   3.593   0.010   3.313  0.0253  0.2687 -0.3341
   37MOL   H41215604   3.521   0.129   3.161 -0.0286 -0.2463 -2.6623
   37MOL   H41315605   3.288   7.890   3.034  0.9076 -0.2187 -1.0087
   37MOL   H41415606   3.385   0.057   2.996  0.2432 -0.2627  0.3231
   37MOL   H41515607   3.192   0.103   2.919 -1.2885 -2.4960  1.1346
   37MOL   H41615608   3.032   0.304   2.870 -0.1844  1.5453  1.1183
   37MOL   H41715609   2.948   0.441   3.051  0.5740  2.2469  0.5943
   37MOL   H41815610   3.038   0.400   3.285  0.0672  0.9442 -1.9557
   37MOL   H41915611   3.177   0.208   3.331  2.7439  1.1298 -0.5918
   37MOL   H42015612   3.674   0.076   3.343  0.3071  0.3831 -1.3630
   37MOL   H42115613   3.617   7.886   3.352 -0.8055  0.5641  0.9688
   37MOL   H42215614   3.510   0.052   3.370  0.0759 -1.7152  1.2777
   38MOL     C115615   0.860   1.862   3.944 -0.4547 -0.5435  0.1478
   38MOL     O215616   0.834   1.739   3.895 -0.2768 -0.1141 -0.6774
   38MOL     C315617   0.706   1.696   3.902 -0.1624 -0.0605  0.3008
   38MOL     O415618   0.674   1.672   4.035 -0.2909 -0.6952  0.0930
   38MOL     C515619   0.716   1.554   4.090  0.0644  0.2002 -0.5917
   38MOL     C615620   0.624   1.507   4.185  0.2240  0.4175 -0.1629
   38MOL     C715621   0.648   1.387   4.255  0.0282  0.7315  0.5236
   38MOL     C815622   0.767   1.308   4.231  0.3345  0.0213 -0.0238
   38MOL     C915623   0.857   1.357   4.132  0.2931 -0.4170  0.1120
   38MOL    C1015624   0.836   1.481   4.061  0.4068 -0.0411  0.1656
   38MOL    C1115625   0.840   1.970   3.840  0.2740  0.5133 -0.6963
   38MOL    H1215626   0.801   1.887   4.032 -1.8798  0.9317 -1.1936
   38MOL    H1315627   0.632   1.762   3.858  0.4439 -0.0474 -0.7186
   38MOL    H1415628   0.700   1.603   3.846  0.1563  0.5488 -0.7622
   38MOL    H1515629   0.534   1.560   4.212 -0.6215 -2.1529  2.2277
   38MOL    H1615630   0.571   1.347   4.320  0.2417 -2.0137 -0.8263
   38MOL    H1715631   0.780   1.213   4.281 -0.4307 -0.1642 -0.1650
   38MOL    H1815632   0.949   1.309   4.104  0.4378  0.0361 -0.2025
   38MOL    H1915633   0.898   1.526   3.984  0.8852  0.7855  1.0261
   38MOL    H2015634   0.734   1.979   3.817  0.7457  0.2279 -3.1745
   38MOL    H2115635   0.887   1.930   3.750  0.9802  0.6851 -0.4058
   38MOL    H2215636   0.964   1.848   3.973 -0.7708  0.4338  1.7625
   38MOL    C2315637   0.902   2.109   3.886 -0.4806  0.2238 -0.0302
   38MOL    O2415638   0.798   2.203   3.939 -0.1358  0.2280 -1.1548
   38MOL    C2515639   0.769   2.208   4.075  0.0759  0.4703 -0.7873
   38MOL    O2615640   0.716   2.091   4.134  0.0876  0.4198 -0.2534
   38MOL    C2715641   0.584   2.057   4.100 -0.4095  0.1208 -0.3628
   38MOL    C2815642   0.537   1.936   4.156  0.3193 -0.1909  0.2577
   38MOL    C2915643   0.400   1.899   4.136 -0.5864 -0.0910  0.1001
   38MOL    C3015644   0.317   1.983   4.061 -0.2859 -0.4192 -0.0158
   38MOL    C3115645   0.366   2.106   4.011 -0.2907  0.0680  0.1176
   38MOL    C3215646   0.499   2.141   4.028 -0.0506  0.1264 -0.0228
   38MOL    C3315647   0.969   2.196   3.767 -0.4970  0.2207  0.2230
   38MOL    H3415648   0.975   2.090   3.964  0.6007  0.5283 -0.9549
   38MOL    H3515649   0.708   2.297   4.092 -0.2356 -0.0370  0.8430
   38MOL    H3615650   0.867   2.229   4.117 -0.2065  0.3253 -0.0368
   38MOL    H3715651   0.593   1.870   4.222  1.0528  0.3793  0.2189
   38MOL    H3815652   0.352   1.808   4.169  1.4188 -1.2525 -0.1063
   38MOL    H3915653   0.221   1.948   4.026 -0.4814  0.2243 -0.1398
   38MOL    H4015654   0.295   2.169   3.960 -1.0722 -1.3607 -0.5796
   38MOL    H4115655   0.527   2.237   3.988 -1.5344  0.4108 -0.3974
   38MOL    H4215656   0.895   2.200   3.688 -1.5951 -3.9585  0.9127
   38MOL    H4315657   1.055   2.144   3.725 -1.5701 -1.9815  0.6412
   38MOL    C4415658   1.012   2.340   3.803  0.5133  0.0459 -0.1200
   38MOL    O4515659   1.091   2.399   3.701  0.0948 -1.1095 -0.2080
   38MOL    C4615660   1.023   2.476   3.612 -0.5520 -0.5011  0.4142
   38MOL    O4715661   0.938   2.401   3.530  0.2693  0.1257 -0.4808
   38MOL    C4815662   0.993   2.333   3.425  0.2378 -0.1462  0.6718
   38MOL    C4915663   1.130   2.334   3.392  0.2654 -0.1976 -0.8700
   38MOL    C5015664   1.176   2.267   3.276  0.4004  0.9613 -0.2216
   38MOL    C5115665   1.085   2.194   3.198  0.2217  0.1374  0.0749
   38MOL    C5215666   0.949   2.194   3.229 -0.1882 -0.8065 -0.1497
   38MOL    C5315667   0.902   2.262   3.343  0.5921  0.2369 -0.5523
   38MOL    C5415668   1.103   2.346   3.926 -0.1287  0.0607  0.1379
   38MOL    H5515669   0.928   2.405   3.827  0.6618  0.0624  0.3646
   38MOL    H5615670   1.097   2.534   3.558 -0.1537  0.3890  1.9045
   38MOL    H5715671   0.970   2.549   3.674  3.4052  2.3586  0.5691
   38MOL    H5815672   1.205   2.384   3.451  0.0785 -0.7907 -0.1245
   38MOL    H5915673   1.282   2.279   3.260  0.2677  2.7277  0.0617
   38MOL    H6015674   1.119   2.142   3.109 -0.5832 -0.5402  0.1598
   38MOL    H6115675   0.872   2.138   3.179 -0.9130 -0.1086  0.1635
   38MOL    H6215676   0.797   2.256   3.366  0.3441  2.9170 -0.7974
   38MOL    H6315677   1.055   2.281   3.999 -0.8881 -0.5553 -0.8951
   38MOL    H6415678   1.190   2.289   3.894 -0.1338 -0.3166  0.7797
   38MOL    C6515679   1.113   2.479   3.988  0.0785  0.2214  0.6017
   38MOL    O6615680   0.995   2.513   4.050  0.0020 -0.4316  0.3251
   38MOL    C6715681   0.959   2.650   4.063  0.3770 -0.6891 -0.5042
   38MOL    O6815682   0.912   2.703   3.940 -0.4974 -0.3542  0.0506
   38MOL    C6915683   0.788   2.670   3.897  0.8278 -0.8966 -0.4126
   38MOL    C7015684   0.717   2.554   3.939  0.4167 -0.2393  0.2845
   38MOL    C7115685   0.600   2.515   3.874 -0.1944 -0.4053 -0.0827
   38MOL    C7215686   0.541   2.609   3.790 -0.6074 -0.2615 -0.2519
   38MOL    C7315687   0.595   2.736   3.769  0.8520  0.5941  1.1443
   38MOL    C7415688   0.723   2.761   3.806  1.1178 -0.2570  0.4572
   38MOL    C7515689   1.220   2.485   4.096 -0.4852  0.4300 -0.0726
   38MOL    H7615690   1.122   2.559   3.915  2.0791  0.8662  1.4977
   38MOL    H7715691   1.049   2.702   4.097 -1.8044 -0.0786  4.7686
   38MOL    H7815692   0.890   2.650   4.147 -0.5626  1.0732 -1.2456
   38MOL    H7915693   0.763   2.482   4.005 -1.3631 -0.5709  1.2016
   38MOL    H8015694   0.563   2.414   3.888  1.2650 -0.6128  2.4305
   38MOL    H8115695   0.447   2.585   3.743 -1.3063  1.2479  0.3318
   38MOL    H8215696   0.536   2.801   3.706  0.6611  1.1217  1.8649
   38MOL    H8315697   0.776   2.853   3.789  1.0459 -0.9267 -3.7569
   38MOL    H8415698   1.211   2.555   4.179 -0.3386 -1.4067  1.5393
   38MOL    H8515699   1.212   2.393   4.154  0.2127  0.8896  0.7573
   38MOL    C8615700   1.367   2.497   4.049  0.2850 -0.2121  0.0329
   38MOL    O8715701   1.386   2.629   4.000 -0.3111 -0.0984  0.0942
   38MOL    C8815702   1.450   2.654   3.878  0.5448  0.1561  0.4657
   38MOL    O8915703   1.374   2.635   3.761  0.2630 -0.2242  0.2895
   38MOL    C9015704   1.285   2.730   3.724  0.0444  0.7896  0.8183
   38MOL    C9115705   1.211   2.802   3.818 -0.2456 -0.6805  0.5092
   38MOL    C9215706   1.114   2.893   3.779  0.1651 -0.4729  0.2704
   38MOL    C9315707   1.103   2.926   3.641 -0.3795 -0.2031  0.9480
   38MOL    C9415708   1.169   2.849   3.543 -1.1861  0.6138  0.2972
   38MOL    C9515709   1.261   2.752   3.588  0.0890  0.0986  0.2020
   38MOL    C9615710   1.472   2.492   4.167 -0.5985 -0.2704 -1.2299
   38MOL    H9715711   1.392   2.440   3.959  0.7023 -0.5334  0.3482
   38MOL    H9815712   1.541   2.593   3.867  1.4143  1.5784 -0.4354
   38MOL    H9915713   1.500   2.751   3.875  1.8041 -0.4662  0.7402
   38MOL   H10015714   1.234   2.792   3.923  0.9944  0.9832  0.4145
   38MOL   H10115715   1.048   2.939   3.851 -0.5936 -2.8038  1.1123
   38MOL   H10215716   1.027   3.000   3.620  0.9442  0.8442 -0.2791
   38MOL   H10315717   1.156   2.863   3.436 -3.2817 -0.5156  0.3895
   38MOL   H10415718   1.313   2.686   3.519 -1.4538 -0.5350 -0.3776
   38MOL   H10515719   1.561   2.538   4.124  1.5399 -0.3125  2.8689
   38MOL   H10615720   1.451   2.551   4.256  1.6850 -0.8303 -0.2769
   38MOL   C10715721   1.502   2.342   4.204 -0.5307 -0.4317  0.4353
   38MOL   O10815722   1.558   2.274   4.091  0.0469 -0.3331 -0.0324
   38MOL   C10915723   1.475   2.169   4.044  0.1424 -0.8241  0.3247
   38MOL   O11015724   1.539   2.095   3.942  0.5735  0.6545  0.6978
   38MOL   C11115725   1.457   2.004   3.869  0.3492 -0.1308 -0.6286
   38MOL   C11215726   1.517   1.950   3.761  0.4394 -0.4460  0.3939
   38MOL   C11315727   1.442   1.864   3.675 -0.0269  0.2469 -0.2362
   38MOL   C11415728   1.305   1.832   3.699  0.6909 -0.4923 -0.3148
   38MOL   C11515729   1.249   1.889   3.815  0.1756 -0.1682 -0.1506
   38MOL   C11615730   1.324   1.972   3.901 -0.5248  0.1109 -0.0341
   38MOL   C11715731   1.606   2.317   4.318 -0.1493  0.8144 -0.7917
   38MOL   H11815732   1.406   2.299   4.233 -0.9751  1.3507  1.6802
   38MOL   H11915733   1.378   2.207   4.011  1.0223 -0.0559 -1.4371
   38MOL   H12015734   1.454   2.101   4.126  2.6323  0.1403  1.8141
   38MOL   H12115735   1.623   1.957   3.746  0.3307  2.1784  0.6960
   38MOL   H12215736   1.495   1.819   3.593  0.1366  1.9701 -1.0756
   38MOL   H12315737   1.252   1.766   3.631  0.0894 -1.6841  1.2750
   38MOL   H12415738   1.143   1.872   3.828  0.4733 -0.2719  2.3866
   38MOL   H12515739   1.280   2.015   3.990  0.6750 -0.1155  0.6825
   38MOL   H12615740   1.591   2.378   4.408  3.3484  0.4171  0.1110
   38MOL   H12715741   1.700   2.351   4.275 -0.0904  1.2398 -0.3317
   38MOL   C12815742   1.627   2.173   4.381  0.2954 -0.1909 -0.4676
   38MOL   O12915743   1.507   2.131   4.438  0.1712 -0.2840  0.0710
   38MOL   C13015744   1.468   2.000   4.434 -0.3362  0.1241  0.2714
   38MOL   O13115745   1.383   1.963   4.327  0.6689 -0.3489  0.0547
   38MOL   C13215746   1.252   1.999   4.327  0.3031  0.1704 -0.4015
   38MOL   C13315747   1.168   1.929   4.241 -0.4166 -0.4178  0.0608
   38MOL   C13415748   1.028   1.934   4.251 -0.7598  0.1941 -0.3856
   38MOL   C13515749   0.975   2.022   4.348 -0.0745  0.0683  0.5585
   38MOL   C13615750   1.054   2.107   4.428  0.3291 -0.9777 -0.1617
   38MOL   C13715751   1.196   2.089   4.426 -0.4528 -0.3555  0.0354
   38MOL   C13815752   1.747   2.180   4.485 -0.6273  0.0912  0.1413
   38MOL   H13915753   1.655   2.108   4.298 -0.4976 -0.3920 -0.5742
   38MOL   H14015754   1.407   1.985   4.523  0.4121 -2.3211  0.4019
   38MOL   H14115755   1.553   1.932   4.441 -0.3478  0.0523 -0.2735
   38MOL   H14215756   1.207   1.850   4.179  0.8681  0.4078 -0.1880
   38MOL   H14315757   0.960   1.887   4.181  0.4598 -1.4933 -0.4788
   38MOL   H14415758   0.869   2.037   4.358 -0.2105  1.0069 -1.9876
   38MOL   H14515759   1.018   2.184   4.495  1.4485 -1.2225  0.7362
   38MOL   H14615760   1.263   2.145   4.489  1.1399  0.2093 -2.1036
   38MOL   H14715761   1.819   2.257   4.458 -0.2456 -0.7360 -1.2757
   38MOL   H14815762   1.711   2.217   4.581 -1.9805  1.0754 -0.7317
   38MOL   C14915763   1.826   2.045   4.487  0.1050 -0.0796  0.2355
   38MOL   O15015764   1.920   2.031   4.377 -0.0757 -0.1107  0.3396
   38MOL   C15115765   1.915   1.911   4.303  0.3580 -0.3022  0.3127
   38MOL   O15215766   1.795   1.910   4.227 -0.0201 -0.5994  0.3625
   38MOL   C15315767   1.759   1.795   4.166 -0.1540 -0.0515  0.6740
   38MOL   C15415768   1.631   1.798   4.114 -0.8919  0.2699 -0.1042
   38MOL   C15515769   1.577   1.681   4.057  0.5216 -0.2081 -0.6805
   38MOL   C15615770   1.649   1.557   4.059  0.4095  0.4395 -0.3985
   38MOL   C15715771   1.779   1.552   4.109  0.2892 -0.2034 -0.1221
   38MOL   C15815772   1.836   1.669   4.163  0.3900  0.6950  0.5267
   38MOL   C15915773   1.902   2.030   4.617 -0.4113  0.0818 -0.5244
   38MOL   H16015774   1.756   1.961   4.486  2.8825 -2.5067  1.5094
   38MOL   H16115775   1.993   1.908   4.227 -0.5773 -1.5913 -0.6246
   38MOL   H16215776   1.924   1.826   4.371 -2.7479 -0.6480  0.3575
   38MOL   H16315777   1.574   1.890   4.111  0.8791  1.3609 -0.6587
   38MOL   H16415778   1.478   1.678   4.014  0.6861 -0.5800 -1.0327
   38MOL   H16515779   1.607   1.465   4.021 -0.1578 -0.1223  1.5082
   38MOL   H16615780   1.836   1.461   4.100  1.8969  0.7774 -0.0117
   38MOL   H16715781   1.938   1.676   4.195  0.5006  0.6084  0.1985
   38MOL   H16815782   1.816   2.046   4.682 -2.3531 -1.4146 -2.6614
   38MOL   H16915783   1.970   2.115   4.626 -0.9424  0.6140 -1.4830
   38MOL   C17015784   1.969   1.900   4.651 -0.0142 -0.3321 -0.4684
   38MOL   O17115785   2.025   1.914   4.780  0.4897 -0.6661  0.0195
   38MOL   C17215786   2.146   1.982   4.799 -0.3483  0.9495 -0.4845
   38MOL   O17315787   2.251   1.903   4.749  0.3583 -0.1512  0.0967
   38MOL   C17415788   2.292   1.805   4.842 -0.5355 -0.3732  0.1854
   38MOL   C17515789   2.423   1.762   4.850  0.0889  0.1061  0.6780
   38MOL   C17615790   2.465   1.677   4.953  0.3230 -0.8068  0.2476
   38MOL   C17715791   2.370   1.621   5.048  0.1185  0.3388  0.5329
   38MOL   C17815792   2.237   1.665   5.041 -0.5108 -0.5013  0.3289
   38MOL   C17915793   2.200   1.750   4.937  0.2777  0.1754 -0.1208
   38MOL   C18015794   1.889   1.775   4.652  1.1564  0.3407 -0.7974
   38MOL   H18115795   2.043   1.877   4.575  0.2180 -1.0659 -0.0263
   38MOL   H18215796   2.165   2.016   4.901 -0.3140 -1.9537  0.5190
   38MOL   H18315797   2.150   2.073   4.738 -0.1202  1.2448 -0.0310
   38MOL   H18415798   2.488   1.807   4.776 -2.5297  0.1836 -1.6588
   38MOL   H18515799   2.569   1.650   4.964  0.6277 -0.1531 -0.9146
   38MOL   H18615800   2.400   1.563   5.134  0.2916 -2.4275 -1.3513
   38MOL   H18715801   2.156   1.629   5.104 -0.6905 -0.4245  0.1416
   38MOL   H18815802   2.094   1.771   4.933 -0.5583 -3.6813  0.1450
   38MOL   H18915803   1.827   1.787   4.741  0.9057  0.9964 -1.0570
   38MOL   H19015804   1.824   1.763   4.565  1.7065 -1.3438 -1.0000
   38MOL   C19115805   1.979   1.651   4.666 -0.0832 -0.6001  0.2242
   38MOL   O19215806   2.048   1.629   4.542  0.3521  0.1995  0.0964
   38MOL   C19315807   2.180   1.591   4.558  0.5721 -0.5975  0.2513
   38MOL   O19415808   2.182   1.467   4.600 -0.1394 -0.4091  0.4977
   38MOL   C19515809   2.301   1.398   4.627  0.0388  0.3635 -0.0762
   38MOL   C19615810   2.292   1.267   4.669 -0.3280  0.0365 -0.3988
   38MOL   C19715811   2.409   1.195   4.700  0.0027  0.1323  0.5198
   38MOL   C19815812   2.541   1.249   4.693 -0.5853 -1.1621  0.1290
   38MOL   C19915813   2.551   1.383   4.645  0.1528 -0.6286  0.0366
   38MOL   C20015814   2.431   1.452   4.613  0.0484 -0.5433 -0.1203
   38MOL   C20115815   1.900   1.530   4.709  0.1425  0.3129  0.9054
   38MOL   H20215816   2.044   1.660   4.753  1.3347  1.7891 -1.0255
   38MOL   H20315817   2.231   1.655   4.630  0.4288  0.9609 -0.9952
   38MOL   H20415818   2.236   1.585   4.465 -0.2164 -1.2826 -0.1915
   38MOL   H20515819   2.196   1.218   4.678  0.1091 -0.9282 -0.9104
   38MOL   H20615820   2.394   1.094   4.735  0.6562  0.6155  2.2901
   38MOL   H20715821   2.630   1.192   4.712  0.6757  0.2154 -1.4807
   38MOL   H20815822   2.646   1.435   4.638 -0.4418  0.1905 -2.3125
   38MOL   H20915823   2.444   1.555   4.583 -1.2406 -0.4474 -0.3651
   38MOL   H21015824   1.820   1.511   4.637  1.7194  0.1199 -0.8611
   38MOL   H21115825   1.978   1.454   4.704  0.1982  0.4435 -0.5793
   38MOL   C21215826   1.846   1.526   4.851  0.2932  0.1188 -0.6363
   38MOL   O21315827   1.730   1.607   4.842 -0.2132 -0.1902 -0.1542
   38MOL   C21415828   1.705   1.683   4.961 -0.3833  0.7443 -0.1285
   38MOL   O21515829   1.591   1.760   4.955 -0.2484  0.4233  0.2197
   38MOL   C21615830   1.534   1.803   5.066 -0.0314  0.4119  0.0247
   38MOL   C21715831   1.595   1.800   5.198  0.4149 -0.1477 -0.2250
   38MOL   C21815832   1.523   1.838   5.308  0.3569  0.2208  0.0558
   38MOL   C21915833   1.379   1.860   5.291 -0.0196  0.4385 -0.2757
   38MOL   C22015834   1.321   1.852   5.165 -0.3314  0.5639  0.0074
   38MOL   C22115835   1.394   1.824   5.053 -0.3393  0.0925  0.4852
   38MOL   C22215836   1.792   1.387   4.896  0.0897 -0.2287 -0.4247
   38MOL   H22315837   1.914   1.559   4.929  0.5336 -0.0514 -0.7746
   38MOL   H22415838   1.782   1.760   4.970  0.6450 -0.3376  0.4949
   38MOL   H22515839   1.712   1.629   5.055 -1.0485  2.0017  0.6590
   38MOL   H22615840   1.700   1.778   5.206  0.6011  0.3698 -1.1328
   38MOL   H22715841   1.570   1.844   5.405 -0.9156  1.1204  0.6242
   38MOL   H22815842   1.321   1.878   5.380  0.9185  0.2351  0.3784
   38MOL   H22915843   1.213   1.850   5.159 -0.2437 -4.3373 -2.4332
   38MOL   H23015844   1.338   1.815   4.961  1.5651 -0.8374 -0.6117
   38MOL   H23115845   1.739   1.406   4.989  3.4345  3.1969  0.9444
   38MOL   H23215846   1.717   1.350   4.827  1.0587 -1.7956 -0.6648
   38MOL   C23315847   1.907   1.285   4.919 -0.5721 -0.7096 -0.1235
   38MOL   O23415848   2.003   1.344   5.012  1.0051  0.7859 -0.1996
   38MOL   C23515849   2.147   1.324   4.989 -0.1613 -0.7328  0.3470
   38MOL   O23615850   2.189   1.193   4.999  0.1202  0.2031 -0.7489
   38MOL   C23715851   2.309   1.172   5.063 -0.9662 -0.3448  0.0764
   38MOL   C23815852   2.424   1.254   5.046  0.1736  0.2325 -0.3866
   38MOL   C23915853   2.546   1.224   5.114 -0.0498  0.4822 -0.6311
   38MOL   C24015854   2.556   1.105   5.192  0.2451  0.4742  0.2370
   38MOL   C24115855   2.444   1.021   5.211  0.0924  0.6295 -0.3075
   38MOL   C24215856   2.322   1.056   5.142  0.0785 -0.1541 -0.5008
   38MOL   C24315857   1.861   1.162   4.983  0.7474 -0.1240 -0.5023
   38MOL   H24415858   1.968   1.255   4.834  0.3436  0.7994 -0.0323
   38MOL   H24515859   2.195   1.371   5.074  1.8880 -2.4759  0.1884
   38MOL   H24615860   2.171   1.362   4.890 -0.8176 -1.9381 -0.2954
   38MOL   H24715861   2.420   1.337   4.976 -1.1306 -0.2553 -0.9080
   38MOL   H24815862   2.628   1.289   5.087  0.5197  0.7601  1.6579
   38MOL   H24915863   2.644   1.073   5.245  0.0462  0.2144  0.4111
   38MOL   H25015864   2.462   0.929   5.265  0.9108  1.8272  1.4955
   38MOL   H25115865   2.236   0.991   5.145  0.5770 -0.7734  1.0115
   38MOL   H25215866   1.939   1.105   5.033  1.2941  0.2920 -0.8847
   38MOL   H25315867   1.802   1.201   5.066  0.7496 -1.7817  0.3106
   38MOL   C25415868   1.789   1.064   4.895 -0.5102  1.0530  0.3534
   38MOL   O25515869   1.892   0.991   4.827  0.0873 -0.8572 -0.1860
   38MOL   C25615870   1.866   0.976   4.690 -0.8123 -0.2247  0.4660
   38MOL   O25715871   1.902   1.095   4.634  0.0155 -0.1479  0.2990
   38MOL   C25815872   1.858   1.120   4.505 -0.5102  0.0298 -0.3264
   38MOL   C25915873   1.820   1.023   4.409  0.0058 -0.1637  0.1880
   38MOL   C26015874   1.756   1.060   4.286 -0.5633 -0.1861  0.5757
   38MOL   C26115875   1.730   1.195   4.255  0.1318  0.1883  0.2656
   38MOL   C26215876   1.765   1.289   4.353  0.3232 -0.5248  0.4614
   38MOL   C26315877   1.830   1.254   4.475  0.4803 -0.6794 -0.6015
   38MOL   C26415878   1.710   0.948   4.963  0.0784  0.1799 -0.2633
   38MOL   H26515879   1.718   1.120   4.833 -1.8323  1.6467  2.3726
   38MOL   H26615880   1.767   0.933   4.677 -0.7559 -0.7254  1.6061
   38MOL   H26715881   1.939   0.900   4.661 -0.0061  1.1169 -1.0719
   38MOL   H26815882   1.835   0.919   4.433 -1.6594 -0.6803 -0.8492
   38MOL   H26915883   1.718   0.981   4.223 -0.1916  0.9067 -1.0539
   38MOL   H27015884   1.675   1.219   4.165  0.9237  0.4328 -0.1547
   38MOL   H27115885   1.747   1.394   4.337 -0.8953 -0.9194 -0.9288
   38MOL   H27215886   1.845   1.332   4.549  0.5354 -1.4314  0.1844
   38MOL   H27315887   1.682   0.871   4.891 -0.6114 -0.4925  0.7128
   38MOL   H27415888   1.783   0.896   5.026 -0.3550 -1.8769 -1.4139
   38MOL   C27515889   1.579   0.987   5.033  0.4334 -0.3536  0.6186
   38MOL   O27615890   1.482   0.997   4.930 -0.2335 -0.1014  0.2984
   38MOL   C27715891   1.400   1.112   4.919  0.1548 -0.3793 -0.6671
   38MOL   O27815892   1.295   1.120   5.014  0.1598 -0.0222 -0.5812
   38MOL   C27915893   1.192   1.031   5.002  0.4001  0.1912 -1.0146
   38MOL   C28015894   1.073   1.050   5.077 -0.4217  0.1456 -0.1965
   38MOL   C28115895   0.965   0.955   5.069 -0.9561 -0.0220  0.3452
   38MOL   C28215896   0.976   0.844   4.979 -0.2416  0.2256 -0.4780
   38MOL   C28315897   1.094   0.823   4.906 -0.4244  0.0784 -0.1234
   38MOL   C28415898   1.198   0.921   4.913  0.5543 -0.0322  0.4471
   38MOL   C28515899   1.542   0.872   5.135 -0.3897 -0.5762  0.3140
   38MOL   H28615900   1.588   1.084   5.082  0.9500  0.3565 -0.8670
   38MOL   H28715901   1.371   1.125   4.815  0.1307  0.8369 -0.5079
   38MOL   H28815902   1.457   1.201   4.944  0.0827 -0.5379  0.0875
   38MOL   H28915903   1.075   1.128   5.152 -0.7578 -1.3655  1.4173
   38MOL   H29015904   0.878   0.972   5.130 -1.6737  1.9382 -1.1785
   38MOL   H29115905   0.882   0.795   4.958  0.1595 -0.9697  0.4684
   38MOL   H29215906   1.106   0.738   4.841  0.5846  0.3563 -0.3084
   38MOL   H29315907   1.284   0.907   4.849  2.0033  2.1783  1.8451
   38MOL   H29415908   1.528   0.783   5.074 -0.4180  1.2772 -2.4923
   38MOL   H29515909   1.444   0.902   5.174 -1.3127 -2.8783 -0.1454
   38MOL   C29615910   1.642   0.851   5.247  0.7600 -0.5742  0.3298
   38MOL   O29715911   1.679   0.969   5.322  0.4490  0.1465 -0.4328
   38MOL   C29815912   1.807   1.024   5.304 -0.1500 -0.2509 -0.4374
   38MOL   O29915913   1.903   0.947   5.368  0.4919 -0.3611 -0.5473
   38MOL   C30015914   1.925   0.965   5.499  1.0135  0.0252 -0.8802
   38MOL   C30115915   2.056   0.936   5.544 -0.0830  0.1018  0.2915
   38MOL   C30215916   2.096   0.963   5.675 -0.1254 -0.5143 -0.2218
   38MOL   C30315917   2.005   1.024   5.768 -0.0945 -0.0921 -0.2595
   38MOL   C30415918   1.871   1.052   5.723 -0.6010 -1.2367 -0.3178
   38MOL   C30515919   1.834   1.033   5.588 -0.2624  0.1071  0.2641
   38MOL   C30615920   1.574   0.753   5.349 -0.9902  0.0421  0.3165
   38MOL   H30715921   1.730   0.800   5.209  2.2425  1.5258  0.8663
   38MOL   H30815922   1.808   1.130   5.327  0.3747 -0.2613 -0.4101
   38MOL   H30915923   1.835   1.013   5.200  1.2081 -0.1431 -0.0944
   38MOL   H31015924   2.118   0.872   5.484  0.0828  0.2050  0.3544
   38MOL   H31115925   2.199   0.947   5.701 -0.2697 -1.9645 -0.5527
   38MOL   H31215926   2.035   1.048   5.869 -1.1600 -0.8451  0.2465
   38MOL   H31315927   1.800   1.105   5.784  1.7205 -0.6896  2.0242
   38MOL   H31415928   1.740   1.073   5.554 -1.6383 -1.5931  1.9639
   38MOL   H31515929   1.566   0.652   5.308 -1.7375  0.2082  0.0486
   38MOL   H31615930   1.471   0.776   5.374 -0.5709  0.1936  1.8999
   38MOL   C31715931   1.666   0.725   5.470  0.8119 -0.2104 -1.5052
   38MOL   O31815932   1.756   0.622   5.428 -0.8448  0.8167  0.6347
   38MOL   C31915933   1.895   0.633   5.453  0.1011  0.3978  0.0321
   38MOL   O32015934   1.956   0.507   5.432  0.2551  0.6085 -0.0011
   38MOL   C32115935   1.975   0.465   5.298  0.1954  0.2658 -0.7437
   38MOL   C32215936   2.028   0.337   5.279 -0.0230 -0.6178  0.1819
   38MOL   C32315937   2.058   0.293   5.146 -0.3253 -0.1394  0.6950
   38MOL   C32415938   2.042   0.377   5.035 -0.1125 -0.5600  0.8141
   38MOL   C32515939   1.965   0.493   5.052  1.0153 -0.0722  0.1437
   38MOL   C32615940   1.940   0.535   5.184  0.0935  0.1738 -0.2292
   38MOL   C32715941   1.603   0.669   5.598  0.2024 -0.4431  0.0741
   38MOL   H32815942   1.712   0.815   5.510  2.9166 -1.7513 -0.3097
   38MOL   H32915943   1.913   0.662   5.557 -0.7809  1.7484 -0.1808
   38MOL   H33015944   1.948   0.710   5.397  3.1781 -0.3610  1.7762
   38MOL   H33115945   2.047   0.271   5.362  1.0618 -1.4426 -0.7029
   38MOL   H33215946   2.108   0.200   5.125  0.0473  0.1862  0.1369
   38MOL   H33315947   2.067   0.354   4.932 -3.1894 -2.0510  0.3161
   38MOL   H33415948   1.945   0.571   4.980  1.7381  0.1528  0.1828
   38MOL   H33515949   1.900   0.634   5.204  0.9172  0.7231 -1.2458
   38MOL   H33615950   1.565   0.568   5.582  0.3478 -0.2065 -1.9599
   38MOL   H33715951   1.681   0.669   5.674  1.1476  2.0976 -0.8376
   38MOL   C33815952   1.484   0.746   5.664 -0.0138  0.3208 -0.2314
   38MOL   O33915953   1.429   0.664   5.765  0.4000 -0.0993 -0.3071
   38MOL   C34015954   1.318   0.589   5.721  0.1454  0.2129  0.1183
   38MOL   O34115955   1.213   0.671   5.691  0.3290 -0.0090  0.2459
   38MOL   C34215956   1.137   0.715   5.791  0.3856  0.3584 -0.0436
   38MOL   C34315957   1.005   0.757   5.755  0.3068 -0.2728 -0.0694
   38MOL   C34415958   0.909   0.793   5.850 -0.2410  0.1259 -0.4990
   38MOL   C34515959   0.949   0.807   5.985  0.5572  0.3422  0.0990
   38MOL   C34615960   1.081   0.778   6.026  0.2059 -0.4007  0.1882
   38MOL   C34715961   1.174   0.724   5.927  0.0240  0.3736  0.2614
   38MOL   C34815962   1.520   0.879   5.721 -0.2299 -0.6583  0.1785
   38MOL   H34915963   1.414   0.761   5.582 -1.1888  1.4902  0.9509
   38MOL   H35015964   1.298   0.516   5.799 -0.4932 -1.8342 -1.9157
   38MOL   H35115965   1.336   0.530   5.631  1.5914  0.8324 -0.0250
   38MOL   H35215966   0.973   0.771   5.653 -1.8533 -3.6537  0.0566
   38MOL   H35315967   0.812   0.822   5.812 -0.7523  0.1841  0.8169
   38MOL   H35415968   0.875   0.844   6.054 -0.3105 -2.9061  0.9882
   38MOL   H35515969   1.105   0.786   6.131 -0.0107 -2.4092  0.4232
   38MOL   H35615970   1.267   0.696   5.975 -1.2443 -2.1862  1.2914
   38MOL   H35715971   1.606   0.926   5.673 -0.9784  1.1149  0.5745
   38MOL   H35815972   1.557   0.869   5.823  0.2136 -1.4006 -0.0489
   38MOL   C35915973   1.397   0.969   5.711  0.0576 -0.9235  0.2672
   38MOL   O36015974   1.383   0.975   5.570 -0.2157  0.1092 -0.3615
   38MOL   C36115975   1.272   1.032   5.512  0.6491  0.0523  0.0030
   38MOL   O36215976   1.272   1.171   5.528 -0.1904 -0.1792  0.1717
   38MOL   C36315977   1.361   1.246   5.454 -0.2784  0.1614  1.2509
   38MOL   C36415978   1.452   1.191   5.361 -0.3212  0.6804 -0.3093
   38MOL   C36515979   1.536   1.282   5.293 -0.1255  0.2781 -0.5470
   38MOL   C36615980   1.525   1.421   5.306 -0.1341 -0.1094  0.0950
   38MOL   C36715981   1.430   1.469   5.399  0.1593  0.4188  0.0694
   38MOL   C36815982   1.353   1.382   5.476 -0.2171 -0.3540 -0.6272
   38MOL   C36915983   1.427   1.114   5.763 -0.2015 -0.5440 -0.2019
   38MOL   H37015984   1.321   0.908   5.760  0.2131 -0.4790  1.0588
   38MOL   H37115985   1.183   0.988   5.557  1.0822 -2.0884 -1.1628
   38MOL   H37215986   1.262   1.003   5.408 -2.9559 -4.4274  1.4333
   38MOL   H37315987   1.459   1.087   5.332 -3.6416  0.3999 -0.2599
   38MOL   H37415988   1.616   1.251   5.227  2.3541  1.3915  1.8035
   38MOL   H37515989   1.586   1.494   5.254  0.5272 -1.6529 -1.3560
   38MOL   H37615990   1.413   1.575   5.409  1.4243  0.4389  2.2546
   38MOL   H37715991   1.280   1.428   5.541 -0.9625 -2.6928  0.2402
   38MOL   H37815992   1.328   1.158   5.754  0.6337  1.3278 -0.5131
   38MOL   H37915993   1.487   1.164   5.687 -2.3635  0.7974 -1.0410
   38MOL   C38015994   1.484   1.130   5.904 -0.6225  0.3472  0.0614
   38MOL   O38115995   1.398   1.126   6.010 -0.4206  0.1305 -0.1470
   38MOL   C38215996   1.348   1.000   6.043 -0.4574 -0.6430 -0.1210
   38MOL   O38315997   1.356   0.978   6.182 -0.2060 -0.0262 -0.6245
   38MOL   C38415998   1.277   1.053   6.266 -0.1661 -0.1481 -0.2150
   38MOL   C38515999   1.245   1.000   6.391 -0.7834 -0.0463 -0.0776
   38MOL   C38616000   1.163   1.065   6.481  0.7737 -0.1648  0.1412
   38MOL   C38716001   1.103   1.186   6.441  1.0911 -0.5154 -0.1624
   38MOL   C38816002   1.117   1.233   6.308  0.6561 -0.3218  0.5587
   38MOL   C38916003   1.213   1.170   6.229 -1.1247 -0.1714  0.0998
   38MOL   C39016004   1.563   1.266   5.913  0.2641  0.1272  0.0206
   38MOL   H39116005   1.559   1.051   5.908 -1.7550 -0.7663 -0.0072
   38MOL   H39216006   1.245   0.994   6.008 -0.5032  2.6884 -0.7577
   38MOL   H39316007   1.402   0.914   6.003  0.2483 -0.1281 -0.2834
   38MOL   H39416008   1.290   0.906   6.420  0.2499  0.6081  0.4960
   38MOL   H39516009   1.147   1.026   6.581 -0.3406  0.5102  0.2306
   38MOL   H39616010   1.040   1.239   6.511  2.9824  0.2889  0.9832
   38MOL   H39716011   1.067   1.323   6.273 -0.3909 -1.2936 -0.4813
   38MOL   H39816012   1.224   1.224   6.135  1.0891  1.4565  1.2588
   38MOL   H39916013   1.490   1.347   5.909 -0.6793 -0.7433 -0.3310
   38MOL   H40016014   1.626   1.282   5.825 -0.6734 -0.0137 -0.6799
   38MOL   C40116015   1.649   1.276   6.045 -0.3678  0.3131  0.1796
   38MOL   O40216016   1.729   1.165   6.046 -0.2757 -0.4489  0.5473
   38MOL   C40316017   1.753   1.116   6.173 -0.0317 -0.6665 -0.5800
   38MOL   O40416018   1.686   0.995   6.194  0.0666 -0.0713 -0.0510
   38MOL   C40516019   1.707   0.887   6.114 -0.8021  0.1001 -0.8628
   38MOL   C40616020   1.806   0.875   6.014 -0.5243 -0.3730  0.0135
   38MOL   C40716021   1.814   0.758   5.936 -0.2222 -0.9667  0.6157
   38MOL   C40816022   1.719   0.659   5.952  0.6829 -0.8874 -0.7717
   38MOL   C40916023   1.625   0.666   6.054  0.3386  0.2123 -0.2869
   38MOL   C41016024   1.630   0.776   6.145  0.9628  0.3046  1.0474
   38MOL   C41116025   1.735   1.406   6.053 -0.1872 -0.0748  0.8102
   38MOL   H41216026   1.580   1.266   6.129 -3.5601  0.9977 -2.2518
   38MOL   H41316027   1.734   1.177   6.261  2.4890 -0.3578 -0.1996
   38MOL   H41416028   1.861   1.100   6.183 -0.6665 -4.4708  1.2692
   38MOL   H41516029   1.873   0.953   5.981  0.0611 -1.6789 -1.9747
   38MOL   H41616030   1.895   0.748   5.865  0.2753  1.0139  0.8673
   38MOL   H41716031   1.717   0.568   5.894  2.9054 -0.9002 -0.8500
   38MOL   H41816032   1.551   0.588   6.066 -0.8935  1.3457 -0.3268
   38MOL   H41916033   1.562   0.793   6.227 -1.7279 -2.4371 -0.5311
   38MOL   H42016034   1.660   1.485   6.047  3.2661  3.2915  0.3820
   38MOL   H42116035   1.812   1.419   5.977 -0.4284  1.2059  0.7776
   38MOL   H42216036   1.790   1.412   6.147  1.5481 -0.4063 -0.1752
   39MOL     C116037   0.718   4.732   4.248 -0.0088 -0.2030  0.1609
   39MOL     O216038   0.793   4.613   4.277  0.4608 -0.1285  0.1687
   39MOL     C316039   0.888   4.569   4.193  0.0732  0.0803 -0.0930
   39MOL     O416040   1.009   4.622   4.224  0.2098  0.0911 -0.3139
   39MOL     C516041   1.114   4.600   4.131  0.5345 -0.2240 -0.3521
   39MOL     C616042   1.104   4.510   4.021  0.2817 -0.4534  0.2286
   39MOL     C716043   1.224   4.464   3.963 -0.5233 -0.5521  0.4113
   39MOL     C816044   1.346   4.530   3.983  0.7594 -0.2563 -0.1565
   39MOL     C916045   1.351   4.631   4.082  0.5401 -0.0733  0.2874
   39MOL    C1016046   1.241   4.657   4.159  0.2397 -1.0833  0.6985
   39MOL    C1116047   0.621   4.733   4.369 -0.3568  0.0284 -0.4509
   39MOL    H1216048   0.790   4.813   4.259  2.4287 -2.0033 -1.9290
   39MOL    H1316049   0.910   4.464   4.213 -0.9994 -0.1771 -0.2606
   39MOL    H1416050   0.858   4.585   4.089 -1.0322 -0.4114  0.1453
   39MOL    H1516051   1.015   4.451   4.010 -0.4071  0.6480 -0.1887
   39MOL    H1616052   1.206   4.383   3.894 -0.3910 -0.3819  0.1728
   39MOL    H1716053   1.434   4.484   3.941  0.5334 -0.4596 -0.4131
   39MOL    H1816054   1.451   4.666   4.100  0.1880  1.7513 -1.0642
   39MOL    H1916055   1.241   4.732   4.237 -1.9110  2.4467 -2.5163
   39MOL    H2016056   0.679   4.702   4.456 -2.1275 -0.5243  0.5602
   39MOL    H2116057   0.559   4.644   4.362 -1.6830  0.7495  1.4597
   39MOL    H2216058   0.670   4.723   4.150  0.3573  1.3548 -0.1656
   39MOL    C2316059   0.551   4.866   4.396  0.6353  0.3867 -0.6814
   39MOL    O2416060   0.638   4.923   4.488 -0.0111 -0.0729  0.4671
   39MOL    C2516061   0.710   5.031   4.442  0.0232 -0.2108  0.0390
   39MOL    O2616062   0.624   5.138   4.403 -0.4569  0.0255  0.3136
   39MOL    C2716063   0.693   5.253   4.368 -0.8011 -0.5695  0.0482
   39MOL    C2816064   0.619   5.371   4.333  0.3831  0.1438 -0.6675
   39MOL    C2916065   0.675   5.488   4.277 -0.3260  0.8421 -0.0808
   39MOL    C3016066   0.816   5.496   4.270 -0.2076 -0.1869  0.7941
   39MOL    C3116067   0.896   5.385   4.308 -0.1926 -0.7797 -0.8971
   39MOL    C3216068   0.834   5.264   4.359 -0.5003 -0.9120  0.1950
   39MOL    C3316069   0.410   4.854   4.446  0.2723 -0.0986  0.4541
   39MOL    H3416070   0.550   4.916   4.300  0.1063  1.5194 -0.0868
   39MOL    H3516071   0.773   5.010   4.356 -2.8124 -0.2379 -2.0976
   39MOL    H3616072   0.773   5.068   4.523  0.3512  0.5529 -0.5518
   39MOL    H3716073   0.514   5.364   4.354  0.5939 -3.1071 -0.3570
   39MOL    H3816074   0.612   5.571   4.248  0.0377  0.3299 -2.4670
   39MOL    H3916075   0.870   5.582   4.234  0.7145 -1.3618 -0.6872
   39MOL    H4016076   1.004   5.391   4.307 -0.2081  1.0182  1.8725
   39MOL    H4116077   0.905   5.186   4.378 -0.4763 -0.9019  0.1489
   39MOL    H4216078   0.413   4.793   4.537  0.3213  0.6544  0.9676
   39MOL    H4316079   0.358   4.793   4.374 -1.0043 -0.2790  1.5142
   39MOL    C4416080   0.340   4.995   4.476  0.4387 -0.7325  0.1859
   39MOL    O4516081   0.370   5.018   4.613 -0.4072  0.5213  0.5897
   39MOL    C4616082   0.402   5.155   4.640  0.0761  0.1335 -0.0615
   39MOL    O4716083   0.289   5.235   4.675 -0.4720  0.3604 -0.3308
   39MOL    C4816084   0.314   5.367   4.687  0.6897 -0.0292  0.5202
   39MOL    C4916085   0.206   5.456   4.714  0.6110  0.0847 -0.1632
   39MOL    C5016086   0.215   5.595   4.737  0.1303 -0.1839 -0.3410
   39MOL    C5116087   0.342   5.653   4.744 -0.2477  0.0341 -0.2770
   39MOL    C5216088   0.455   5.568   4.714 -0.2121 -0.0266 -0.2708
   39MOL    C5316089   0.439   5.432   4.679  0.4214 -0.1194  0.1867
   39MOL    C5416090   0.189   4.995   4.464 -0.0553  0.1136 -0.2539
   39MOL    H5516091   0.365   5.078   4.410 -0.3401 -1.2145 -0.7375
   39MOL    H5616092   0.459   5.208   4.564  0.1746 -0.6457 -0.5414
   39MOL    H5716093   0.479   5.159   4.717 -1.0330 -2.6105  1.2620
   39MOL    H5816094   0.105   5.417   4.716  0.7627 -0.4110 -1.4573
   39MOL    H5916095   0.129   5.660   4.739 -1.0880 -1.7496 -1.2747
   39MOL    H6016096   0.352   5.760   4.757  2.5393 -0.1484 -0.5419
   39MOL    H6116097   0.550   5.619   4.705  0.7773 -1.8155 -0.0851
   39MOL    H6216098   0.532   5.382   4.655 -0.0308 -1.3412  0.9717
   39MOL    H6316099   0.158   4.893   4.485 -2.6695  0.4726 -2.1631
   39MOL    H6416100   0.156   5.044   4.556  0.5976  0.7302 -0.3436
   39MOL    C6516101   0.130   5.051   4.337  0.1254  0.0303 -0.2701
   39MOL    O6616102   0.154   5.193   4.323  0.0665  0.3387  0.1054
   39MOL    C6716103   0.072   5.277   4.401 -0.1414  0.4598 -0.8525
   39MOL    O6816104   7.911   5.288   4.354  0.1671  0.0648 -0.4896
   39MOL    C6916105   7.888   5.345   4.234 -0.3532  0.2250 -0.2190
   39MOL    C7016106   7.752   5.350   4.198 -0.3734 -0.5925  0.2716
   39MOL    C7116107   7.715   5.389   4.071 -0.2328  0.2816  0.7322
   39MOL    C7216108   7.813   5.439   3.981 -0.3938  0.5349  0.1777
   39MOL    C7316109   7.947   5.435   4.018 -0.4734 -0.6332 -0.2047
   39MOL    C7416110   0.010   5.392   4.142  0.3994 -0.6093 -0.1450
   39MOL    C7516111   0.180   4.984   4.207 -1.0474  0.5178  0.0455
   39MOL    H7616112   0.022   5.040   4.347 -0.1586  2.2182 -0.6022
   39MOL    H7716113   0.120   5.374   4.407 -0.8928  0.7023  2.5097
   39MOL    H7816114   0.069   5.245   4.505  0.6831  0.9467 -0.6754
   39MOL    H7916115   7.681   5.314   4.270 -1.1531 -0.4511 -0.4160
   39MOL    H8016116   7.611   5.376   4.046 -0.6275  0.6871  2.1394
   39MOL    H8116117   7.782   5.451   3.879 -0.3517 -2.6300 -0.2684
   39MOL    H8216118   0.049   5.471   3.951 -0.2660 -0.4304  0.1460
   39MOL    H8316119   0.113   5.375   4.170  0.4844  0.2223  0.0644
   39MOL    H8416120   0.276   5.036   4.206 -1.7006  1.7274 -0.0391
   39MOL    H8516121   0.207   4.882   4.236 -1.3748  1.2536  3.1566
   39MOL    C8616122   0.101   5.010   4.077  0.7596  0.0883 -0.2063
   39MOL    O8716123   0.176   4.991   3.957 -0.1253  0.8995 -0.3210
   39MOL    C8816124   0.217   5.101   3.885  0.4435  0.2501 -0.1098
   39MOL    O8916125   0.304   5.183   3.964 -0.0379  0.0948  0.4682
   39MOL    C9016126   0.334   5.310   3.917 -0.2446  0.5946 -0.1500
   39MOL    C9116127   0.307   5.356   3.786 -0.1560 -0.4620  0.0599
   39MOL    C9216128   0.324   5.486   3.747  0.4094  0.4143 -0.5383
   39MOL    C9316129   0.360   5.579   3.849 -0.2042  0.4253 -0.0340
   39MOL    C9416130   0.374   5.538   3.980 -0.5594  0.1969  0.2520
   39MOL    C9516131   0.370   5.403   4.018 -0.9786 -0.7803 -0.6441
   39MOL    C9616132   7.950   4.929   4.065 -0.2821  0.8561 -0.1134
   39MOL    H9716133   0.076   5.115   4.086 -1.0995 -0.2268 -1.3586
   39MOL    H9816134   0.133   5.157   3.845 -0.6726 -2.1250 -1.2249
   39MOL    H9916135   0.276   5.058   3.803  0.1251  2.1192 -1.3417
   39MOL   H10016136   0.256   5.290   3.717 -0.2982  1.3909 -1.6453
   39MOL   H10116137   0.313   5.521   3.645 -0.8627  0.7366 -0.3021
   39MOL   H10216138   0.370   5.685   3.830  1.1681  0.3937  0.4469
   39MOL   H10316139   0.409   5.605   4.057  1.0128  0.0605 -0.3212
   39MOL   H10416140   0.380   5.380   4.123 -2.9771 -1.5581 -0.6075
   39MOL   H10516141   0.008   4.826   4.052 -0.2648  1.0625 -1.8825
   39MOL   H10616142   7.906   4.932   4.164  2.0822  0.6883  0.9826
   39MOL   C10716143   7.848   4.978   3.962  0.2675 -0.3590  0.4867
   39MOL   O10816144   7.901   4.954   3.826  0.3397  1.1477 -0.3811
   39MOL   C10916145   7.865   5.041   3.723 -0.4514 -0.2606 -0.4032
   39MOL   O11016146   7.896   5.173   3.748 -0.4518  0.1077 -0.0578
   39MOL   C11116147   7.890   5.264   3.643  0.3964 -0.1223 -0.4973
   39MOL   C11216148   7.945   5.397   3.651 -0.4894 -0.0817 -0.4539
   39MOL   C11316149   7.935   5.495   3.552  0.3035  0.1689 -0.1894
   39MOL   C11416150   7.886   5.457   3.425  0.1556  0.1391  0.6353
   39MOL   C11516151   7.829   5.328   3.420 -0.1649 -0.5486 -0.0435
   39MOL   C11616152   7.823   5.234   3.523 -0.2358  0.5120  0.0401
   39MOL   C11716153   7.725   4.899   3.972  0.2205  0.1971  0.3866
   39MOL   H11816154   7.834   5.084   3.982 -2.2378 -0.5336 -0.1911
   39MOL   H11916155   7.761   5.032   3.691 -0.1707 -0.9571 -1.1714
   39MOL   H12016156   7.919   5.004   3.635 -2.9167 -0.1030 -2.0436
   39MOL   H12116157   0.025   5.426   3.738 -1.4810 -0.0906  0.1915
   39MOL   H12216158   0.007   5.587   3.582 -0.4564  0.4701  0.1136
   39MOL   H12316159   7.884   5.518   3.335  0.6080  0.8432  1.1025
   39MOL   H12416160   7.785   5.305   3.324  1.3037 -2.5764 -0.2595
   39MOL   H12516161   7.784   5.139   3.491 -0.5014 -0.3237  2.7567
   39MOL   H12616162   7.762   4.799   3.995  0.4256  0.8711  3.1858
   39MOL   H12716163   7.677   4.894   3.874  1.2696 -0.5584 -0.0996
   39MOL   C12816164   7.608   4.952   4.060 -0.2983 -0.2563 -0.6692
   39MOL   O12916165   7.567   5.076   3.999  0.2766  0.2755  0.5560
   39MOL   C13016166   7.430   5.099   3.996 -0.8684 -0.2369 -0.3628
   39MOL   O13116167   7.343   5.002   3.940 -0.2791  0.6395  0.2880
   39MOL   C13216168   7.334   4.985   3.803 -0.0961 -0.4463 -0.8266
   39MOL   C13316169   7.227   4.923   3.743  0.2900 -0.2569 -0.2430
   39MOL   C13416170   7.225   4.903   3.604  0.9848  0.5080  0.2047
   39MOL   C13516171   7.325   4.962   3.520  0.3951  0.3499  0.1482
   39MOL   C13616172   7.441   5.020   3.581  0.8655  0.6274 -0.1956
   39MOL   C13716173   7.438   5.041   3.719  0.2677  0.4942 -0.1448
   39MOL   C13816174   7.637   4.974   4.208  0.1789  1.2327  0.1488
   39MOL   H13916175   7.524   4.884   4.059 -0.3060 -0.4356  3.5615
   39MOL   H14016176   7.428   5.196   3.947  0.1065  0.1091  0.2593
   39MOL   H14116177   7.394   5.118   4.097  0.0680 -0.0393 -0.0626
   39MOL   H14216178   7.164   4.870   3.813  1.2586  0.1413  0.9505
   39MOL   H14316179   7.143   4.849   3.559  0.5754  1.5030 -0.2662
   39MOL   H14416180   7.325   4.934   3.416  3.3041 -2.6094  0.8859
   39MOL   H14516181   7.523   5.057   3.521 -1.0359  1.2244 -2.5268
   39MOL   H14616182   7.526   5.091   3.757 -0.3482  1.7915 -0.4170
   39MOL   H14716183   7.714   5.050   4.216  1.4999  0.1752 -2.1201
   39MOL   H14816184   7.557   5.032   4.255 -0.8051  0.2958 -0.3411
   39MOL   C14916185   7.654   4.845   4.300  0.4390  0.4571 -0.0885
   39MOL   O15016186   7.765   4.770   4.256  0.5642 -0.2284 -0.1748
   39MOL   C15116187   7.744   4.634   4.246  0.1350 -1.1803  0.5151
   39MOL   O15216188   7.856   4.567   4.208  0.1771  0.0776 -0.3909
   39MOL   C15316189   7.861   4.433   4.229 -0.4420  0.0539 -0.3797
   39MOL   C15416190   7.761   4.358   4.299  0.3141  0.1274  0.0005
   39MOL   C15516191   7.757   4.216   4.292  0.0501 -0.3440  0.4268
   39MOL   C15616192   7.857   4.149   4.221 -0.5244 -0.1547 -0.0070
   39MOL   C15716193   7.962   4.218   4.165 -0.3249 -0.9326 -0.9870
   39MOL   C15816194   7.958   4.361   4.161  0.0739  0.9847 -0.1840
   39MOL   C15916195   7.668   4.879   4.451 -0.7310 -0.3253  0.8111
   39MOL   H16016196   7.557   4.799   4.281 -0.7802  2.5328  0.8908
   39MOL   H16116197   7.708   4.611   4.346 -1.2496  1.5130  0.6940
   39MOL   H16216198   7.661   4.612   4.179 -0.5347  2.0289  0.2049
   39MOL   H16316199   7.683   4.401   4.359 -0.9260 -1.9912 -0.0558
   39MOL   H16416200   7.682   4.160   4.345 -1.1802  0.6529 -0.2344
   39MOL   H16516201   7.855   4.043   4.204  1.4668 -0.3382  0.8267
   39MOL   H16616202   0.067   4.176   4.107  1.0953  0.9016 -0.3859
   39MOL   H16716203   0.054   4.411   4.097 -0.4212 -2.1231 -3.3743
   39MOL   H16816204   7.715   4.976   4.462 -0.1976 -0.6656  1.6073
   39MOL   H16916205   7.739   4.813   4.501  0.7671  1.0027  0.4556
   39MOL   C17016206   7.541   4.878   4.531 -0.3926 -0.9480 -0.2331
   39MOL   O17116207   7.494   4.739   4.536  0.0416 -0.1620 -0.2414
   39MOL   C17216208   7.358   4.725   4.513  0.4455  0.2918  0.2879
   39MOL   O17316209   7.326   4.739   4.385  0.2873 -0.4194 -0.3162
   39MOL   C17416210   7.349   4.639   4.287 -0.9497 -0.3859  0.7244
   39MOL   C17516211   7.307   4.656   4.155 -1.1433  0.0376  0.5071
   39MOL   C17616212   7.325   4.556   4.059 -0.3896  0.1468 -0.7060
   39MOL   C17716213   7.394   4.442   4.091  0.4745  0.4584 -0.5014
   39MOL   C17816214   7.435   4.422   4.225 -0.5505 -0.3110 -0.0568
   39MOL   C17916215   7.408   4.518   4.321  0.1731  0.3873 -1.0072
   39MOL   C18016216   7.549   4.951   4.667  0.0950 -0.7856 -0.2368
   39MOL   H18116217   7.473   4.928   4.461 -0.9373  0.2924  1.1575
   39MOL   H18216218   7.291   4.786   4.573 -1.3682  1.4389 -2.7976
   39MOL   H18316219   7.331   4.622   4.537 -2.9976  0.8577 -0.9296
   39MOL   H18416220   7.256   4.745   4.121 -1.5130 -0.3861 -0.0805
   39MOL   H18516221   7.284   4.554   3.960  0.9852  1.7049 -1.3320
   39MOL   H18616222   7.406   4.371   4.010 -0.0414 -2.5308  1.9570
   39MOL   H18716223   7.492   4.333   4.247 -1.3442 -0.9816 -0.6638
   39MOL   H18816224   7.441   4.497   4.422  0.4426  0.4019 -1.0912
   39MOL   H18916225   7.551   5.059   4.658 -2.1470 -0.8192 -1.6487
   39MOL   H19016226   7.450   4.933   4.710 -0.2940  1.9410  0.0638
   39MOL   C19116227   7.671   4.908   4.757 -0.2014  0.4921  0.2530
   39MOL   O19216228   7.622   4.886   4.885  0.5160  0.0986 -0.2301
   39MOL   C19316229   7.656   4.766   4.935  0.8548  0.2170 -0.2945
   39MOL   O19416230   7.588   4.740   5.056  0.1728 -0.1131  0.2766
   39MOL   C19516231   7.632   4.797   5.172 -0.3294  0.0215  0.4082
   39MOL   C19616232   7.585   4.734   5.289  0.2928 -0.3231 -0.9130
   39MOL   C19716233   7.624   4.783   5.412 -0.1020  0.5779 -0.2016
   39MOL   C19816234   7.721   4.889   5.427  0.3441  0.6325 -0.0195
   39MOL   C19916235   7.769   4.950   5.306  0.8683 -0.2594 -0.1933
   39MOL   C20016236   7.713   4.910   5.181  0.8374 -0.5611  0.3163
   39MOL   C20116237   7.782   5.022   4.769 -0.1280  0.5382 -0.2711
   39MOL   H20216238   7.713   4.814   4.719 -1.2433  0.9061 -1.9845
   39MOL   H20316239   7.762   4.758   4.961  0.4781  0.8085  1.5471
   39MOL   H20416240   7.614   4.691   4.869  0.1462  0.7806 -0.4867
   39MOL   H20516241   7.516   4.652   5.275 -1.3905  0.7705  0.8403
   39MOL   H20616242   7.591   4.728   5.499  3.6283 -1.4523  0.0488
   39MOL   H20716243   7.753   4.930   5.521 -2.8139  1.8781  0.5433
   39MOL   H20816244   7.836   5.034   5.316  1.4159 -0.6492 -0.5918
   39MOL   H20916245   7.747   4.957   5.090  0.1636  2.1105  1.4190
   39MOL   H21016246   7.807   5.064   4.671  0.9093  1.7206  0.4850
   39MOL   H21116247   7.738   5.107   4.821 -0.7325  1.5020 -2.3233
   39MOL   C21216248   7.923   4.978   4.828  0.5122 -0.3387 -0.2478
   39MOL   O21316249   0.008   4.898   4.723 -0.3011 -0.4232  0.3669
   39MOL   C21416250   0.109   4.811   4.769 -0.1255  0.6972  0.3119
   39MOL   O21516251   0.059   4.702   4.839 -0.2303 -0.4192  0.1399
   39MOL   C21616252   7.959   4.607   4.782 -0.4023  0.1732  0.3768
   39MOL   C21716253   7.927   4.610   4.648 -0.2460 -0.2235 -0.3157
   39MOL   C21816254   7.830   4.511   4.602  0.0892 -0.3403 -0.2527
   39MOL   C21916255   7.761   4.426   4.692 -0.7603  0.0117 -0.6146
   39MOL   C22016256   7.790   4.432   4.830 -0.3338  0.8103 -0.3616
   39MOL   C22116257   7.881   4.531   4.873  0.2489  0.5001  0.6620
   39MOL   C22216258   0.041   5.101   4.836  0.8799 -0.2096 -0.4470
   39MOL   H22316259   7.916   4.941   4.930 -1.1258  0.3240 -0.1000
   39MOL   H22416260   0.176   4.861   4.838 -0.0970  0.0685  0.7459
   39MOL   H22516261   0.172   4.758   4.697  2.2242  0.2359  2.6348
   39MOL   H22616262   7.967   4.681   4.577  1.2823 -1.2828 -0.5475
   39MOL   H22716263   7.801   4.508   4.498  0.0018  0.1197 -0.2414
   39MOL   H22816264   7.687   4.363   4.645  1.5922  0.1993 -4.8410
   39MOL   H22916265   7.730   4.373   4.898  1.3948 -2.5270 -1.5984
   39MOL   H23016266   7.896   4.542   4.979 -0.7427 -1.0789  0.9796
   39MOL   H23116267   0.145   5.070   4.832  1.2057  0.8722 -0.4679
   39MOL   H23216268   0.017   5.159   4.747 -2.7684 -3.1323 -1.5247
   39MOL   C23316269   0.024   5.182   4.963  0.1106  0.0455  0.1973
   39MOL   O23416270   7.866   5.220   4.986  0.2867  0.6950  0.8612
   39MOL   C23516271   7.831   5.336   4.927  0.9862 -0.3785  0.7013
   39MOL   O23616272   7.913   5.443   4.960 -0.3039 -0.6205 -0.5660
   39MOL   C23716273   7.899   5.521   5.079  0.9249 -0.4965 -0.0996
   39MOL   C23816274   7.813   5.488   5.186  0.1311 -0.1876  1.0087
   39MOL   C23916275   7.807   5.565   5.298 -0.4663 -0.0503 -0.4174
   39MOL   C24016276   7.896   5.671   5.312 -0.0789  0.3787  0.6160
   39MOL   C24116277   0.019   5.699   5.213  0.0503 -0.0988  0.1777
   39MOL   C24216278   0.015   5.622   5.094  0.1323  0.1569  0.7396
   39MOL   C24316279   0.063   5.111   5.092 -0.7960 -0.7046 -0.1149
   39MOL   H24416280   0.095   5.263   4.947  1.9750 -1.6434 -0.2272
   39MOL   H24516281   7.730   5.362   4.957 -0.4287  0.3911 -4.2634
   39MOL   H24616282   7.827   5.332   4.818  0.2528 -2.2475  0.7695
   39MOL   H24716283   7.736   5.415   5.167  0.1101  0.3030 -0.9572
   39MOL   H24816284   7.741   5.546   5.381 -0.2790 -2.1368 -0.7319
   39MOL   H24916285   7.886   5.748   5.387 -0.4793  0.9316 -0.0023
   39MOL   H25016286   0.079   5.786   5.232 -0.6309 -0.1396  2.6046
   39MOL   H25116287   0.090   5.639   5.018 -0.3205 -2.1877 -0.2917
   39MOL   H25216288   0.035   5.178   5.172  0.1367 -0.4705  0.0234
   39MOL   H25316289   7.966   5.030   5.103 -0.8038 -0.9365 -1.6677
   39MOL   C25416290   0.212   5.069   5.101  0.3418 -1.0297 -0.5103
   39MOL   O25516291   0.290   5.190   5.098 -0.6083 -0.1994 -0.0013
   39MOL   C25616292   0.416   5.182   5.037 -0.5591  0.4595 -0.2947
   39MOL   O25716293   0.513   5.112   5.113 -0.1225 -0.1067 -0.8901
   39MOL   C25816294   0.548   5.164   5.237 -0.4160 -1.2101 -0.5065
   39MOL   C25916295   0.652   5.101   5.305 -0.3362  0.1713 -0.1870
   39MOL   C26016296   0.700   5.139   5.434  0.2183  0.5727  0.4264
   39MOL   C26116297   0.637   5.252   5.488  0.2186 -0.6577  0.4098
   39MOL   C26216298   0.540   5.326   5.417  0.5062  0.3538 -0.5491
   39MOL   C26316299   0.487   5.278   5.299 -0.8142  0.4126 -0.0678
   39MOL   C26416300   0.226   4.996   5.236 -0.4302  0.0420  0.3361
   39MOL   H26516301   0.239   4.999   5.022 -2.2092 -0.1023 -2.2593
   39MOL   H26616302   0.444   5.288   5.040 -1.1081  0.5730  2.1112
   39MOL   H26716303   0.404   5.141   4.937 -0.4446  1.1863 -0.6073
   39MOL   H26816304   0.700   5.015   5.261  1.9060  0.9298  0.7410
   39MOL   H26916305   0.786   5.090   5.477  1.0587  1.2509 -0.4648
   39MOL   H27016306   0.675   5.302   5.576  0.2115  0.1361 -0.0260
   39MOL   H27116307   0.496   5.411   5.466  0.4188 -0.5825  1.0016
   39MOL   H27216308   0.400   5.329   5.260 -1.4725 -0.4219  0.2952
   39MOL   H27316309   0.326   5.023   5.270  0.4840 -2.6098 -0.0802
   39MOL   H27416310   0.149   5.033   5.304  2.8481  0.1024  4.1885
   39MOL   C27516311   0.218   4.841   5.234 -0.5439 -0.1596 -0.3207
   39MOL   O27616312   0.346   4.784   5.251 -0.7416 -0.3274  0.2849
   39MOL   C27716313   0.427   4.779   5.142 -0.6536 -0.2728  1.1575
   39MOL   O27816314   0.379   4.694   5.040  0.2484 -0.6933 -0.0887
   39MOL   C27916315   0.454   4.667   4.925  0.5427 -0.1299 -0.1613
   39MOL   C28016316   0.592   4.692   4.916 -0.2017 -0.4794  0.0971
   39MOL   C28116317   0.667   4.657   4.803 -0.0625 -0.2488 -0.1596
   39MOL   C28216318   0.596   4.597   4.700  0.9206 -0.8156  0.2734
   39MOL   C28316319   0.450   4.572   4.705  0.0125 -0.3556 -0.3741
   39MOL   C28416320   0.384   4.601   4.823 -0.5742  0.1382  0.1231
   39MOL   C28516321   0.147   4.784   5.354  0.5584  0.2034  0.1735
   39MOL   H28616322   0.179   4.803   5.140 -1.0619 -0.5683  0.0575
   39MOL   H28716323   0.520   4.733   5.176 -0.2576 -0.3251  0.0189
   39MOL   H28816324   0.441   4.875   5.093  0.2287 -0.7254  0.4980
   39MOL   H28916325   0.650   4.736   4.995  1.2915 -1.4992 -0.4087
   39MOL   H29016326   0.775   4.666   4.807 -0.0219 -1.1137  1.0071
   39MOL   H29116327   0.662   4.555   4.626 -0.4410 -0.4665 -1.1672
   39MOL   H29216328   0.395   4.509   4.637 -2.2335 -0.5521  1.5830
   39MOL   H29316329   0.279   4.576   4.829  0.1899 -3.0003  1.5739
   39MOL   H29416330   0.049   4.825   5.376  0.6041  1.7251 -2.2652
   39MOL   H29516331   0.211   4.822   5.434  1.2239 -0.0522 -0.2252
   39MOL   C29616332   0.142   4.624   5.361 -0.1447  0.1507 -0.9403
   39MOL   O29716333   0.072   4.590   5.478 -0.1673 -0.1438 -0.2959
   39MOL   C29816334   0.119   4.617   5.603 -0.6027 -0.4625  0.2741
   39MOL   O29916335   0.048   4.728   5.639  0.2757 -0.1424 -0.6051
   39MOL   C30016336   7.893   4.717   5.688  0.2082 -0.4931 -0.3305
   39MOL   C30116337   7.808   4.610   5.662 -0.8064 -0.2716  0.1509
   39MOL   C30216338   7.693   4.585   5.734  0.0320 -0.6526 -0.1617
   39MOL   C30316339   7.640   4.688   5.817  0.2243  0.9481 -1.0210
   39MOL   C30416340   7.716   4.801   5.831  0.4846 -0.5846  0.0282
   39MOL   C30516341   7.836   4.826   5.758  0.1400 -0.2481 -0.0271
   39MOL   C30616342   0.062   4.557   5.243  0.0578  0.2944  0.2667
   39MOL   H30716343   0.238   4.573   5.355 -0.3799 -1.0612  3.8657
   39MOL   H30816344   0.224   4.644   5.598 -0.6200 -0.6830 -1.2885
   39MOL   H30916345   0.107   4.537   5.676 -1.2894  1.8585  2.7909
   39MOL   H31016346   7.839   4.526   5.602 -0.6112 -0.1253  0.0461
   39MOL   H31116347   7.635   4.494   5.725  0.3306 -0.8173 -0.4200
   39MOL   H31216348   7.550   4.683   5.877 -0.5660  0.6240 -2.1963
   39MOL   H31316349   7.680   4.886   5.887  0.2935 -0.1180 -0.7930
   39MOL   H31416350   7.892   4.918   5.758 -2.0700  1.1640  2.2763
   39MOL   H31516351   0.108   4.599   5.154 -1.6327  0.2780 -0.6143
   39MOL   H31616352   7.945   4.614   5.240  0.0626  0.2675 -0.3706
   39MOL   C31716353   0.046   4.407   5.241 -0.2050  1.0668  0.1172
   39MOL   O31816354   0.041   4.355   5.107 -0.8406  0.1352  0.1472
   39MOL   C31916355   0.171   4.345   5.051 -0.4603 -0.3993  0.0482
   39MOL   O32016356   0.237   4.229   5.095  0.0253 -0.2813  0.0112
   39MOL   C32116357   0.374   4.220   5.089 -0.2706  0.1775  0.0630
   39MOL   C32216358   0.453   4.307   5.013 -0.5073  0.4060 -0.2984
   39MOL   C32316359   0.592   4.286   5.009 -0.3329 -0.0139  1.3135
   39MOL   C32416360   0.655   4.180   5.075  0.1249 -0.0847 -0.8233
   39MOL   C32516361   0.574   4.096   5.159 -0.5287  0.1333 -0.1159
   39MOL   C32616362   0.434   4.116   5.164 -0.3335  0.0952  0.6305
   39MOL   C32716363   7.898   4.361   5.325 -0.8962  0.0106  0.4576
   39MOL   H32816364   0.129   4.360   5.294 -0.3707 -0.0007 -0.5550
   39MOL   H32916365   0.228   4.435   5.074  0.0373 -0.7269  0.1047
   39MOL   H33016366   0.156   4.334   4.943 -3.0978  2.9422 -0.0079
   39MOL   H33116367   0.410   4.385   4.952 -0.8557 -0.0731 -0.6606
   39MOL   H33216368   0.651   4.338   4.935 -3.5873  0.3683 -1.1766
   39MOL   H33316369   0.763   4.175   5.074  0.1772  0.3955  0.7608
   39MOL   H33416370   0.623   4.017   5.214  0.4321 -0.3779 -1.6662
   39MOL   H33516371   0.372   4.047   5.218  1.0936 -1.4570  0.3052
   39MOL   H33616372   7.904   4.406   5.423  0.4896 -1.6843  1.1897
   39MOL   H33716373   7.809   4.399   5.275 -0.3643  1.3573  0.5258
   39MOL   C33816374   7.880   4.209   5.345  0.3545 -0.2068  0.3180
   39MOL   O33916375   0.012   4.169   5.429  0.3307 -0.3504 -0.0453
   39MOL   C34016376   0.090   4.068   5.371 -0.1643 -0.1254  0.2091
   39MOL   O34116377   0.025   3.946   5.362  0.1688  0.1017  0.0610
   39MOL   C34216378   0.049   3.867   5.468  0.3716  0.2615  0.3928
   39MOL   C34316379   0.035   3.916   5.601 -0.0297 -0.1928  1.2415
   39MOL   C34416380   0.043   3.825   5.708 -0.5145  0.1359 -0.1312
   39MOL   C34516381   0.074   3.693   5.687  0.3502 -0.0456 -0.3390
   39MOL   C34616382   0.083   3.642   5.557  0.3038 -0.4093  0.3593
   39MOL   C34716383   0.061   3.728   5.449 -0.3886 -1.1712  0.2035
   39MOL   C34816384   7.741   4.172   5.416  0.2961 -0.1602  0.3170
   39MOL   H34916385   7.890   4.175   5.242  0.5033  0.3385  0.1452
   39MOL   H35016386   0.181   4.056   5.430 -0.4703 -2.9225  0.1618
   39MOL   H35116387   0.133   4.103   5.277  1.5351 -4.0735 -0.5669
   39MOL   H35216388   0.027   4.022   5.622  3.3643  0.4715 -0.4191
   39MOL   H35316389   0.040   3.862   5.810  1.1643  1.3298 -0.4961
   39MOL   H35416390   0.089   3.626   5.770 -0.3820  0.4027  0.1571
   39MOL   H35516391   0.104   3.536   5.553  0.3023 -0.4145  0.5147
   39MOL   H35616392   0.084   3.694   5.349  0.8661  1.5297 -0.4761
   39MOL   H35716393   7.750   4.184   5.524  0.7470  2.0973  0.0399
   39MOL   H35816394   7.717   4.067   5.398 -2.2263  0.4101  0.0973
   39MOL   C35916395   7.608   4.238   5.376  0.7199 -0.2064 -0.3801
   39MOL   O36016396   7.512   4.180   5.462  0.5168 -0.0195  0.1712
   39MOL   C36116397   7.479   4.255   5.576 -0.1252  0.2848  0.5075
   39MOL   O36216398   7.410   4.372   5.541  0.7052 -0.4150  0.2592
   39MOL   C36316399   7.341   4.442   5.641 -0.0942  0.0519  0.4667
   39MOL   C36416400   7.340   4.402   5.778 -0.2278 -0.4576  0.3041
   39MOL   C36516401   7.271   4.479   5.875 -0.1753 -0.4856 -0.2262
   39MOL   C36616402   7.195   4.585   5.839  0.6063 -0.5794  0.4282
   39MOL   C36716403   7.176   4.611   5.701  0.0966  0.8811 -0.0101
   39MOL   C36816404   7.252   4.541   5.597  0.7338  0.4820  0.6871
   39MOL   C36916405   7.563   4.201   5.232  0.4630  0.5993  0.1503
   39MOL   H37016406   7.604   4.347   5.384  0.7214 -0.3211  1.6500
   39MOL   H37116407   7.575   4.261   5.628 -1.8096 -0.4579  3.8062
   39MOL   H37216408   7.413   4.195   5.639  0.6070 -0.4120  0.6231
   39MOL   H37316409   7.401   4.320   5.813 -1.0399 -1.4590 -0.6177
   39MOL   H37416410   7.285   4.466   5.981 -2.7556 -0.6811  0.1113
   39MOL   H37516411   7.154   4.653   5.912  0.6970 -0.0974  0.0373
   39MOL   H37616412   7.106   4.691   5.681  0.0821  1.2503  1.4217
   39MOL   H37716413   7.229   4.559   5.493  0.6132  0.7304  0.7559
   39MOL   H37816414   7.575   4.092   5.227 -1.1094  0.4037  0.3813
   39MOL   H37916415   7.636   4.236   5.160  0.5122  0.7252  0.2611
   39MOL   C38016416   7.410   4.241   5.201  0.1347 -0.9654 -0.0914
   39MOL   O38116417   7.376   4.196   5.072 -0.4696  0.9658  0.4252
   39MOL   C38216418   7.320   4.069   5.071 -0.1499 -0.9736 -0.2163
   39MOL   O38316419   7.296   4.020   4.944  0.6022 -0.1846 -0.0952
   39MOL   C38416420   7.175   4.036   4.885 -0.0544  0.6675  0.2707
   39MOL   C38516421   7.154   3.964   4.768  0.3755 -0.0981 -0.4433
   39MOL   C38616422   7.045   3.987   4.687 -0.2672 -0.0053  0.0571
   39MOL   C38716423   6.939   4.063   4.739  0.0874  0.2339  0.8186
   39MOL   C38816424   6.952   4.132   4.864 -1.0681 -0.1061 -0.4376
   39MOL   C38916425   7.072   4.116   4.934 -0.1444  0.0325 -0.6529
   39MOL   C39016426   7.414   4.399   5.181 -0.4903 -0.1176 -0.1364
   39MOL   H39116427   7.342   4.211   5.280  0.9399  1.1590  1.4363
   39MOL   H39216428   7.389   3.996   5.111  0.8053 -0.9911 -1.8475
   39MOL   H39316429   7.234   4.065   5.138  0.3019 -1.9695  0.3047
   39MOL   H39416430   7.236   3.906   4.730  0.9070 -0.0192  0.5526
   39MOL   H39516431   7.031   3.926   4.599  1.8492 -1.3183  0.5974
   39MOL   H39616432   6.849   4.073   4.680  0.0295 -2.0403  0.4689
   39MOL   H39716433   6.865   4.185   4.901 -0.8702  1.6951 -2.4428
   39MOL   H39816434   7.089   4.152   5.034 -1.0013 -2.6600  0.5085
   39MOL   H39916435   7.495   4.410   5.109  0.0341  0.1687  0.4958
   39MOL   H40016436   7.432   4.447   5.277 -0.3679  0.5744 -0.5007
   39MOL   C40116437   7.283   4.457   5.128  0.4426 -0.4522 -0.0147
   39MOL   O40216438   7.204   4.483   5.245 -0.0759 -0.3153 -0.2666
   39MOL   C40316439   7.072   4.477   5.218 -0.0613  0.2705  0.3878
   39MOL   O40416440   6.984   4.523   5.316  0.1637 -0.0363  0.1755
   39MOL   C40516441   6.963   4.438   5.424 -1.0442  0.5023  0.2366
   39MOL   C40616442   7.040   4.328   5.468  0.4251  0.5361  0.0454
   39MOL   C40716443   6.998   4.253   5.578  0.9147 -0.6824 -1.4392
   39MOL   C40816444   6.884   4.283   5.650  0.4807 -0.2626  0.8539
   39MOL   C40916445   6.802   4.393   5.609  0.5844  0.1851  0.1956
   39MOL   C41016446   6.853   4.469   5.501  0.1315  0.4501 -0.4944
   39MOL   C41116447   7.300   4.594   5.054  0.1113  0.4177 -0.2071
   39MOL   H41216448   7.228   4.382   5.071  1.0922  0.0445 -1.3100
   39MOL   H41316449   7.062   4.370   5.201 -0.5976  0.7079 -2.2163
   39MOL   H41416450   7.052   4.532   5.126 -0.4371  1.3107  1.0802
   39MOL   H41516451   7.135   4.310   5.421  1.0311  2.2871  0.5737
   39MOL   H41616452   7.053   4.163   5.599  2.6659  0.8453  0.7855
   39MOL   H41716453   6.859   4.224   5.737 -1.2534 -0.9574 -0.0854
   39MOL   H41816454   6.721   4.425   5.673 -0.9757 -2.2069 -0.4859
   39MOL   H41916455   6.791   4.554   5.478 -0.6305 -0.6384 -2.6306
   39MOL   H42016456   7.223   4.592   4.977  2.2684 -1.9087 -2.4077
   39MOL   H42116457   7.395   4.606   5.002 -0.6810 -0.4733 -1.9066
   39MOL   H42216458   7.279   4.677   5.121 -1.8092 -0.6564  0.5819
   40MOL     C116459   4.808   6.350   6.088  0.0484 -0.6397 -0.7568
   40MOL     O216460   4.936   6.332   6.129  0.2535 -0.0433 -0.1403
   40MOL     C316461   5.022   6.283   6.032  0.6549 -0.0281  0.5442
   40MOL     O416462   5.080   6.386   5.953 -0.2204  0.6227 -0.7333
   40MOL     C516463   5.207   6.430   5.963  0.3259  0.0102  0.3042
   40MOL     C616464   5.284   6.413   6.080 -0.9039  0.4596 -0.0789
   40MOL     C716465   5.409   6.468   6.085  0.5470 -0.2293  0.4242
   40MOL     C816466   5.464   6.532   5.973  0.4468 -0.3738 -0.3800
   40MOL     C916467   5.383   6.568   5.870 -0.4217 -0.0546  0.2412
   40MOL    C1016468   5.254   6.511   5.853  0.0732 -0.5546 -0.0699
   40MOL    C1116469   4.716   6.383   6.199  0.5069  0.0176  0.0736
   40MOL    H1216470   4.802   6.418   6.002  0.1366  0.2695 -0.0516
   40MOL    H1316471   5.106   6.226   6.070  0.9529  0.4486  0.6126
   40MOL    H1416472   4.970   6.219   5.960 -0.9067  1.1463  0.5744
   40MOL    H1516473   5.251   6.370   6.174  1.9004  1.2264  1.3012
   40MOL    H1616474   5.473   6.464   6.172  2.3868 -1.1212 -0.9365
   40MOL    H1716475   5.565   6.572   5.971 -0.4080  1.8084 -3.2638
   40MOL    H1816476   5.420   6.633   5.792 -0.4233  1.3125  1.3551
   40MOL    H1916477   5.201   6.523   5.760  0.3690  1.1478 -0.0257
   40MOL    H2016478   4.747   6.320   6.282 -2.4749  0.2075  1.4000
   40MOL    H2116479   4.612   6.361   6.177  0.0344  0.9420  1.3348
   40MOL    H2216480   4.774   6.252   6.054 -1.9985 -0.3605  0.3920
   40MOL    C2316481   4.716   6.527   6.239  0.3848  0.0210  0.3740
   40MOL    O2416482   4.823   6.562   6.323 -0.8792 -0.0695 -0.1649
   40MOL    C2516483   4.932   6.632   6.270  0.2219  0.1080 -0.1728
   40MOL    O2616484   4.892   6.749   6.204  0.2254 -0.0895  0.5526
   40MOL    C2716485   4.838   6.856   6.279 -0.0713  0.0060  0.0466
   40MOL    C2816486   4.817   6.860   6.419  0.4722 -0.1160  0.6674
   40MOL    C2916487   4.763   6.978   6.478  0.3367  0.8326  0.3093
   40MOL    C3016488   4.724   7.078   6.401  0.7353 -0.4441 -0.4990
   40MOL    C3116489   4.727   7.074   6.263  0.0312 -0.5195 -0.0253
   40MOL    C3216490   4.790   6.966   6.203 -0.6313  0.5623 -0.0505
   40MOL    C3316491   4.590   6.559   6.316 -0.3612 -0.7882 -0.0571
   40MOL    H3416492   4.707   6.585   6.147 -3.4820 -1.4855 -0.2950
   40MOL    H3516493   4.991   6.567   6.204  0.1548  1.3071 -1.4304
   40MOL    H3616494   4.991   6.661   6.357  1.8416  0.8150 -1.4686
   40MOL    H3716495   4.838   6.770   6.475 -0.7298 -0.8060  0.0264
   40MOL    H3816496   4.745   6.973   6.584 -1.4208 -0.9739 -0.0517
   40MOL    H3916497   4.677   7.163   6.450  1.5345 -1.2892  1.7899
   40MOL    H4016498   4.694   7.161   6.208  0.9214 -1.3039 -1.8427
   40MOL    H4116499   4.803   6.959   6.096  0.7076 -0.3912  0.1551
   40MOL    H4216500   4.621   6.548   6.419  2.0498 -0.2456 -0.7004
   40MOL    H4316501   4.514   6.484   6.294 -0.8491 -0.0263 -0.9996
   40MOL    C4416502   4.518   6.689   6.281  1.0862 -0.1217  0.1175
   40MOL    O4516503   4.419   6.709   6.384 -0.7712  0.3247  0.0168
   40MOL    C4616504   4.449   6.805   6.482 -0.2363  0.1974  0.0910
   40MOL    O4716505   4.340   6.806   6.572  0.1766 -0.1452 -0.5247
   40MOL    C4816506   4.356   6.878   6.692  0.0041 -0.7974 -0.2019
   40MOL    C4916507   4.468   6.971   6.708 -0.2368  0.3063  0.7739
   40MOL    C5016508   4.486   7.045   6.825  0.3929 -0.9204 -0.0987
   40MOL    C5116509   4.387   7.043   6.926 -0.3780 -0.2721  0.0478
   40MOL    C5216510   4.281   6.949   6.914 -0.0063 -0.1569 -0.2729
   40MOL    C5316511   4.260   6.875   6.793  0.0968 -0.6887  0.3762
   40MOL    C5416512   4.447   6.679   6.143 -0.4067  0.6807  0.6274
   40MOL    H5516513   4.582   6.777   6.273  1.3756 -0.3900 -0.5459
   40MOL    H5616514   4.463   6.905   6.441 -1.5674  1.0892  1.7226
   40MOL    H5716515   4.539   6.774   6.536  1.6863  1.5925 -2.2139
   40MOL    H5816516   4.541   6.982   6.630 -2.3147  0.1348 -1.2418
   40MOL    H5916517   4.572   7.107   6.845 -0.1312  0.0571 -0.8216
   40MOL    H6016518   4.390   7.093   7.021  0.1786 -0.4986  0.1509
   40MOL    H6116519   4.199   6.927   6.981  0.6528 -0.0648  0.5637
   40MOL    H6216520   4.169   6.819   6.774  0.3066 -0.4538 -1.4168
   40MOL    H6316521   4.517   6.660   6.061 -0.4140  0.5198  0.6577
   40MOL    H6416522   4.385   6.590   6.154 -0.5649  0.7842  0.5532
   40MOL    C6516523   4.366   6.800   6.099  0.6610  0.1956  0.2911
   40MOL    O6616524   4.462   6.895   6.065 -0.6860  0.0215  0.5999
   40MOL    C6716525   4.428   7.032   6.075 -0.4976 -0.0742 -0.6260
   40MOL    O6816526   4.330   7.076   5.985 -0.2277 -0.1518  0.2099
   40MOL    C6916527   4.390   7.133   5.877  0.3895 -0.3197 -0.5732
   40MOL    C7016528   4.482   7.246   5.881  0.0256  0.8276 -0.4486
   40MOL    C7116529   4.516   7.307   5.754 -0.7668 -0.8460 -0.4057
   40MOL    C7216530   4.459   7.267   5.632  0.3762  0.2600  0.6077
   40MOL    C7316531   4.373   7.157   5.630 -0.3263  0.3284 -1.1999
   40MOL    C7416532   4.341   7.093   5.749  0.0136  0.2826  1.0628
   40MOL    C7516533   4.276   6.768   5.974 -0.5404  0.4696  0.2421
   40MOL    H7616534   4.297   6.822   6.180  1.3192  1.8655  0.4135
   40MOL    H7716535   4.527   7.078   6.067  0.3649 -1.5697  1.3178
   40MOL    H7816536   4.400   7.059   6.177 -0.5907  0.4684 -0.7904
   40MOL    H7916537   4.521   7.295   5.969 -3.6834  3.9387 -0.3815
   40MOL    H8016538   4.576   7.397   5.754  0.3345 -1.5574 -1.3652
   40MOL    H8116539   4.490   7.320   5.543  0.8820  0.1952  0.7454
   40MOL    H8216540   4.349   7.114   5.535  0.2488  0.9037 -1.6146
   40MOL    H8316541   4.273   7.010   5.753  0.1081  0.1812  0.6040
   40MOL    H8416542   4.224   6.857   5.940  0.4758  1.3439  0.9553
   40MOL    H8516543   4.336   6.734   5.889  1.8517  2.4647  1.0795
   40MOL    C8616544   4.168   6.661   5.992 -0.1882 -0.2484  0.2030
   40MOL    O8716545   4.080   6.710   6.099  0.3338 -0.2487  0.5021
   40MOL    C8816546   4.055   6.633   6.211  0.0650  0.0741 -0.3325
   40MOL    O8916547   3.985   6.518   6.171 -0.1735  0.0151  0.5674
   40MOL    C9016548   3.849   6.507   6.202 -0.4004  0.0808  0.5444
   40MOL    C9116549   3.756   6.611   6.160 -0.3598  0.0293 -0.2134
   40MOL    C9216550   3.618   6.599   6.183 -0.2757  0.3721  0.1633
   40MOL    C9316551   3.573   6.488   6.257  0.4995  0.1034 -0.1818
   40MOL    C9416552   3.661   6.380   6.286  0.1044 -0.6116  0.2801
   40MOL    C9516553   3.801   6.390   6.259 -0.6318 -0.1298  0.3172
   40MOL    C9616554   4.073   6.639   5.872  0.3763 -0.7824  0.5690
   40MOL    H9716555   4.207   6.566   6.027  1.7113  0.4270 -0.0491
   40MOL    H9816556   4.002   6.690   6.287 -2.0098 -0.8180 -1.0564
   40MOL    H9916557   4.148   6.592   6.249 -0.9234 -0.4306  1.6294
   40MOL   H10016558   3.792   6.701   6.112  2.1117  0.5239  2.4169
   40MOL   H10116559   3.551   6.679   6.155 -0.5695 -0.0923 -0.4683
   40MOL   H10216560   3.469   6.476   6.282  1.3954 -1.1429  3.1958
   40MOL   H10316561   3.618   6.291   6.329  0.3019 -0.5819  0.5433
   40MOL   H10416562   3.873   6.311   6.271 -0.4739 -0.3287 -1.6933
   40MOL   H10516563   3.988   6.580   5.907 -0.5108  0.6627  0.9081
   40MOL   H10616564   4.031   6.737   5.847  1.6499 -0.5142 -0.5775
   40MOL   C10716565   4.130   6.572   5.747 -1.0388  0.4057 -0.4299
   40MOL   O10816566   4.235   6.639   5.686  0.3660  0.1044  0.2457
   40MOL   C10916567   4.200   6.757   5.605 -0.4470  0.4511  0.1144
   40MOL   O11016568   4.158   6.709   5.477 -0.0815  0.1644  0.8658
   40MOL   C11116569   4.070   6.788   5.402 -1.0562  0.4601 -0.0577
   40MOL   C11216570   3.948   6.722   5.360 -0.2315 -0.2868 -0.0019
   40MOL   C11316571   3.865   6.787   5.270 -0.6656  0.1613 -0.2992
   40MOL   C11416572   3.879   6.919   5.227 -0.6701  0.1832 -0.4002
   40MOL   C11516573   3.983   6.992   5.280 -0.4573 -0.3212  0.0112
   40MOL   C11616574   4.076   6.924   5.366 -0.0552  0.3474 -0.1684
   40MOL   C11716575   4.182   6.433   5.791 -0.0790 -0.1984 -0.6404
   40MOL   H11816576   4.050   6.561   5.673  0.1297  1.0524 -1.8331
   40MOL   H11916577   4.289   6.818   5.588 -0.1569  0.0901  0.3319
   40MOL   H12016578   4.120   6.813   5.653  0.1570  2.4696 -1.1641
   40MOL   H12116579   3.922   6.619   5.382  2.3317 -1.1067 -0.6119
   40MOL   H12216580   3.789   6.730   5.218  0.8459 -0.2069 -2.1367
   40MOL   H12316581   3.812   6.968   5.158 -0.0086 -1.9458 -2.5927
   40MOL   H12416582   4.006   7.094   5.251  1.6742 -1.0030 -0.7812
   40MOL   H12516583   4.169   6.972   5.393  1.2672 -2.5692  0.7468
   40MOL   H12616584   4.115   6.386   5.863  2.1790  0.6462  2.1287
   40MOL   H12716585   4.276   6.457   5.841 -0.6705  2.7240 -0.8258
   40MOL   C12816586   4.208   6.341   5.674 -0.3534 -0.9610 -0.8768
   40MOL   O12916587   4.081   6.297   5.623  0.4519  0.5418  0.1192
   40MOL   C13016588   4.059   6.339   5.491  0.2327  0.0398  0.0875
   40MOL   O13116589   3.935   6.302   5.436  0.7605  0.4822  0.0085
   40MOL   C13216590   3.821   6.374   5.478 -0.1426  0.0290  0.6089
   40MOL   C13316591   3.717   6.397   5.384 -0.3675 -0.4375 -0.1009
   40MOL   C13416592   3.604   6.478   5.414  0.4729  0.2262 -0.1644
   40MOL   C13516593   3.601   6.533   5.541 -0.2858  0.2141 -0.1957
   40MOL   C13616594   3.695   6.504   5.646 -0.4003 -0.2411  0.1674
   40MOL   C13716595   3.804   6.416   5.608 -0.1353 -0.4720 -1.2063
   40MOL   C13816596   4.282   6.215   5.726  0.0136 -0.4535  0.5492
   40MOL   H13916597   4.276   6.390   5.604  0.8169 -1.6844 -0.2639
   40MOL   H14016598   4.136   6.299   5.425 -0.1349  0.0709 -0.3667
   40MOL   H14116599   4.076   6.447   5.497  2.3815 -0.2191 -0.8304
   40MOL   H14216600   3.721   6.350   5.286 -1.3505 -0.6149 -0.0665
   40MOL   H14316601   3.525   6.484   5.340  0.3780  0.1036 -0.0747
   40MOL   H14416602   3.518   6.597   5.569 -1.0401  0.1184 -2.0976
   40MOL   H14516603   3.684   6.549   5.743 -0.4483  1.0482 -0.4277
   40MOL   H14616604   3.869   6.377   5.685 -1.2175  0.9228  0.4474
   40MOL   H14716605   4.370   6.238   5.786  1.7359 -3.3686 -0.7360
   40MOL   H14816606   4.214   6.162   5.792  1.5883 -1.0707  1.6950
   40MOL   C14916607   4.340   6.126   5.613 -0.7628  0.1215 -0.2382
   40MOL   O15016608   4.469   6.171   5.579  0.7783 -0.1762  0.0531
   40MOL   C15116609   4.496   6.183   5.445 -0.0946 -0.0478  0.0771
   40MOL   O15216610   4.427   6.298   5.387  0.1481 -0.4235 -0.0015
   40MOL   C15316611   4.478   6.422   5.419 -0.5563 -0.8246 -0.7804
   40MOL   C15416612   4.414   6.530   5.357 -0.8469 -0.1061 -0.0477
   40MOL   C15516613   4.445   6.663   5.379  0.0532  0.4401  0.2564
   40MOL   C15616614   4.529   6.689   5.491 -0.1504  0.3368  0.0884
   40MOL   C15716615   4.589   6.587   5.565  0.0720  0.5532  0.0541
   40MOL   C15816616   4.563   6.452   5.531 -0.5026  0.6683  0.3814
   40MOL   C15916617   4.356   5.990   5.669 -0.0041  0.4882  0.1940
   40MOL   H16016618   4.276   6.134   5.524 -2.3131 -1.8645  0.6581
   40MOL   H16116619   4.602   6.202   5.423  0.1787 -0.0707  1.3610
   40MOL   H16216620   4.466   6.090   5.396  0.0059  0.3637 -0.7818
   40MOL   H16316621   4.357   6.514   5.267 -0.7810  1.8451 -0.4650
   40MOL   H16416622   4.414   6.746   5.317 -0.2136 -0.6108 -1.0254
   40MOL   H16516623   4.535   6.792   5.521  0.1851 -0.3309  2.4053
   40MOL   H16616624   4.658   6.616   5.643 -0.7785  0.4757  0.8384
   40MOL   H16716625   4.597   6.373   5.596 -1.3092  1.2493  1.5404
   40MOL   H16816626   4.415   5.991   5.761  2.3304 -0.5440 -1.2557
   40MOL   H16916627   4.411   5.932   5.595 -1.0251  0.6311 -0.6887
   40MOL   C17016628   4.228   5.917   5.691 -0.2899  1.1147 -1.1713
   40MOL   O17116629   4.172   5.888   5.567  0.3652  0.0607 -0.6290
   40MOL   C17216630   4.041   5.933   5.553  0.7117 -0.1864 -0.1131
   40MOL   O17316631   4.006   5.901   5.424  0.1605 -0.5493 -0.3398
   40MOL   C17416632   3.887   5.949   5.379 -0.1136 -0.9193  0.0350
   40MOL   C17516633   3.850   5.919   5.248  0.0452 -0.5380  1.0016
   40MOL   C17616634   3.720   5.953   5.192 -1.5521 -0.0847 -0.0572
   40MOL   C17716635   3.626   6.015   5.279  0.4140 -0.0616  0.1023
   40MOL   C17816636   3.668   6.061   5.403 -0.1007  0.2121 -0.3119
   40MOL   C17916637   3.793   6.024   5.453  0.2282  0.3417 -0.3237
   40MOL   C18016638   4.251   5.779   5.759  0.3230  0.7087 -0.0185
   40MOL   H18116639   4.158   5.980   5.747 -0.1728  1.7257 -1.7031
   40MOL   H18216640   4.039   6.041   5.560  0.0146 -0.2471  0.7559
   40MOL   H18316641   3.968   5.897   5.626 -0.3337  0.9964 -0.5640
   40MOL   H18416642   3.917   5.859   5.189 -0.1136 -0.2072  0.4773
   40MOL   H18516643   3.697   5.922   5.091  0.0800  0.8601 -0.7263
   40MOL   H18616644   3.530   6.038   5.236  0.1618 -0.7230  0.2962
   40MOL   H18716645   3.606   6.126   5.463  1.4693 -0.2304  1.8812
   40MOL   H18816646   3.804   6.051   5.557 -0.6664  0.5942 -0.2924
   40MOL   H18916647   4.274   5.705   5.682  0.2405  1.5929 -0.9103
   40MOL   H19016648   4.343   5.779   5.817  0.4665  0.8140 -0.2442
   40MOL   C19116649   4.129   5.711   5.822 -0.0820 -0.2325 -0.3963
   40MOL   O19216650   4.105   5.785   5.936 -0.8166 -0.2409 -0.0673
   40MOL   C19316651   3.982   5.763   5.992  0.5158  0.2239  0.2070
   40MOL   O19416652   3.880   5.828   5.918  0.0203 -0.5149  0.3648
   40MOL   C19516653   3.874   5.967   5.929  0.3664 -0.1074  0.0008
   40MOL   C19616654   3.944   6.049   6.016 -0.4437  0.8176  0.0860
   40MOL   C19716655   3.931   6.189   6.010 -0.5117 -0.0342 -0.1191
   40MOL   C19816656   3.840   6.250   5.924 -0.0645  0.2916 -0.4523
   40MOL   C19916657   3.758   6.168   5.846  0.6766  0.5862 -0.1048
   40MOL   C20016658   3.784   6.028   5.837  0.3997  0.2564  0.0980
   40MOL   C20116659   4.158   5.559   5.856 -0.6737  0.0156  0.3382
   40MOL   H20216660   4.046   5.717   5.752 -0.0884  2.0266 -0.2413
   40MOL   H20316661   3.986   5.803   6.094 -0.2088  0.0743  0.2953
   40MOL   H20416662   3.959   5.657   5.998  1.0007  0.1560  1.0395
   40MOL   H20516663   4.024   6.007   6.076 -0.6811  0.0319 -0.1355
   40MOL   H20616664   3.999   6.250   6.068 -1.2557  0.4571  0.2519
   40MOL   H20716665   3.828   6.357   5.927 -2.0360  0.0751  0.2539
   40MOL   H20816666   3.676   6.212   5.791  1.5171  0.1358 -1.7158
   40MOL   H20916667   3.724   5.964   5.775  0.7323  0.2460 -0.2153
   40MOL   H21016668   4.061   5.516   5.881 -0.6450 -0.7619 -0.8522
   40MOL   H21116669   4.205   5.510   5.771 -0.2869  0.7079  0.1470
   40MOL   C21216670   4.245   5.545   5.986 -0.0829 -0.2783  0.0211
   40MOL   O21316671   4.163   5.547   6.106 -0.0810 -0.1404  0.0701
   40MOL   C21416672   4.206   5.627   6.210  0.0761 -0.5794  0.1174
   40MOL   O21516673   4.328   5.597   6.265  0.1666  0.7165  0.2995
   40MOL   C21616674   4.358   5.654   6.387  0.2758 -1.0102 -0.0686
   40MOL   C21716675   4.493   5.635   6.430 -0.0721  0.1432  0.4303
   40MOL   C21816676   4.541   5.706   6.541  0.2792  0.5499 -0.0971
   40MOL   C21916677   4.461   5.790   6.621  0.6527 -0.1057  0.6607
   40MOL   C22016678   4.330   5.805   6.579  0.1491 -0.1696 -0.4978
   40MOL   C22116679   4.277   5.741   6.466  0.2808 -0.1280  0.0608
   40MOL   C22216680   4.327   5.418   5.979 -0.2670 -0.0026  0.2910
   40MOL   H22316681   4.304   5.636   5.994 -1.4607  0.6051  0.4778
   40MOL   H22416682   4.122   5.606   6.277  2.0584 -1.7709  2.3062
   40MOL   H22516683   4.197   5.731   6.179 -3.7806 -1.5038 -2.2578
   40MOL   H22616684   4.556   5.563   6.379 -1.2335 -0.5758 -0.0019
   40MOL   H22716685   4.645   5.691   6.567  1.0431  0.4009 -3.0323
   40MOL   H22816686   4.504   5.841   6.706  1.1426 -1.6147  1.3351
   40MOL   H22916687   4.255   5.866   6.626  1.2169 -0.9982  2.3592
   40MOL   H23016688   4.176   5.766   6.436  0.2258  0.6058  0.8532
   40MOL   H23116689   4.349   5.394   6.083 -2.9808  0.9025  1.1222
   40MOL   H23216690   4.258   5.343   5.943 -1.3429 -0.1588  2.6035
   40MOL   C23316691   4.448   5.414   5.891  0.0003 -0.4348  0.3987
   40MOL   O23416692   4.549   5.518   5.908 -0.1924  0.0239 -0.3177
   40MOL   C23516693   4.571   5.556   6.039 -0.6987 -0.4056  0.0041
   40MOL   O23616694   4.696   5.616   6.054 -0.2616 -1.0290  0.1961
   40MOL   C23716695   4.809   5.543   6.032  0.6765  0.1288  0.1904
   40MOL   C23816696   4.814   5.407   6.044 -0.2770 -0.3975 -0.6470
   40MOL   C23916697   4.937   5.336   6.025  0.5171 -0.0566  0.4214
   40MOL   C24016698   5.061   5.404   5.993  0.1999  0.1978 -0.2466
   40MOL   C24116699   5.053   5.547   5.968  0.4834  0.6398  0.3124
   40MOL   C24216700   4.925   5.614   5.993 -0.0607 -0.3053  0.2060
   40MOL   C24316701   4.505   5.273   5.891  0.0637 -0.6484  0.4514
   40MOL   H24416702   4.406   5.426   5.791 -0.0821  1.1267  0.6012
   40MOL   H24516703   4.570   5.463   6.095  0.2256  0.1340  0.9434
   40MOL   H24616704   4.490   5.618   6.077 -0.7015 -0.3041 -0.1661
   40MOL   H24716705   4.733   5.340   6.066  0.8072 -1.2141  0.9445
   40MOL   H24816706   4.950   5.229   6.037 -3.2767 -0.4296  1.7598
   40MOL   H24916707   5.153   5.349   5.983 -0.3497 -0.3925 -2.1354
   40MOL   H25016708   5.131   5.617   5.944 -0.8802  1.7758 -0.9677
   40MOL   H25116709   4.918   5.722   5.990 -0.8244 -0.3432  0.5722
   40MOL   H25216710   4.545   5.258   5.992 -0.3050 -0.5971  0.6062
   40MOL   H25316711   4.426   5.201   5.872 -0.4795 -0.2894  1.3195
   40MOL   C25416712   4.620   5.240   5.791 -0.5071  0.4378  0.6115
   40MOL   O25516713   4.678   5.114   5.818  0.3621 -0.2339 -0.6764
   40MOL   C25616714   4.816   5.095   5.795 -0.4786  1.1989 -0.0032
   40MOL   O25716715   4.866   4.997   5.876  0.5562 -0.3597 -0.3884
   40MOL   C25816716   4.846   4.867   5.841 -0.0892 -0.1597  0.0228
   40MOL   C25916717   4.945   4.775   5.887 -0.3325  0.6863  0.4027
   40MOL   C26016718   4.937   4.647   5.848  0.6324  0.8574 -0.5614
   40MOL   C26116719   4.829   4.603   5.766 -1.0675  0.4076 -0.1909
   40MOL   C26216720   4.732   4.691   5.718  0.8583 -0.5793 -1.0012
   40MOL   C26316721   4.739   4.826   5.753 -0.6022 -0.2996  0.1005
   40MOL   C26416722   4.576   5.245   5.646  0.4126 -1.1046  0.3343
   40MOL   H26516723   4.700   5.307   5.823 -0.7757  1.7283 -1.3450
   40MOL   H26616724   4.878   5.182   5.818  1.2732 -0.1938  0.6810
   40MOL   H26716725   4.824   5.084   5.687 -0.7866 -2.1264  0.2603
   40MOL   H26816726   5.023   4.811   5.952  0.3716  1.4932 -0.8428
   40MOL   H26916727   5.007   4.572   5.883 -0.0832  0.6712  0.4659
   40MOL   H27016728   4.820   4.499   5.738 -1.8705  0.8169 -1.5029
   40MOL   H27116729   4.656   4.664   5.646  1.0495 -1.5659 -0.8366
   40MOL   H27216730   4.657   4.890   5.722 -0.6208 -0.5148 -0.3075
   40MOL   H27316731   4.528   5.340   5.621  1.8794 -0.5568 -0.4652
   40MOL   H27416732   4.663   5.251   5.581  0.2096 -2.6020 -0.1035
   40MOL   C27516733   4.492   5.130   5.591  0.0865 -0.3185 -0.3309
   40MOL   O27616734   4.349   5.124   5.627 -0.2557  0.2899 -1.1919
   40MOL   C27716735   4.315   5.004   5.694  0.5718 -0.6836 -0.3892
   40MOL   O27816736   4.340   4.895   5.619  0.1839  0.0041  0.2909
   40MOL   C27916737   4.255   4.878   5.511  0.3057  0.3735  0.2319
   40MOL   C28016738   4.286   4.772   5.421 -1.1229  0.0459  0.2855
   40MOL   C28116739   4.210   4.749   5.306  0.0271 -0.1241  0.2033
   40MOL   C28216740   4.093   4.814   5.285 -0.4272  0.1025  0.6029
   40MOL   C28316741   4.054   4.912   5.377 -0.0719  0.0558  0.9883
   40MOL   C28416742   4.135   4.949   5.487 -0.1262  0.2414  0.3966
   40MOL   C28516743   4.503   5.116   5.432 -0.2068  0.4300  0.5755
   40MOL   H28616744   4.539   5.037   5.624  1.0435 -0.0564 -0.9300
   40MOL   H28716745   4.217   5.018   5.742  0.0700  2.7019 -2.2711
   40MOL   H28816746   4.382   4.997   5.780  1.1600 -0.4499 -0.8290
   40MOL   H28916747   4.373   4.711   5.438  0.1762  2.0953  1.1180
   40MOL   H29016748   4.247   4.684   5.228  1.1154 -0.1132  0.6862
   40MOL   H29116749   4.028   4.789   5.202 -0.1450 -0.4258  0.5358
   40MOL   H29216750   3.971   4.978   5.359  0.3478  1.2997  3.3846
   40MOL   H29316751   4.092   5.019   5.558 -0.9372 -1.1527  1.3178
   40MOL   H29416752   4.448   5.028   5.401 -2.1018  0.8634  2.6137
   40MOL   H29516753   4.608   5.097   5.408 -0.5771  0.0653 -0.8156
   40MOL   C29616754   4.440   5.228   5.350  0.0809 -0.1421 -0.0967
   40MOL   O29716755   4.509   5.228   5.224 -0.7444 -0.3444  0.2048
   40MOL   C29816756   4.601   5.331   5.225  0.1560 -0.1172 -0.6294
   40MOL   O29916757   4.692   5.308   5.118  0.2141 -0.4208  0.3006
   40MOL   C30016758   4.653   5.338   4.993 -0.1085  0.7443 -0.5209
   40MOL   C30116759   4.739   5.323   4.882  0.1202  0.7201  0.1715
   40MOL   C30216760   4.708   5.362   4.749 -0.0213 -0.4381  0.2624
   40MOL   C30316761   4.574   5.406   4.725 -0.5718 -0.0874 -0.2559
   40MOL   C30416762   4.485   5.414   4.837  0.3325  1.0984 -0.1644
   40MOL   C30516763   4.524   5.380   4.969  0.1169 -0.3852  0.2033
   40MOL   C30616764   4.293   5.209   5.319  0.3958  0.5179 -0.1008
   40MOL   H30716765   4.444   5.317   5.413 -0.6865 -0.8179  0.9331
   40MOL   H30816766   4.651   5.332   5.322 -0.0372  2.1703 -0.5415
   40MOL   H30916767   4.549   5.426   5.213 -0.2431 -0.1317  0.8181
   40MOL   H31016768   4.827   5.268   4.909 -1.3434  0.5405  4.8965
   40MOL   H31116769   4.769   5.350   4.661 -0.8078 -1.3271 -0.1750
   40MOL   H31216770   4.533   5.439   4.631  3.1252  1.0794 -1.5460
   40MOL   H31316771   4.386   5.452   4.821  0.8794  2.2491 -0.8734
   40MOL   H31416772   4.443   5.392   5.039 -0.1506  0.7486 -0.2971
   40MOL   H31516773   4.236   5.188   5.409  1.1844  1.1089  0.5461
   40MOL   H31616774   4.275   5.119   5.259  0.0893 -0.8200  1.9756
   40MOL   C31716775   4.229   5.331   5.254 -0.2285 -0.1164 -0.6909
   40MOL   O31816776   4.238   5.434   5.356  1.0147  0.0860  0.2614
   40MOL   C31916777   4.219   5.561   5.314 -0.0378  0.5787  0.3149
   40MOL   O32016778   4.293   5.596   5.201 -0.2451 -0.0991 -0.0476
   40MOL   C32116779   4.282   5.725   5.157 -0.5582 -0.0943 -0.4663
   40MOL   C32216780   4.321   5.750   5.024  0.1922  0.3279  0.4611
   40MOL   C32316781   4.315   5.884   4.974  0.2430  0.1834  0.0911
   40MOL   C32416782   4.276   5.989   5.056 -0.5078  0.9809  0.1520
   40MOL   C32516783   4.243   5.971   5.192 -0.2498 -0.2216 -0.3252
   40MOL   C32616784   4.246   5.837   5.239  0.2163  0.5773  0.2173
   40MOL   C32716785   4.077   5.306   5.205  0.7975 -0.4864 -0.4708
   40MOL   H32816786   4.286   5.360   5.166  0.6432 -2.6478 -0.9868
   40MOL   H32916787   4.253   5.610   5.406  0.3590 -1.2577  1.1781
   40MOL   H33016788   4.114   5.584   5.299  0.1221  0.2093 -1.3748
   40MOL   H33116789   4.350   5.667   4.961 -0.1356  0.7199 -0.2151
   40MOL   H33216790   4.337   5.898   4.870 -0.2694  1.7160  0.1687
   40MOL   H33316791   4.269   6.089   5.016  1.4570  0.4566 -1.6105
   40MOL   H33416792   4.205   6.046   5.260 -0.4988  0.2842 -1.0194
   40MOL   H33516793   4.224   5.826   5.344  1.0206 -0.8922  0.2407
   40MOL   H33616794   4.016   5.291   5.294 -0.2088  0.7412 -0.9457
   40MOL   H33716795   4.033   5.401   5.177  2.4631  1.0222  1.9305
   40MOL   C33816796   4.045   5.193   5.096  0.5286  0.0817  0.4469
   40MOL   O33916797   3.914   5.221   5.038  0.4657 -0.2374 -0.2415
   40MOL   C34016798   3.807   5.225   5.127  0.5811  0.1785 -0.3765
   40MOL   O34116799   3.783   5.102   5.197  0.2257  0.5844  0.3534
   40MOL   C34216800   3.747   4.994   5.124  0.3267 -0.2019  0.0306
   40MOL   C34316801   3.721   5.003   4.984 -0.1233  0.1826 -0.2028
   40MOL   C34416802   3.685   4.886   4.908  0.0897 -0.4594  0.1353
   40MOL   C34516803   3.667   4.765   4.972  0.3944  0.4484 -0.1303
   40MOL   C34616804   3.686   4.754   5.107 -0.5149  0.3177  0.1540
   40MOL   C34716805   3.733   4.867   5.184  0.6073  0.1714  0.1753
   40MOL   C34816806   4.143   5.209   4.975 -0.4800  0.0429  0.6293
   40MOL   H34916807   4.037   5.088   5.125  0.4225  0.5102  2.0347
   40MOL   H35016808   3.714   5.253   5.078 -0.0184 -0.4652  0.3946
   40MOL   H35116809   3.816   5.306   5.198  2.3183  0.7087 -1.1625
   40MOL   H35216810   3.726   5.098   4.933 -1.8724 -0.2091 -1.1184
   40MOL   H35316811   3.674   4.886   4.800 -2.7694 -1.5823  0.3765
   40MOL   H35416812   3.642   4.678   4.912  0.5766  1.6140 -1.9133
   40MOL   H35516813   3.684   4.659   5.157 -0.6945 -0.2773 -0.9571
   40MOL   H35616814   3.763   4.846   5.286 -0.0872 -0.0725  0.3301
   40MOL   H35716815   4.247   5.212   5.007 -0.1012  3.0611 -0.7898
   40MOL   H35816816   4.113   5.309   4.943 -0.8146  0.2343  1.5349
   40MOL   C35916817   4.135   5.106   4.862 -0.2425  0.0968  0.4623
   40MOL   O36016818   4.217   4.994   4.900  0.7960 -0.5267 -0.1173
   40MOL   C36116819   4.139   4.883   4.930 -0.3111 -0.2283 -0.2855
   40MOL   O36216820   4.126   4.807   4.814  0.2615  0.3365 -0.3439
   40MOL   C36316821   4.043   4.692   4.822 -0.1801 -0.3164 -0.2008
   40MOL   C36416822   4.011   4.625   4.702  0.0211  0.3733  0.2264
   40MOL   C36516823   3.955   4.498   4.704 -0.7432 -0.6292 -0.1801
   40MOL   C36616824   3.917   4.445   4.831 -0.6166  0.0475 -0.3477
   40MOL   C36716825   3.936   4.513   4.946 -0.4247  0.1853  0.1270
   40MOL   C36816826   4.008   4.637   4.944  0.2521  0.2246  0.1108
   40MOL   C36916827   4.208   5.154   4.730 -0.0180  0.1641 -0.7260
   40MOL   H37016828   4.035   5.075   4.832  0.2897 -0.2434 -0.9761
   40MOL   H37116829   4.045   4.906   4.982  0.2404 -0.0856  0.6621
   40MOL   H37216830   4.201   4.829   5.001 -2.6256 -2.4478  0.1322
   40MOL   H37316831   4.026   4.665   4.602 -2.6137 -0.1127 -0.4018
   40MOL   H37416832   3.921   4.444   4.617 -0.0901 -2.1163  0.4730
   40MOL   H37516833   3.871   4.348   4.837 -1.7756  0.5595 -0.9212
   40MOL   H37616834   3.919   4.468   5.043 -1.0989 -0.5204 -0.3219
   40MOL   H37716835   4.034   4.678   5.040  1.0690  2.7678 -1.1486
   40MOL   H37816836   4.208   5.059   4.677 -1.0958 -0.5157  0.4346
   40MOL   H37916837   4.312   5.184   4.744  0.1698  0.5147 -2.8004
   40MOL   C38016838   4.128   5.271   4.666 -0.0660 -0.4581  0.5287
   40MOL   O38116839   3.995   5.231   4.639 -0.1641 -0.0828 -0.3808
   40MOL   C38216840   3.885   5.296   4.690  0.3991 -0.3597  0.4783
   40MOL   O38316841   3.770   5.214   4.691 -0.6303  0.0878 -0.4198
   40MOL   C38416842   3.699   5.199   4.572  0.0449 -0.5477  0.0870
   40MOL   C38516843   3.750   5.246   4.453 -0.1716 -0.7689  0.1113
   40MOL   C38616844   3.673   5.233   4.334  0.3236  0.5605 -0.4324
   40MOL   C38716845   3.549   5.168   4.332  0.1068  0.5265 -0.0343
   40MOL   C38816846   3.501   5.111   4.451  0.1865 -0.2053 -0.5567
   40MOL   C38916847   3.576   5.130   4.573 -0.2748 -1.0569 -0.1318
   40MOL   C39016848   4.196   5.300   4.526 -0.6035  0.2144  0.3929
   40MOL   H39116849   4.132   5.362   4.726  0.1231 -1.5540  2.2123
   40MOL   H39216850   3.913   5.310   4.794 -1.2416 -3.7868  1.4231
   40MOL   H39316851   3.861   5.389   4.638 -0.6971  0.4172  2.3508
   40MOL   H39416852   3.848   5.290   4.450 -1.2489  1.6216 -1.9243
   40MOL   H39516853   3.702   5.286   4.245 -0.7037  1.2254 -0.3848
   40MOL   H39616854   3.483   5.160   4.247 -0.9300 -0.1308  0.8236
   40MOL   H39716855   3.410   5.054   4.440  1.1018 -1.2008 -3.6600
   40MOL   H39816856   3.549   5.077   4.663 -0.4429  0.7530  0.9035
   40MOL   H39916857   4.185   5.215   4.458  1.7693 -1.7740  2.3821
   40MOL   H40016858   4.301   5.328   4.538 -0.7421  0.7131  0.4631
   40MOL   C40116859   4.145   5.431   4.467 -0.2421  0.1411 -0.5641
   40MOL   O40216860   4.186   5.545   4.553 -0.2172 -0.5217  0.4416
   40MOL   C40316861   4.109   5.664   4.536  0.2563  0.6600 -0.1562
   40MOL   O40416862   3.970   5.641   4.573 -0.2442  0.0403  1.0637
   40MOL   C40516863   3.939   5.628   4.706 -0.1034 -0.0237 -0.9985
   40MOL   C40616864   4.039   5.622   4.808 -0.0497 -0.5913  0.2680
   40MOL   C40716865   4.006   5.608   4.945 -0.5720 -0.5580  0.3351
   40MOL   C40816866   3.873   5.615   4.985 -0.1159 -0.5430 -0.5668
   40MOL   C40916867   3.773   5.622   4.884 -0.2288 -0.1199  0.0915
   40MOL   C41016868   3.805   5.628   4.744 -0.2032  0.2148  0.0966
   40MOL   C41116869   4.199   5.457   4.320  0.2078 -0.0568 -0.6338
   40MOL   H41216870   4.037   5.425   4.464 -0.2347 -1.9101  1.5312
   40MOL   H41316871   4.116   5.705   4.436 -1.7648  2.1859  0.2932
   40MOL   H41416872   4.144   5.744   4.602  0.2252  1.6117 -1.2795
   40MOL   H41516873   4.142   5.614   4.778  0.1072  1.6802  0.1197
   40MOL   H41616874   4.088   5.611   5.015  0.4072 -0.1582 -0.7965
   40MOL   H41716875   3.835   5.603   5.085  1.5978  0.1308  0.1716
   40MOL   H41816876   3.673   5.609   4.923  0.7984 -0.4855  2.7367
   40MOL   H41916877   3.737   5.643   4.661 -0.0736 -2.4481 -0.5374
   40MOL   H42016878   4.146   5.532   4.262 -1.5490 -0.9251 -0.1787
   40MOL   H42116879   4.186   5.362   4.267 -0.2474  0.8155 -2.1122
   40MOL   H42216880   4.304   5.488   4.318 -0.1960  1.3625 -0.3257
   41MOL     C116881   2.066   2.482   3.519  0.4225 -0.3886  0.0516
   41MOL     O216882   2.127   2.605   3.487  0.9211  0.7682  0.3054
   41MOL     C316883   2.092   2.674   3.373 -0.1738  0.6715 -0.1401
   41MOL     O416884   2.074   2.588   3.263 -0.4812  0.4716 -0.1357
   41MOL     C516885   2.194   2.540   3.218 -0.2634  0.3871 -0.2469
   41MOL     C616886   2.176   2.449   3.118  0.0194  0.2119 -0.2073
   41MOL     C716887   2.285   2.389   3.058 -0.1770  0.0555  0.0311
   41MOL     C816888   2.413   2.426   3.092  0.1586 -0.0675 -0.0100
   41MOL     C916889   2.435   2.515   3.200 -0.6148  0.1781  0.3566
   41MOL    C1016890   2.326   2.567   3.268 -0.3305 -0.5031 -0.3192
   41MOL    C1116891   2.049   2.455   3.666 -0.3576  0.4408 -0.5393
   41MOL    H1216892   1.965   2.482   3.480 -0.4101  0.1968  2.1684
   41MOL    H1316893   1.992   2.715   3.385  0.1882  1.7822 -0.7898
   41MOL    H1416894   2.160   2.758   3.351  0.0165  0.6021  0.1881
   41MOL    H1516895   2.076   2.439   3.079  0.3872  0.3866 -1.1926
   41MOL    H1616896   2.275   2.316   2.978  2.0752 -0.6284  0.3159
   41MOL    H1716897   2.492   2.375   3.038 -0.5076  0.1781 -1.2332
   41MOL    H1816898   2.538   2.536   3.224 -0.3968  0.0107 -0.4125
   41MOL    H1916899   2.344   2.639   3.346 -3.2159 -1.9776  1.7949
   41MOL    H2016900   1.987   2.365   3.676  1.6652 -1.4147 -4.0547
   41MOL    H2116901   2.000   2.539   3.716  1.0596  1.4231 -0.7647
   41MOL    H2216902   2.124   2.398   3.479  0.6018 -0.5332  0.6065
   41MOL    C2316903   2.181   2.445   3.740 -0.4435 -0.5474  0.2436
   41MOL    O2416904   2.278   2.351   3.681 -0.8741  0.2029 -0.8069
   41MOL    C2516905   2.389   2.398   3.615  1.0734  0.2724  0.0463
   41MOL    O2616906   2.472   2.451   3.710 -0.5955 -0.4593  0.1602
   41MOL    C2716907   2.589   2.510   3.664 -0.6086  0.5478 -0.3274
   41MOL    C2816908   2.623   2.532   3.528  0.0627  0.3509 -0.5970
   41MOL    C2916909   2.751   2.560   3.482 -0.1535  0.4333 -0.0239
   41MOL    C3016910   2.855   2.595   3.573 -0.5746  0.0913 -0.2833
   41MOL    C3116911   2.814   2.603   3.710 -1.1951 -0.8782 -0.2748
   41MOL    C3216912   2.693   2.551   3.757 -0.2350  0.7198  0.4613
   41MOL    C3316913   2.172   2.408   3.888 -0.0898  0.2961  0.7070
   41MOL    H3416914   2.226   2.544   3.748 -0.3182 -0.5716 -0.1608
   41MOL    H3516915   2.353   2.470   3.541 -1.3831 -0.4628  0.4849
   41MOL    H3616916   2.424   2.312   3.559 -0.9476  0.9970 -2.4404
   41MOL    H3716917   2.557   2.513   3.445  1.1741 -0.8830 -1.2114
   41MOL    H3816918   2.767   2.554   3.375 -1.5107 -0.4129 -0.2004
   41MOL    H3916919   2.958   2.614   3.545 -0.2817 -2.3714 -0.9806
   41MOL    H4016920   2.885   2.641   3.783  1.3152 -2.9757 -1.5542
   41MOL    H4116921   2.683   2.549   3.865 -3.7439  2.3671  0.2274
   41MOL    H4216922   2.143   2.303   3.890 -1.1541  0.5567 -0.5119
   41MOL    H4316923   2.085   2.455   3.934  1.6196  2.9027  1.3889
   41MOL    C4416924   2.299   2.418   3.978 -0.0736  0.4706  0.7301
   41MOL    O4516925   2.251   2.371   4.107  0.7323  0.0275  0.8793
   41MOL    C4616926   2.274   2.243   4.138  0.0358  0.0711  0.0112
   41MOL    O4716927   2.337   2.223   4.262 -0.0778 -0.2055  0.2717
   41MOL    C4816928   2.384   2.094   4.290  0.3565 -0.6764 -0.0489
   41MOL    C4916929   2.450   2.064   4.409 -0.4557  0.5851 -0.0770
   41MOL    C5016930   2.478   1.928   4.447 -0.3588 -0.0719  0.4024
   41MOL    C5116931   2.446   1.818   4.366  0.0292  0.5176 -0.4655
   41MOL    C5216932   2.377   1.850   4.245 -0.6559  0.6290  0.3428
   41MOL    C5316933   2.334   1.981   4.217  0.7605  0.5328  0.5163
   41MOL    C5416934   2.339   2.562   4.002  0.4453 -0.5189 -0.0264
   41MOL    H5516935   2.386   2.361   3.943 -1.1997  0.2841 -1.8966
   41MOL    H5616936   2.325   2.190   4.057 -0.3869  1.1468 -0.9757
   41MOL    H5716937   2.171   2.207   4.141 -0.4033  1.3058  0.0031
   41MOL    H5816938   2.474   2.145   4.477  0.3480  0.1590  0.1499
   41MOL    H5916939   2.507   1.910   4.549 -0.4574  1.1795  0.6628
   41MOL    H6016940   2.471   1.717   4.396  0.0797  0.6530 -0.0379
   41MOL    H6116941   2.334   1.770   4.186 -0.5031  0.7893  0.0140
   41MOL    H6216942   2.261   1.989   4.138  0.4619  0.6205  0.7967
   41MOL    H6316943   2.367   2.602   3.904  1.0323 -1.6311 -0.3199
   41MOL    H6416944   2.246   2.611   4.032  0.6688 -1.4555  2.2533
   41MOL    C6516945   2.452   2.581   4.107  0.4092  0.5324 -0.6123
   41MOL    O6616946   2.570   2.515   4.065 -0.0382 -0.2703 -1.0298
   41MOL    C6716947   2.606   2.405   4.140  1.1348  0.1953 -0.2817
   41MOL    O6816948   2.713   2.341   4.083 -0.2399 -0.0666  0.4382
   41MOL    C6916949   2.834   2.409   4.073  0.6563  0.1929  0.1808
   41MOL    C7016950   2.947   2.338   4.021  0.3100 -0.0440 -0.0662
   41MOL    C7116951   3.065   2.404   3.992 -0.4340 -0.2220  0.3853
   41MOL    C7216952   3.072   2.543   4.006 -0.2470  0.1990 -0.2586
   41MOL    C7316953   2.967   2.611   4.073 -0.4187  0.1212 -0.2432
   41MOL    C7416954   2.848   2.544   4.102  0.5053  0.5332  0.0457
   41MOL    C7516955   2.482   2.727   4.133  0.4127  0.6162 -0.0237
   41MOL    H7616956   2.395   2.538   4.189  2.0145  0.7678  0.6323
   41MOL    H7716957   2.530   2.328   4.133  2.5151 -1.1042 -1.2933
   41MOL    H7816958   2.628   2.444   4.240  1.5277 -1.4563  0.2887
   41MOL    H7916959   2.951   2.231   4.006 -0.1875 -0.0043 -0.4960
   41MOL    H8016960   3.154   2.351   3.961 -0.9234 -0.1495 -1.1817
   41MOL    H8116961   3.165   2.591   3.984 -1.3613  1.9488 -1.2372
   41MOL    H8216962   2.982   2.715   4.098  0.9351 -0.2562  0.5573
   41MOL    H8316963   2.769   2.598   4.152 -0.6897 -0.1203 -1.1008
   41MOL    H8416964   2.543   2.764   4.051 -0.4182 -1.1703 -1.4944
   41MOL    H8516965   2.387   2.779   4.120 -1.9722 -3.0494  1.6996
   41MOL    C8616966   2.546   2.758   4.273  0.2622  0.0736 -0.3804
   41MOL    O8716967   2.587   2.895   4.274  0.1066 -0.1915  0.4136
   41MOL    C8816968   2.706   2.924   4.199  0.1081 -0.2780  0.3534
   41MOL    O8916969   2.833   2.909   4.261 -0.1836  0.6263 -0.2667
   41MOL    C9016970   2.881   3.020   4.308 -0.6115  0.0819  0.0800
   41MOL    C9116971   2.812   3.088   4.406  0.2430  0.3539  0.0224
   41MOL    C9216972   2.870   3.198   4.471 -0.1927  0.1354 -0.0721
   41MOL    C9316973   2.987   3.253   4.422 -0.0208  0.5488 -0.0698
   41MOL    C9416974   3.056   3.187   4.317 -0.1099  0.3614  0.6701
   41MOL    C9516975   3.004   3.067   4.258  0.0921 -0.1486  0.0790
   41MOL    C9616976   2.448   2.723   4.382  0.7730 -0.1290  0.0657
   41MOL    H9716977   2.635   2.698   4.285  1.8810  2.0911 -1.9419
   41MOL    H9816978   2.685   3.022   4.156 -0.4316  0.8429  3.0770
   41MOL    H9916979   2.722   2.862   4.111 -0.2055 -1.2156  0.9468
   41MOL   H10016980   2.721   3.038   4.436  1.2308 -2.1201 -0.9699
   41MOL   H10116981   2.823   3.251   4.553  0.4730  0.2633  0.2341
   41MOL   H10216982   3.031   3.344   4.459 -0.8243  1.1605 -0.6161
   41MOL   H10316983   3.149   3.230   4.282 -1.0765 -0.0679 -2.6083
   41MOL   H10416984   3.058   3.006   4.187  0.4694 -0.1496  0.3629
   41MOL   H10516985   2.351   2.762   4.353  1.2908  1.4121  0.3626
   41MOL   H10616986   2.447   2.614   4.383 -0.3343 -0.1226  1.1776
   41MOL   C10716987   2.486   2.794   4.516 -0.5156  0.2977 -0.0029
   41MOL   O10816988   2.387   2.877   4.566 -0.2303  0.1463  0.2971
   41MOL   C10916989   2.386   3.006   4.520  0.6037  0.2033 -0.2946
   41MOL   O11016990   2.287   3.090   4.563 -0.1046  0.2598 -0.3249
   41MOL   C11116991   2.155   3.070   4.516 -0.4813  0.0818 -0.2663
   41MOL   C11216992   2.064   3.172   4.546 -0.2345  0.0971 -0.1481
   41MOL   C11316993   1.927   3.151   4.513 -0.1065  0.0043 -0.1786
   41MOL   C11416994   1.882   3.038   4.445  0.5175 -0.1603 -0.5956
   41MOL   C11516995   1.969   2.937   4.410  0.3636  0.4495  0.4289
   41MOL   C11616996   2.105   2.957   4.445 -0.3241 -0.2904  0.0713
   41MOL   C11716997   2.499   2.693   4.632 -0.7196  0.2857 -0.3595
   41MOL   H11816998   2.579   2.851   4.512 -0.9766  1.0872  0.3292
   41MOL   H11916999   2.387   2.998   4.411 -2.3845 -1.3108 -0.2691
   41MOL   H12017000   2.472   3.053   4.566  0.4504  2.4583 -2.2149
   41MOL   H12117001   2.105   3.256   4.600  0.2882 -0.9621  1.1016
   41MOL   H12217002   1.845   3.219   4.531  0.7345  0.2606  3.1000
   41MOL   H12317003   1.777   3.016   4.432 -0.0284 -0.7451  3.8689
   41MOL   H12417004   1.922   2.847   4.374 -0.9912  0.1906  2.7339
   41MOL   H12517005   2.177   2.880   4.420  0.3334  0.0447  0.9127
   41MOL   H12617006   2.423   2.617   4.611 -1.4065  0.8433  0.0712
   41MOL   H12717007   2.480   2.750   4.723 -0.9904  0.8649 -0.7789
   41MOL   C12817008   2.643   2.646   4.664 -0.1392 -0.2222 -0.3709
   41MOL   O12917009   2.699   2.563   4.557  0.2958  0.0678  0.1595
   41MOL   C13017010   2.818   2.607   4.499 -0.4835  0.2492  0.5786
   41MOL   O13117011   2.920   2.577   4.586 -0.0682 -0.4913 -0.6138
   41MOL   C13217012   3.044   2.623   4.556  0.0964 -1.2970 -0.4809
   41MOL   C13317013   3.059   2.759   4.514 -0.3195 -0.1608  0.3444
   41MOL   C13417014   3.185   2.817   4.512  0.5438 -0.5399 -0.1175
   41MOL   C13517015   3.300   2.741   4.530  0.7259  0.2586 -0.0356
   41MOL   C13617016   3.281   2.606   4.570  0.1368  0.5715  0.8242
   41MOL   C13717017   3.158   2.547   4.589 -0.0456 -0.3937 -0.2123
   41MOL   C13817018   2.627   2.568   4.793 -0.5572 -0.1303 -0.4431
   41MOL   H13917019   2.711   2.731   4.672  1.0452 -1.0273 -1.6138
   41MOL   H14017020   2.807   2.713   4.476  1.4574  0.5778  1.1347
   41MOL   H14117021   2.834   2.570   4.397  0.1523  0.5809  0.5554
   41MOL   H14217022   2.976   2.825   4.493 -1.1699 -1.2139  0.3083
   41MOL   H14317023   3.197   2.923   4.494 -0.9121 -0.6586 -1.9682
   41MOL   H14417024   3.401   2.778   4.525  0.3657  1.0650 -1.3217
   41MOL   H14517025   3.362   2.542   4.599  1.5048  0.9723 -1.9391
   41MOL   H14617026   3.157   2.451   4.638  1.9293 -0.5425 -0.4360
   41MOL   H14717027   2.561   2.623   4.860 -1.5863  0.1002 -1.6343
   41MOL   H14817028   2.554   2.488   4.778  1.2382 -1.9812  0.5058
   41MOL   C14917029   2.765   2.531   4.861 -0.6762  0.3602  0.6764
   41MOL   O15017030   2.809   2.651   4.923 -0.3888  0.0515  0.3992
   41MOL   C15117031   2.948   2.671   4.939 -0.5617 -0.6351  0.0602
   41MOL   O15217032   2.994   2.605   5.053  0.6181  0.6705 -0.1383
   41MOL   C15317033   2.945   2.630   5.180 -0.2006  0.3345  0.2890
   41MOL   C15417034   2.993   2.547   5.283  0.6978 -0.0820 -0.7936
   41MOL   C15517035   2.953   2.571   5.414  0.3571  0.6295 -0.4297
   41MOL   C15617036   2.859   2.669   5.443 -0.1006  0.7874 -0.5696
   41MOL   C15717037   2.804   2.750   5.335 -0.3340  0.1984 -0.7750
   41MOL   C15817038   2.857   2.738   5.210 -0.2114  0.5615  0.3199
   41MOL   C15917039   2.753   2.410   4.963 -0.2810 -0.7435  0.2211
   41MOL   H16017040   2.834   2.497   4.783  0.0655 -2.2898  2.4177
   41MOL   H16117041   3.010   2.643   4.854  3.8143  0.4128  2.7283
   41MOL   H16217042   2.963   2.778   4.955 -1.8399 -0.4293 -0.0608
   41MOL   H16317043   3.052   2.459   5.259 -0.0347 -0.6028 -0.7264
   41MOL   H16417044   2.985   2.508   5.496 -1.1064  0.2683 -0.1282
   41MOL   H16517045   2.827   2.685   5.545  0.6891 -0.2144 -0.1540
   41MOL   H16617046   2.726   2.820   5.358  0.3630  0.8207 -0.2744
   41MOL   H16717047   2.800   2.788   5.132 -0.6450 -1.8222 -0.9608
   41MOL   H16817048   2.684   2.442   5.041  0.4066 -0.4915  0.7316
   41MOL   H16917049   2.847   2.401   5.018 -0.1326  1.3012  0.3432
   41MOL   C17017050   2.724   2.277   4.889  0.2309  0.3672 -0.1252
   41MOL   O17117051   2.835   2.260   4.808 -0.1671 -0.0661  0.0136
   41MOL   C17217052   2.796   2.220   4.675 -0.1791 -0.3106 -0.2019
   41MOL   O17317053   2.782   2.084   4.670  0.2484  0.2574 -0.0069
   41MOL   C17417054   2.794   2.010   4.547 -0.7297 -0.9952  0.0487
   41MOL   C17517055   2.835   2.067   4.422  0.0522 -0.3232 -0.5535
   41MOL   C17617056   2.850   1.985   4.313 -0.2937 -0.1058 -0.3491
   41MOL   C17717057   2.841   1.845   4.320 -0.6552  0.2715  0.1476
   41MOL   C17817058   2.813   1.785   4.451  0.5495 -0.2519 -0.0732
   41MOL   C17917059   2.787   1.872   4.561 -0.1114  0.2066 -1.1496
   41MOL   C18017060   2.716   2.155   4.987  0.4549  0.9582  0.1223
   41MOL   H18117061   2.628   2.280   4.838  0.4127  0.7593 -0.4495
   41MOL   H18217062   2.880   2.240   4.607 -0.4708  0.2219 -0.4094
   41MOL   H18317063   2.706   2.267   4.634 -1.0342 -1.6603  0.0999
   41MOL   H18417064   2.842   2.174   4.405 -0.3517  0.2677  2.6039
   41MOL   H18517065   2.860   2.033   4.216 -0.6870  1.6274  0.4523
   41MOL   H18617066   2.867   1.783   4.235 -1.0453 -1.5747  1.3656
   41MOL   H18717067   2.808   1.679   4.473  2.2500 -0.0030  1.7195
   41MOL   H18817068   2.768   1.835   4.661  0.7914  1.6482 -0.4164
   41MOL   H18917069   2.716   2.065   4.926  0.7527  1.7909 -1.1221
   41MOL   H19017070   2.802   2.170   5.053  1.4172 -0.0865 -0.8850
   41MOL   C19117071   2.596   2.150   5.088  0.4075 -0.2322 -0.3967
   41MOL   O19217072   2.614   2.049   5.183  0.0864  0.1607 -0.2030
   41MOL   C19317073   2.663   2.086   5.310  0.4692  0.0964  0.4307
   41MOL   O19417074   2.782   2.163   5.301 -0.0182 -0.3112  0.1258
   41MOL   C19517075   2.822   2.211   5.421  0.3558  0.3294 -0.0640
   41MOL   C19617076   2.938   2.160   5.483 -0.4387  0.1757 -0.7221
   41MOL   C19717077   2.981   2.205   5.610  0.2114  0.2870  0.1059
   41MOL   C19817078   2.906   2.307   5.665 -0.9776 -0.2793 -0.2246
   41MOL   C19917079   2.782   2.351   5.614  0.2699 -0.2531 -0.1857
   41MOL   C20017080   2.742   2.305   5.485  0.0441  0.1192  0.5538
   41MOL   C20117081   2.461   2.132   5.024  0.1962 -0.0779  0.4825
   41MOL   H20217082   2.588   2.241   5.147  1.2324  0.6352 -1.6043
   41MOL   H20317083   2.692   1.991   5.357 -0.0477 -0.2773 -0.0011
   41MOL   H20417084   2.586   2.139   5.366  0.9191  1.5995 -0.3484
   41MOL   H20517085   3.008   2.088   5.443 -0.0948 -0.0844  0.3303
   41MOL   H20617086   3.070   2.166   5.656 -0.6826 -1.0474  0.7359
   41MOL   H20717087   2.931   2.331   5.767 -1.5274  0.3479 -0.2317
   41MOL   H20817088   2.729   2.428   5.668 -0.2592 -1.4380  1.0225
   41MOL   H20917089   2.650   2.339   5.439  0.6450 -0.1331 -0.8523
   41MOL   H21017090   2.447   2.201   4.940  2.1044 -0.6495 -0.3355
   41MOL   H21117091   2.470   2.031   4.983 -0.5625  0.1436 -0.2394
   41MOL   C21217092   2.342   2.157   5.119  0.2324  0.2633 -0.2634
   41MOL   O21317093   2.225   2.181   5.049 -0.5351  0.3583 -0.0187
   41MOL   C21417094   2.219   2.297   4.974 -0.6564  0.1624  0.5020
   41MOL   O21517095   2.249   2.271   4.840  0.0826 -0.6365 -0.4871
   41MOL   C21617096   2.210   2.371   4.747 -0.3811  0.9146 -0.3269
   41MOL   C21717097   2.239   2.334   4.613 -0.2527 -0.3740  0.3194
   41MOL   C21817098   2.234   2.431   4.509 -0.2248 -0.5020 -0.9240
   41MOL   C21917099   2.193   2.563   4.537  0.9922  0.0282  0.2806
   41MOL   C22017100   2.154   2.605   4.666 -0.4491  0.1380  0.2573
   41MOL   C22117101   2.172   2.507   4.775 -0.3027  0.0513  0.0044
   41MOL   C22217102   2.320   2.043   5.217 -0.4668  1.1334 -0.4648
   41MOL   H22317103   2.361   2.247   5.178  0.5216 -0.7206  1.1711
   41MOL   H22417104   2.296   2.362   5.016  3.1424 -1.9367 -2.8248
   41MOL   H22517105   2.121   2.343   4.974 -0.0606  1.7129 -4.7582
   41MOL   H22617106   2.269   2.231   4.603  2.6623  0.3177  1.5510
   41MOL   H22717107   2.258   2.400   4.409 -1.4145  1.0247 -1.6999
   41MOL   H22817108   2.191   2.630   4.452 -0.8394 -1.9563 -1.2790
   41MOL   H22917109   2.127   2.709   4.674  1.9361  0.5717  3.2690
   41MOL   H23017110   2.144   2.529   4.877 -0.6484 -2.1389  0.4127
   41MOL   H23117111   2.328   1.950   5.160  0.6061  1.0276 -0.1478
   41MOL   H23217112   2.398   2.046   5.293  0.2963  3.0733 -1.2830
   41MOL   C23317113   2.195   2.036   5.296  0.2589  0.5791  0.0942
   41MOL   O23417114   2.206   1.933   5.398  0.6634 -0.1898 -0.2939
   41MOL   C23517115   2.187   1.797   5.367  0.3135  0.1876 -0.2774
   41MOL   O23617116   2.053   1.773   5.350  0.3956 -0.3973 -0.1916
   41MOL   C23717117   2.002   1.648   5.374  0.1042 -0.4579 -0.6583
   41MOL   C23817118   1.868   1.624   5.406  0.7712  0.9329  0.4233
   41MOL   C23917119   1.818   1.498   5.451  0.1904 -0.4947  0.4506
   41MOL   C24017120   1.905   1.391   5.442  0.3454 -0.0668 -0.0305
   41MOL   C24117121   2.040   1.409   5.404 -0.0837 -0.6689 -0.4690
   41MOL   C24217122   2.086   1.537   5.368 -0.1061  0.4227  0.2487
   41MOL   C24317123   2.155   2.172   5.357 -0.8928  0.8368  0.2169
   41MOL   H24417124   2.110   2.025   5.229 -1.8522  1.8547  2.4546
   41MOL   H24517125   2.232   1.733   5.442  0.1780  0.2386 -0.1510
   41MOL   H24617126   2.237   1.761   5.278  0.1549 -0.7616  0.0104
   41MOL   H24717127   1.798   1.705   5.398  1.0329  1.2098  0.9259
   41MOL   H24817128   1.716   1.481   5.479  0.2833  0.8843  1.7038
   41MOL   H24917129   1.866   1.292   5.457  0.4221 -0.0228  0.4689
   41MOL   H25017130   2.102   1.323   5.386 -0.3810 -1.0345  0.2322
   41MOL   H25117131   2.189   1.547   5.335  0.5113 -3.2436  0.8020
   41MOL   H25217132   2.237   2.185   5.427  0.6559  1.0481 -1.5866
   41MOL   H25317133   2.166   2.259   5.291  1.0132  0.7693  0.4319
   41MOL   C25417134   2.015   2.167   5.417 -0.9766  0.4971 -0.0803
   41MOL   O25517135   2.025   2.127   5.554  0.7457 -0.3279 -0.0466
   41MOL   C25617136   1.946   2.015   5.586 -0.0581 -0.3385  0.2050
   41MOL   O25717137   1.812   2.050   5.570  0.5306  0.3028 -0.2518
   41MOL   C25817138   1.713   1.983   5.624 -0.1382  0.2020 -0.3758
   41MOL   C25917139   1.596   2.055   5.644  0.1737 -0.0826  0.3035
   41MOL   C26017140   1.482   1.996   5.708 -0.0263  0.1115 -0.3234
   41MOL   C26117141   1.489   1.857   5.740 -0.0034  0.9797  0.6612
   41MOL   C26217142   1.606   1.787   5.712 -0.7066  0.4769 -0.0855
   41MOL   C26317143   1.716   1.847   5.658  0.0040  0.2322  1.4032
   41MOL   C26417144   1.937   2.304   5.425  0.1286  0.7479  0.8008
   41MOL   H26517145   1.954   2.090   5.370 -0.3344 -0.3571  0.4788
   41MOL   H26617146   1.949   2.006   5.695 -0.5159 -0.0253  0.2466
   41MOL   H26717147   1.972   1.922   5.537 -0.8256 -0.4099 -0.0693
   41MOL   H26817148   1.586   2.157   5.610  0.1027  0.0783  0.7970
   41MOL   H26917149   1.385   2.042   5.718 -0.9871 -1.8954 -0.1835
   41MOL   H27017150   1.395   1.807   5.759  0.1985  1.0842  1.9690
   41MOL   H27117151   1.605   1.682   5.738 -0.1397  0.7712  1.1414
   41MOL   H27217152   1.805   1.786   5.648 -0.1550  0.3111 -0.7680
   41MOL   H27317153   1.849   2.291   5.487 -1.3910  0.4597 -1.3614
   41MOL   H27417154   1.991   2.377   5.484 -0.5096  2.7851 -1.0553
   41MOL   C27517155   1.886   2.364   5.295  0.2500  0.2375 -0.9120
   41MOL   O27617156   2.000   2.425   5.230  0.4791 -0.2500  0.5543
   41MOL   C27717157   2.006   2.570   5.222  0.8756  0.2475  0.0118
   41MOL   O27817158   2.110   2.606   5.135  0.3759  0.8966  0.1999
   41MOL   C27917159   2.237   2.583   5.179 -0.2744 -0.0884 -0.4836
   41MOL   C28017160   2.275   2.528   5.305 -0.0907 -0.2666  0.2544
   41MOL   C28117161   2.410   2.529   5.344  0.4597  0.7970 -0.4926
   41MOL   C28217162   2.507   2.572   5.254 -0.4774  0.5050 -0.2489
   41MOL   C28317163   2.474   2.618   5.126 -0.7162  0.1817  0.7323
   41MOL   C28417164   2.340   2.629   5.095  0.2999  0.0981  0.4724
   41MOL   C28517165   1.793   2.272   5.214 -0.2468  0.1093  0.1251
   41MOL   H28617166   1.816   2.443   5.324 -1.1231 -0.5640 -1.9738
   41MOL   H28717167   1.997   2.628   5.313 -0.1513 -2.1903  1.5322
   41MOL   H28817168   1.919   2.594   5.161  1.0984 -0.7841 -0.7370
   41MOL   H28917169   2.195   2.496   5.371 -0.3734  0.5674  0.3166
   41MOL   H29017170   2.438   2.496   5.443 -1.3963  0.8822  0.0682
   41MOL   H29117171   2.612   2.556   5.274 -1.3118 -2.6551  1.8495
   41MOL   H29217172   2.558   2.647   5.064  1.9397 -2.9204  2.7520
   41MOL   H29317173   2.311   2.675   5.002 -0.4095  0.9343  1.1086
   41MOL   H29417174   1.714   2.242   5.282  0.0295 -0.7731  0.0655
   41MOL   H29517175   1.861   2.188   5.198 -1.6505 -1.0863  0.3239
   41MOL   C29617176   1.742   2.331   5.082 -0.5850 -0.1293 -0.0093
   41MOL   O29717177   1.671   2.226   5.009  0.0204  0.0228  0.6528
   41MOL   C29817178   1.711   2.188   4.884 -0.0261 -0.1011 -0.0041
   41MOL   O29917179   1.635   2.254   4.781 -0.5033 -0.1512 -0.1155
   41MOL   C30017180   1.500   2.243   4.776 -0.0012  0.0674  0.2865
   41MOL   C30117181   1.436   2.348   4.713  0.2057 -0.3824 -0.8409
   41MOL   C30217182   1.293   2.345   4.716  0.2788 -0.5666  0.2368
   41MOL   C30317183   1.220   2.251   4.787 -1.2127  0.4812 -0.3219
   41MOL   C30417184   1.287   2.129   4.814  0.1812  1.1890 -0.3113
   41MOL   C30517185   1.429   2.124   4.821 -0.6720 -0.7595 -0.0278
   41MOL   C30617186   1.640   2.444   5.118  0.3783 -0.5698 -0.2191
   41MOL   H30717187   1.822   2.383   5.029 -0.2642  0.5549  1.1150
   41MOL   H30817188   1.694   2.081   4.878  0.9021 -0.1476 -3.1594
   41MOL   H30917189   1.811   2.222   4.858  0.1334  1.0004  2.0068
   41MOL   H31017190   1.493   2.422   4.659  0.1945  1.8073  2.0411
   41MOL   H31117191   1.243   2.425   4.664 -0.1301 -0.2629  1.0801
   41MOL   H31217192   1.115   2.266   4.809 -1.2453 -0.4481  0.1745
   41MOL   H31317193   1.219   2.059   4.862 -0.8766  2.0064 -0.5937
   41MOL   H31417194   1.487   2.043   4.863 -1.2890 -2.2582 -1.9540
   41MOL   H31517195   1.661   2.508   5.204 -1.5026  1.1506 -1.0125
   41MOL   H31617196   1.546   2.395   5.142  0.8635 -2.4404 -2.0262
   41MOL   C31717197   1.611   2.557   5.005  0.3384 -0.1834 -0.6209
   41MOL   O31817198   1.738   2.612   4.990 -0.7710 -0.2139  0.2528
   41MOL   C31917199   1.777   2.612   4.856  0.1979  0.0275  0.0410
   41MOL   O32017200   1.691   2.694   4.788  0.5072  0.0722  0.0207
   41MOL   C32117201   1.700   2.702   4.650 -0.3671  1.0266  0.9736
   41MOL   C32217202   1.790   2.620   4.574 -0.0845  0.1288  0.0440
   41MOL   C32317203   1.782   2.610   4.434  0.0460  0.2781  0.5910
   41MOL   C32417204   1.697   2.699   4.364 -1.0307 -0.2612 -0.7336
   41MOL   C32517205   1.626   2.799   4.438 -0.1887 -0.3309  0.1439
   41MOL   C32617206   1.622   2.791   4.577 -0.1389  0.1750 -0.7661
   41MOL   C32717207   1.516   2.674   5.050 -0.0424 -0.2100 -0.5963
   41MOL   H32817208   1.580   2.498   4.919 -0.7522  1.0338 -1.0698
   41MOL   H32917209   1.798   2.512   4.816 -1.0403  0.0295 -0.6216
   41MOL   H33017210   1.867   2.673   4.866 -0.1294  0.1424  2.5848
   41MOL   H33117211   1.853   2.547   4.622 -0.9814 -0.1762  0.7761
   41MOL   H33217212   1.837   2.540   4.373 -3.6000 -3.3336  1.2547
   41MOL   H33317213   1.688   2.692   4.256  3.4355 -0.7360 -1.1444
   41MOL   H33417214   1.556   2.862   4.384  0.4402 -0.4590 -0.8364
   41MOL   H33517215   1.551   2.845   4.638  0.9904 -1.3720  2.0379
   41MOL   H33617216   1.571   2.728   5.127 -2.0892 -0.5253  1.1650
   41MOL   H33717217   1.512   2.753   4.976  0.0524  0.4168  0.0610
   41MOL   C33817218   1.370   2.643   5.088 -0.0726  0.7650 -0.4289
   41MOL   O33917219   1.339   2.728   5.202  0.2067 -0.2692  0.1045
   41MOL   C34017220   1.340   2.668   5.329  0.0268  0.3917  0.0904
   41MOL   O34117221   1.473   2.649   5.368 -0.3666  1.0543  0.1071
   41MOL   C34217222   1.499   2.576   5.484 -0.0720 -0.0482  0.1537
   41MOL   C34317223   1.395   2.544   5.572 -0.3562 -0.1693 -0.3178
   41MOL   C34417224   1.429   2.483   5.697 -0.4667 -0.1157 -0.7278
   41MOL   C34517225   1.557   2.457   5.741 -0.5837  0.0540  0.3013
   41MOL   C34617226   1.654   2.483   5.646  0.2507  0.1304 -0.4275
   41MOL   C34717227   1.630   2.557   5.524  0.1876  0.2231  0.1110
   41MOL   C34817228   1.271   2.668   4.974  0.1257  0.3998  0.3368
   41MOL   H34917229   1.364   2.539   5.121  2.4620  0.4445 -0.8733
   41MOL   H35017230   1.281   2.576   5.322  0.5300  0.0404  0.4568
   41MOL   H35117231   1.299   2.746   5.393  1.7593 -0.1662  1.9306
   41MOL   H35217232   1.292   2.568   5.550 -0.8382 -1.7650  0.1470
   41MOL   H35317233   1.346   2.444   5.755 -0.3966  0.4171 -0.2738
   41MOL   H35417234   1.590   2.397   5.824  1.7499  2.7846  1.4184
   41MOL   H35517235   1.757   2.453   5.661 -0.7030 -2.1840  1.8774
   41MOL   H35617236   1.713   2.589   5.462 -0.2105 -2.2127 -1.7322
   41MOL   H35717237   1.317   2.633   4.882 -0.4887 -1.2063  0.6231
   41MOL   H35817238   1.266   2.777   4.977 -2.2032  0.3594 -0.8280
   41MOL   C35917239   1.128   2.606   4.983  0.4053  0.0001  0.1411
   41MOL   O36017240   1.148   2.469   5.010 -0.0542  0.3898  0.3501
   41MOL   C36117241   1.056   2.404   5.092 -0.1779 -0.8053  0.0564
   41MOL   O36217242   1.081   2.406   5.232  1.1298 -0.0644 -0.5278
   41MOL   C36317243   1.186   2.320   5.264  0.3921 -0.5103  0.8549
   41MOL   C36417244   1.214   2.318   5.398  0.1504 -0.1426 -0.6351
   41MOL   C36517245   1.333   2.257   5.445 -0.0753  0.0103 -0.1060
   41MOL   C36617246   1.414   2.180   5.362 -0.9749  0.1666  0.4951
   41MOL   C36717247   1.374   2.170   5.228  1.2018  0.2699  0.0598
   41MOL   C36817248   1.264   2.244   5.174 -0.5238 -0.2459 -0.3802
   41MOL   C36917249   1.050   2.632   4.850 -1.0030  0.1722 -0.4052
   41MOL   H37017250   1.075   2.645   5.069 -2.3266 -0.4978 -1.2730
   41MOL   H37117251   1.034   2.301   5.065  1.2126 -1.4337  1.2773
   41MOL   H37217252   0.963   2.462   5.089  1.0734  1.2376 -0.7507
   41MOL   H37317253   1.152   2.372   5.468  0.6705  0.3431 -0.5450
   41MOL   H37417254   1.348   2.243   5.551  1.2504  1.3486 -0.0946
   41MOL   H37517255   1.496   2.120   5.397 -1.0289 -0.7749 -0.9964
   41MOL   H37617256   1.440   2.107   5.171 -0.7544 -1.4999 -0.3360
   41MOL   H37717257   1.248   2.245   5.068 -0.0273 -0.7080 -0.4622
   41MOL   H37817258   1.101   2.598   4.760 -1.0317  1.1371 -0.7860
   41MOL   H37917259   1.040   2.739   4.833 -1.5844  0.1226 -0.3783
   41MOL   C38017260   0.909   2.572   4.844  0.1224 -0.0113 -0.4555
   41MOL   O38117261   0.881   2.549   4.704  0.7693  0.7234  0.2643
   41MOL   C38217262   0.929   2.432   4.638  0.1982 -0.6111  0.1109
   41MOL   O38317263   0.844   2.319   4.652  0.3913 -0.0333  0.1126
   41MOL   C38417264   0.745   2.305   4.556  0.1419  0.4429 -0.2700
   41MOL   C38517265   0.704   2.389   4.449 -0.1940  0.0789 -0.9331
   41MOL   C38617266   0.591   2.359   4.362 -0.2563 -0.5704  0.0981
   41MOL   C38717267   0.516   2.242   4.389 -0.3127  0.0755 -1.2853
   41MOL   C38817268   0.555   2.157   4.497 -0.2854  0.4572  0.3282
   41MOL   C38917269   0.674   2.182   4.569 -0.1514  0.0317  0.3371
   41MOL   C39017270   0.806   2.664   4.917 -0.5555 -0.6758  0.2594
   41MOL   H39117271   0.915   2.472   4.887  0.1927 -0.4792 -1.5457
   41MOL   H39217272   0.953   2.450   4.533  0.3095  1.5504  0.4988
   41MOL   H39317273   1.023   2.411   4.689 -0.9413 -1.9605  1.6888
   41MOL   H39417274   0.744   2.488   4.432  0.1260  0.0438 -0.3923
   41MOL   H39517275   0.559   2.418   4.277  2.3792 -0.7024 -1.0069
   41MOL   H39617276   0.438   2.203   4.325  0.0464 -2.6429 -0.1499
   41MOL   H39717277   0.495   2.070   4.521  0.2106  0.1858  0.5983
   41MOL   H39817278   0.710   2.115   4.646  1.4538  1.1821  0.6073
   41MOL   H39917279   0.806   2.755   4.856 -2.0566  0.1914  1.5165
   41MOL   H40017280   0.829   2.699   5.017  3.5131 -0.7675 -0.5513
   41MOL   C40117281   0.667   2.592   4.919  0.3448 -0.3306 -0.4586
   41MOL   O40217282   0.693   2.460   4.973  0.4193  0.1043 -0.4477
   41MOL   C40317283   0.615   2.354   4.922  0.3771 -0.1444  0.7069
   41MOL   O40417284   0.479   2.382   4.927  0.4966  0.0937  0.1770
   41MOL   C40517285   0.392   2.309   4.851  0.9303  0.4141 -0.0798
   41MOL   C40617286   0.413   2.173   4.816 -0.1144 -0.0825 -0.1543
   41MOL   C40717287   0.318   2.099   4.741  0.2802 -0.3684 -0.5290
   41MOL   C40817288   0.208   2.171   4.691 -0.4618  0.3008  0.2917
   41MOL   C40917289   0.189   2.304   4.717 -0.3660  0.4469  0.2295
   41MOL   C41017290   0.274   2.375   4.804 -0.5204  0.3378 -0.7063
   41MOL   C41117291   0.566   2.673   5.004  0.4930 -0.1395  0.3758
   41MOL   H41217292   0.622   2.589   4.819 -0.0932  1.7267 -0.3434
   41MOL   H41317293   0.644   2.273   4.990  0.2526 -0.8885 -0.1214
   41MOL   H41417294   0.652   2.333   4.822 -0.8306 -3.4960  0.9055
   41MOL   H41517295   0.500   2.127   4.862 -0.3059  0.8159  1.1443
   41MOL   H41617296   0.326   1.992   4.724 -1.2192 -0.1531 -2.9161
   41MOL   H41717297   0.144   2.133   4.613  0.6293 -1.4994  0.2504
   41MOL   H41817298   0.108   2.354   4.666 -1.8264 -1.8214  0.2566
   41MOL   H41917299   0.258   2.480   4.827  0.0335  0.2551  0.0614
   41MOL   H42017300   0.587   2.707   5.105 -0.9671  1.9650 -0.0068
   41MOL   H42117301   0.478   2.613   5.026 -1.0058  1.8290 -0.1203
   41MOL   H42217302   0.519   2.753   4.946  1.2222 -0.0738 -0.1339
   42MOL     C117303   7.918   6.948   5.645  0.3190 -0.3290 -0.8178
   42MOL     O217304   7.814   7.039   5.681  0.4697  0.4998 -0.4573
   42MOL     C317305   7.762   6.994   5.799  0.0362 -0.5848 -0.5118
   42MOL     O417306   7.853   7.011   5.907 -0.1310 -0.2603 -0.4718
   42MOL     C517307   7.805   6.980   6.031 -0.2844 -0.1320  0.4682
   42MOL     C617308   7.882   7.018   6.141  0.2333  0.2449  0.0317
   42MOL     C717309   7.833   7.010   6.267 -0.5025  0.1697 -0.6573
   42MOL     C817310   7.713   6.945   6.295 -0.3515  0.1507  0.0320
   42MOL     C917311   7.632   6.908   6.189 -0.7699 -0.1622  0.0563
   42MOL    C1017312   7.676   6.924   6.055 -0.1748  0.5141 -0.2480
   42MOL    C1117313   7.939   6.953   5.493 -0.1826 -0.0665  0.3260
   42MOL    H1217314   0.036   6.987   5.687 -0.1607  0.7866 -0.7722
   42MOL    H1317315   7.676   7.058   5.820  1.5241  0.2577  3.3482
   42MOL    H1417316   7.734   6.889   5.793 -1.3547 -0.4060  2.0974
   42MOL    H1517317   7.975   7.069   6.122 -0.6234  0.9874 -2.3361
   42MOL    H1617318   7.899   7.032   6.350 -2.8715  0.7528  1.1407
   42MOL    H1717319   7.685   6.935   6.399 -0.2217 -1.0980 -0.0359
   42MOL    H1817320   7.533   6.868   6.209 -0.4799  0.2218  2.4132
   42MOL    H1917321   7.604   6.890   5.981 -0.2471  0.6304 -0.2316
   42MOL    H2017322   7.945   7.060   5.471 -0.3162 -0.1468 -0.1149
   42MOL    H2117323   7.853   6.905   5.446 -1.0712  0.3311  1.5213
   42MOL    H2217324   7.917   6.847   5.688 -0.3175  0.5523  1.2913
   42MOL    C2317325   0.092   6.889   5.435  0.3390  0.2442 -0.1925
   42MOL    O2417326   0.096   6.760   5.501 -0.2545  0.0409  0.0394
   42MOL    C2517327   0.157   6.652   5.431 -0.7894 -0.2444  0.2769
   42MOL    O2617328   0.092   6.629   5.309  0.1743 -0.2072  0.1672
   42MOL    C2717329   7.960   6.549   5.298 -0.4008  0.0336  0.8527
   42MOL    C2817330   7.887   6.505   5.405  0.4255 -0.4520  0.2880
   42MOL    C2917331   7.767   6.432   5.390  0.4931 -0.0519  0.4875
   42MOL    C3017332   7.732   6.393   5.263  0.6294  0.4496 -1.1146
   42MOL    C3117333   7.807   6.425   5.151 -0.3851  0.0894  0.0473
   42MOL    C3217334   7.916   6.513   5.169 -0.0460 -0.0452  0.6344
   42MOL    C3317335   0.216   6.982   5.464 -0.1670  0.5110 -0.0907
   42MOL    H3417336   0.083   6.878   5.327 -1.1676  1.0586 -0.1573
   42MOL    H3517337   0.161   6.561   5.490 -0.0202 -0.4643 -0.1000
   42MOL    H3617338   0.259   6.680   5.405 -1.8085  3.4667 -0.0583
   42MOL    H3717339   7.918   6.516   5.507 -0.7545 -0.4435  0.6453
   42MOL    H3817340   7.704   6.417   5.477 -0.5989 -0.9344 -0.4280
   42MOL    H3917341   7.645   6.330   5.250 -0.6407  1.7799  0.7134
   42MOL    H4017342   7.771   6.381   5.059 -2.0746 -0.9496  1.1762
   42MOL    H4117343   7.975   6.554   5.088  1.9219  1.8233  2.9676
   42MOL    H4217344   0.203   7.024   5.564 -3.2154  0.4185 -0.3837
   42MOL    H4317345   0.206   7.073   5.406 -2.2520  0.1484 -0.3405
   42MOL    C4417346   0.358   6.926   5.439 -0.0253 -0.2585 -0.1693
   42MOL    O4517347   0.440   7.025   5.506 -0.2851 -0.4335 -0.2284
   42MOL    C4617348   0.512   6.987   5.620  0.7336 -0.1454 -0.5728
   42MOL    O4717349   0.418   6.961   5.721  0.4952 -0.6895  0.0940
   42MOL    C4817350   0.409   7.054   5.826 -0.4668 -0.1625 -0.3484
   42MOL    C4917351   0.292   7.068   5.901  0.7644 -0.4323  0.6160
   42MOL    C5017352   0.284   7.139   6.023  0.6677  1.3349  0.2159
   42MOL    C5117353   0.402   7.187   6.084  0.3245  0.2738  0.9800
   42MOL    C5217354   0.522   7.177   6.012  0.4542 -0.3118  0.3457
   42MOL    C5317355   0.520   7.110   5.888  0.4362  0.3948  0.0648
   42MOL    C5417356   0.402   6.919   5.294  1.0338  0.7498  0.1146
   42MOL    H5517357   0.362   6.838   5.504 -0.0344 -0.5557 -0.5692
   42MOL    H5617358   0.574   7.075   5.634 -2.1374  1.9951 -0.9201
   42MOL    H5717359   0.575   6.898   5.611  1.8622  0.4275  1.4389
   42MOL    H5817360   0.206   7.030   5.848 -0.5521  1.8571  1.0838
   42MOL    H5917361   0.187   7.156   6.067 -0.0455 -0.2011 -0.7194
   42MOL    H6017362   0.399   7.236   6.180  1.6270  1.6755  0.3188
   42MOL    H6117363   0.612   7.230   6.041  1.6572 -0.8652 -2.2710
   42MOL    H6217364   0.619   7.106   5.845  0.6722  2.8825  0.2778
   42MOL    H6317365   0.322   6.867   5.240  1.1890  0.8475 -0.2059
   42MOL    H6417366   0.396   7.018   5.250  2.2225 -0.3276 -2.5734
   42MOL    C6517367   0.541   6.858   5.277 -0.2820 -0.7224 -0.3639
   42MOL    O6617368   0.528   6.724   5.314  0.7012  0.4439 -0.0813
   42MOL    C6717369   0.644   6.659   5.366  0.4496 -0.5701 -0.4612
   42MOL    O6817370   0.664   6.533   5.304 -0.1206 -0.2112 -0.0229
   42MOL    C6917371   0.550   6.452   5.283  0.5488 -0.4509 -0.4730
   42MOL    C7017372   0.452   6.443   5.381 -0.1998 -0.0939  0.5609
   42MOL    C7117373   0.347   6.351   5.366  0.1585  0.4880 -0.0842
   42MOL    C7217374   0.333   6.277   5.244 -0.0506  0.4596 -0.6161
   42MOL    C7317375   0.431   6.288   5.141 -0.9138  0.1080  0.0153
   42MOL    C7417376   0.544   6.373   5.166 -0.1142 -0.1227  0.2470
   42MOL    C7517377   0.595   6.854   5.133  0.3402 -0.3501 -0.2666
   42MOL    H7617378   0.603   6.906   5.353  0.4970  1.6130 -2.3989
   42MOL    H7717379   0.630   6.654   5.474 -2.8258 -0.7181 -0.8444
   42MOL    H7817380   0.733   6.721   5.354  0.9531 -1.0414  0.7474
   42MOL    H7917381   0.450   6.510   5.465 -0.8447 -1.6402  1.8036
   42MOL    H8017382   0.271   6.341   5.442 -1.0357 -1.9668 -1.5135
   42MOL    H8117383   0.243   6.221   5.222 -1.5562  1.5988  2.3606
   42MOL    H8217384   0.442   6.215   5.062 -0.0955 -0.2716  0.4734
   42MOL    H8317385   0.626   6.379   5.096 -1.9034  2.7815 -1.7376
   42MOL    H8417386   0.582   6.955   5.094  1.0572 -0.7228 -1.5030
   42MOL    H8517387   0.703   6.855   5.144  0.3864 -1.0906 -0.6146
   42MOL    C8617388   0.542   6.751   5.033  0.4335  0.0986  0.7480
   42MOL    O8717389   0.405   6.767   5.019 -0.3621  0.3440  0.4694
   42MOL    C8817390   0.321   6.656   5.031  0.0337  0.4103  0.2531
   42MOL    O8917391   0.190   6.692   5.038 -0.1300  0.0406 -0.0094
   42MOL    C9017392   0.124   6.733   4.927 -0.3408 -0.1766 -0.3539
   42MOL    C9117393   0.179   6.773   4.801 -0.8464 -0.0971  0.2504
   42MOL    C9217394   0.099   6.841   4.705  0.6219  0.3979 -0.0176
   42MOL    C9317395   7.942   6.862   4.731  0.2430 -0.3957 -0.7416
   42MOL    C9417396   7.887   6.820   4.852 -0.0016  0.1397  0.1760
   42MOL    C9517397   7.961   6.761   4.952 -0.7458  0.5715 -1.0383
   42MOL    C9617398   0.606   6.754   4.895 -0.5983 -0.4500  0.3274
   42MOL    H9717399   0.564   6.650   5.070 -3.7574 -1.4926 -0.7628
   42MOL    H9817400   0.338   6.612   5.129  0.3448 -1.2678 -0.5332
   42MOL    H9917401   0.347   6.579   4.959 -0.8569 -1.2518  1.6830
   42MOL   H10017402   0.285   6.776   4.779 -1.1973  1.3990 -1.4103
   42MOL   H10117403   0.148   6.878   4.616 -1.3564  0.6000 -1.0438
   42MOL   H10217404   7.882   6.919   4.662  0.1201  2.0703  1.3452
   42MOL   H10317405   7.785   6.848   4.878 -0.8841 -1.8603 -0.9964
   42MOL   H10417406   7.926   6.743   5.053  0.1888  0.7362 -0.6743
   42MOL   H10517407   0.567   6.677   4.829  2.1076 -2.6623  1.1946
   42MOL   H10617408   0.578   6.849   4.849 -0.2659  0.4027  1.8224
   42MOL   C10717409   0.758   6.734   4.893 -0.4786  0.1199  0.1260
   42MOL   O10817410   0.778   6.600   4.910 -0.1548 -0.2103  0.0318
   42MOL   C10917411   0.849   6.549   5.021 -0.9178 -0.8458  0.3890
   42MOL   O11017412   0.981   6.551   5.008  0.1248  0.5525  0.0377
   42MOL   C11117413   1.048   6.514   5.122  0.0808  0.5455  0.0496
   42MOL   C11217414   0.995   6.429   5.228  0.3661  0.1494  0.4456
   42MOL   C11317415   1.082   6.372   5.323 -0.2726 -0.4304  0.3466
   42MOL   C11417416   1.217   6.415   5.325 -0.4204  0.0603  0.0477
   42MOL   C11517417   1.269   6.502   5.229 -0.6424  0.1750 -0.1346
   42MOL   C11617418   1.186   6.550   5.125 -0.2671  0.3684  0.6357
   42MOL   C11717419   0.815   6.781   4.750 -0.3873  0.1193 -0.2330
   42MOL   H11817420   0.804   6.780   4.981  0.2428 -5.4674  2.9019
   42MOL   H11917421   0.823   6.443   5.018  1.0739 -1.3759  0.6531
   42MOL   H12017422   0.805   6.603   5.104 -2.5689 -0.3187 -0.8058
   42MOL   H12117423   0.893   6.394   5.237  0.6590 -0.8256  0.0901
   42MOL   H12217424   1.070   6.302   5.404 -1.7242  0.6789  1.1177
   42MOL   H12317425   1.292   6.378   5.394  0.4146 -0.8733 -1.3310
   42MOL   H12417426   1.371   6.537   5.226 -1.0726  1.8708  3.0151
   42MOL   H12517427   1.230   6.616   5.052 -1.7626  1.2359  0.4901
   42MOL   H12617428   0.773   6.879   4.727 -1.0529  0.5042  2.5091
   42MOL   H12717429   0.776   6.714   4.672  0.7152 -0.1105 -0.5893
   42MOL   C12817430   0.967   6.786   4.737  0.0440 -0.0513  0.6231
   42MOL   O12917431   1.011   6.910   4.795  0.1817  0.4916 -0.4132
   42MOL   C13017432   1.100   6.897   4.900  0.7207 -0.3753  0.0030
   42MOL   O13117433   1.048   6.827   5.007 -0.7391 -0.0535  0.4455
   42MOL   C13217434   0.982   6.898   5.104  0.0180 -0.5605 -0.3093
   42MOL   C13317435   0.907   7.011   5.082 -0.4328 -0.1223  0.0088
   42MOL   C13417436   0.852   7.090   5.185  0.5082 -0.4313  0.6816
   42MOL   C13517437   0.869   7.051   5.314 -0.0602 -0.0445 -0.0158
   42MOL   C13617438   0.951   6.936   5.346  0.1270 -0.3182 -0.5926
   42MOL   C13717439   1.004   6.859   5.237  0.4171  0.3059 -0.3996
   42MOL   C13817440   1.002   6.801   4.582  0.4512 -0.4470 -1.1275
   42MOL   H13917441   1.017   6.704   4.790  1.6384  0.4121 -0.1113
   42MOL   H14017442   1.133   6.997   4.927  0.4712 -0.5008  0.7801
   42MOL   H14117443   1.192   6.849   4.866  1.5436 -0.9159  2.8949
   42MOL   H14217444   0.877   7.042   4.983 -0.1460  0.9986  0.2569
   42MOL   H14317445   0.785   7.173   5.165  1.5278  0.3251  0.3214
   42MOL   H14417446   0.811   7.105   5.388 -0.9072  0.5708 -1.1160
   42MOL   H14517447   0.970   6.918   5.451 -4.3409  1.4725  0.6812
   42MOL   H14617448   1.071   6.779   5.262 -0.2002  0.0613  0.5086
   42MOL   H14717449   0.957   6.711   4.540 -0.1834  0.2416 -1.9312
   42MOL   H14817450   0.961   6.888   4.532 -1.4236  0.5059  1.9458
   42MOL   C14917451   1.154   6.798   4.557  0.0071 -0.5127 -1.0264
   42MOL   O15017452   1.168   6.734   4.427  0.5766 -0.2987 -0.1942
   42MOL   C15117453   1.180   6.594   4.431  0.3559 -0.0647  0.1979
   42MOL   O15217454   1.289   6.549   4.508  0.5125  0.0213 -0.7138
   42MOL   C15317455   1.411   6.533   4.454  0.4700 -0.0394 -0.8687
   42MOL   C15417456   1.502   6.452   4.530 -0.4995  0.5733 -0.4644
   42MOL   C15517457   1.624   6.424   4.466 -0.0833  0.0276 -0.3788
   42MOL   C15617458   1.669   6.496   4.354 -0.3897 -0.3658 -0.3267
   42MOL   C15717459   1.588   6.596   4.297 -0.3598  0.3026 -0.3556
   42MOL   C15817460   1.456   6.610   4.348  0.3848 -0.0003  0.6117
   42MOL   C15917461   1.228   6.933   4.549  0.3996  0.7348 -0.1700
   42MOL   H16017462   1.204   6.737   4.633 -0.2420 -0.4750 -0.8337
   42MOL   H16117463   1.090   6.557   4.480 -0.3034  1.4420  0.1511
   42MOL   H16217464   1.186   6.556   4.329  1.3096 -2.5582  1.1502
   42MOL   H16317465   1.462   6.398   4.615  1.9611 -0.6472 -0.0249
   42MOL   H16417466   1.691   6.349   4.507 -0.4522 -0.5484 -0.8319
   42MOL   H16517467   1.765   6.477   4.308 -0.6674  1.0726 -1.5492
   42MOL   H16617468   1.617   6.659   4.213  2.4100 -3.3059 -2.2341
   42MOL   H16717469   1.398   6.689   4.304  0.1360 -1.3529 -1.6213
   42MOL   H16817470   1.194   6.992   4.634 -1.8875  1.0881 -1.2983
   42MOL   H16917471   1.178   6.975   4.461 -1.8912  0.2517  0.8715
   42MOL   C17017472   1.379   6.933   4.533 -0.0486 -0.8548 -0.1053
   42MOL   O17117473   1.404   7.059   4.479 -0.2752 -0.2691  0.4016
   42MOL   C17217474   1.394   7.057   4.343  0.7969 -0.3768 -0.0080
   42MOL   O17317475   1.507   7.026   4.273  0.3195 -0.2813  0.0869
   42MOL   C17417476   1.594   7.120   4.226 -0.0261 -0.2065  0.4844
   42MOL   C17517477   1.704   7.072   4.146  0.2650 -0.6233 -0.2478
   42MOL   C17617478   1.792   7.166   4.088  0.3131  0.4575  0.0552
   42MOL   C17717479   1.776   7.308   4.105 -0.0879 -0.0657  0.1756
   42MOL   C17817480   1.679   7.348   4.201 -0.5004 -0.1315 -0.7219
   42MOL   C17917481   1.585   7.260   4.251 -0.6446  0.0268  0.2068
   42MOL   C18017482   1.448   6.919   4.667 -0.1086  0.0847  0.5725
   42MOL   H18117483   1.414   6.845   4.477 -1.6494 -1.5103 -0.0835
   42MOL   H18217484   1.337   7.144   4.309  0.3778 -0.1002  1.3884
   42MOL   H18317485   1.326   6.977   4.311 -0.8464  0.7183  0.6994
   42MOL   H18417486   1.712   6.966   4.127 -0.7599 -0.9517  1.0360
   42MOL   H18517487   1.874   7.129   4.027  0.5315  1.4833 -0.2912
   42MOL   H18617488   1.842   7.385   4.069 -1.2479  1.1503  0.6332
   42MOL   H18717489   1.674   7.453   4.223 -0.1537 -0.0979 -0.8034
   42MOL   H18817490   1.500   7.293   4.309 -1.6895  0.4024 -1.5118
   42MOL   H18917491   1.416   6.999   4.734 -1.4366  1.0207 -1.1456
   42MOL   H19017492   1.434   6.817   4.705  1.4120  0.4602  2.2061
   42MOL   C19117493   1.605   6.916   4.659 -0.7505  0.2252  0.1770
   42MOL   O19217494   1.657   6.839   4.769  0.3070  0.0383  0.2402
   42MOL   C19317495   1.706   6.713   4.736  0.9185 -0.3820  0.5463
   42MOL   O19417496   1.818   6.733   4.669 -0.9956  0.4411 -0.2724
   42MOL   C19517497   1.890   6.627   4.631 -0.0455 -0.5058 -0.7778
   42MOL   C19617498   1.866   6.493   4.679 -0.4125  0.8930  0.0435
   42MOL   C19717499   1.953   6.391   4.629  0.4737  0.2732 -0.0278
   42MOL   C19817500   2.052   6.417   4.533  0.0305 -0.1467  0.0188
   42MOL   C19917501   2.075   6.544   4.493  0.6192 -0.2577 -0.0486
   42MOL   C20017502   1.993   6.650   4.543  0.2263  0.1697  0.7957
   42MOL   C20117503   1.663   7.054   4.670  0.1162 -0.1100  0.2969
   42MOL   H20217504   1.644   6.888   4.561 -0.9252 -1.1004  0.4768
   42MOL   H20317505   1.640   6.650   4.677 -0.6563  0.3689  1.4597
   42MOL   H20417506   1.714   6.660   4.831 -0.4367 -1.1538  0.2449
   42MOL   H20517507   1.785   6.468   4.745  0.3846 -1.1592  0.2851
   42MOL   H20617508   1.943   6.287   4.657 -0.9832  0.2646 -0.5407
   42MOL   H20717509   2.113   6.333   4.503  0.1930  0.5480 -1.6058
   42MOL   H20817510   2.145   6.562   4.413 -0.8014  1.7103 -0.8975
   42MOL   H20917511   2.003   6.750   4.504  0.8093  0.2627  1.1682
   42MOL   H21017512   1.632   7.121   4.590 -0.4200  1.9760  2.2159
   42MOL   H21117513   1.635   7.105   4.762  2.1457 -2.1407  2.1065
   42MOL   C21217514   1.819   7.065   4.662 -0.3197 -0.3065  0.2887
   42MOL   O21317515   1.850   7.189   4.599  0.0672  0.4797  0.6344
   42MOL   C21417516   1.889   7.191   4.461 -0.2081  0.1016  0.4837
   42MOL   O21517517   2.022   7.147   4.441 -0.0469 -0.5385  1.2478
   42MOL   C21617518   2.128   7.227   4.484 -0.4968  0.0145  0.3832
   42MOL   C21717519   2.257   7.171   4.461  0.2044 -0.2985 -0.4441
   42MOL   C21817520   2.370   7.244   4.506 -0.1655 -0.0851 -0.5405
   42MOL   C21917521   2.351   7.371   4.570  0.1101  0.2394  0.4397
   42MOL   C22017522   2.224   7.421   4.592  0.4157 -0.3262  0.8966
   42MOL   C22117523   2.113   7.351   4.548 -0.3784 -0.3597 -0.2369
   42MOL   C22217524   1.880   7.085   4.802  1.0249 -0.3846  0.0705
   42MOL   H22317525   1.858   6.979   4.608 -4.4129 -2.2947  0.2964
   42MOL   H22417526   1.870   7.294   4.431 -1.1333 -0.0210  0.6156
   42MOL   H22517527   1.826   7.133   4.392 -0.9420 -1.0667  2.1094
   42MOL   H22617528   2.271   7.083   4.399  3.0223  0.4911 -0.9933
   42MOL   H22717529   2.467   7.198   4.492 -1.2313 -2.2683 -0.8864
   42MOL   H22817530   2.443   7.421   4.596  0.7978 -0.5877 -0.3737
   42MOL   H22917531   2.208   7.515   4.643  1.9870  0.5259 -0.1263
   42MOL   H23017532   2.020   7.399   4.574  0.1492  0.8019 -0.4347
   42MOL   H23117533   1.854   7.178   4.854  2.3366  0.0876 -0.1083
   42MOL   H23217534   1.826   7.008   4.857  1.8134 -0.7759  0.2887
   42MOL   C23317535   2.030   7.068   4.806  0.2683  0.0238  0.0848
   42MOL   O23417536   2.070   7.125   4.936  0.0527  0.5736 -0.2246
   42MOL   C23517537   2.081   7.264   4.933  0.1604 -0.0772 -0.3997
   42MOL   O23617538   2.131   7.317   5.047  0.3918 -0.3158  0.0906
   42MOL   C23717539   2.264   7.304   5.084  0.2758 -0.4271 -0.6501
   42MOL   C23817540   2.365   7.250   4.997 -0.7218 -0.5137  0.3523
   42MOL   C23917541   2.497   7.227   5.040 -1.3307  0.5275  0.3625
   42MOL   C24017542   2.532   7.257   5.175  0.3301 -0.0113  0.0112
   42MOL   C24117543   2.432   7.304   5.264 -0.4578  0.5067  0.1033
   42MOL   C24217544   2.304   7.333   5.216 -0.3850  0.2840  0.5065
   42MOL   C24317545   2.064   6.922   4.807  0.1752 -0.8894 -0.2910
   42MOL   H24417546   2.075   7.121   4.722  0.5532 -1.3772 -0.6536
   42MOL   H24517547   1.987   7.320   4.928  1.1815  1.8381  1.1334
   42MOL   H24617548   2.132   7.304   4.846  0.2170 -1.9203 -1.2242
   42MOL   H24717549   2.340   7.217   4.897 -0.8676 -0.3884  0.3471
   42MOL   H24817550   2.568   7.184   4.971 -2.5088 -1.3752  0.2983
   42MOL   H24917551   2.627   7.226   5.216  0.1194  0.2763  0.7134
   42MOL   H25017552   2.466   7.320   5.366 -1.3036  0.7681  0.3534
   42MOL   H25117553   2.232   7.366   5.289 -0.0596  2.8516 -0.2606
   42MOL   H25217554   2.012   6.886   4.896 -0.6195 -2.8581 -1.5100
   42MOL   H25317555   2.036   6.870   4.715  0.7187 -0.4938 -0.6847
   42MOL   C25417556   2.217   6.893   4.816  0.6573  0.0481  0.1495
   42MOL   O25517557   2.234   6.751   4.838 -0.0861 -0.0546  0.0341
   42MOL   C25617558   2.179   6.680   4.950 -0.2939 -0.1145 -0.7015
   42MOL   O25717559   2.222   6.746   5.070 -0.0844  0.4025  0.1213
   42MOL   C25817560   2.357   6.756   5.095  0.6435  0.0817  0.1722
   42MOL   C25917561   2.389   6.857   5.188  0.9699  0.5751  0.5157
   42MOL   C26017562   2.521   6.878   5.230  0.2137 -0.1175  0.5008
   42MOL   C26117563   2.621   6.792   5.180  0.5954  0.2582  0.1942
   42MOL   C26217564   2.589   6.692   5.082 -0.2810  0.2499  0.3567
   42MOL   C26317565   2.457   6.669   5.035  0.1689  0.0809  0.4071
   42MOL   C26417566   2.292   6.931   4.688 -0.6415  0.1354  0.8472
   42MOL   H26517567   2.261   6.940   4.904  0.3599 -2.3600  1.6137
   42MOL   H26617568   2.212   6.577   4.939  1.6710  0.3372  0.7056
   42MOL   H26717569   2.070   6.680   4.956 -0.2948 -0.8236 -0.6761
   42MOL   H26817570   2.314   6.923   5.228 -0.5627  0.0241 -1.4026
   42MOL   H26917571   2.543   6.961   5.296  1.9879 -1.0230  1.0874
   42MOL   H27017572   2.725   6.811   5.203  1.7394 -2.3586 -2.4509
   42MOL   H27117573   2.674   6.638   5.042 -0.7401 -0.3640  0.2038
   42MOL   H27217574   2.435   6.591   4.963 -1.5554  0.1564  0.8354
   42MOL   H27317575   2.245   6.868   4.613  0.4732 -0.5635  0.7317
   42MOL   H27417576   2.276   7.038   4.675 -0.4078 -0.2390 -3.2734
   42MOL   C27517577   2.444   6.903   4.680  0.2588 -0.2312 -0.5495
   42MOL   O27617578   2.482   6.884   4.542  0.1049  0.4389  0.2189
   42MOL   C27717579   2.455   6.754   4.493  0.2272 -0.7040  0.8769
   42MOL   O27817580   2.526   6.656   4.547  0.1753 -0.5354  0.4019
   42MOL   C27917581   2.461   6.536   4.565 -0.5471 -0.7273 -0.5928
   42MOL   C28017582   2.425   6.464   4.454  0.4270  0.4808  0.4104
   42MOL   C28117583   2.394   6.334   4.475  1.2703  0.6580  0.5827
   42MOL   C28217584   2.363   6.282   4.600  0.2719 -0.1112  0.3445
   42MOL   C28317585   2.378   6.361   4.710 -0.4383  0.6613 -0.0179
   42MOL   C28417586   2.430   6.489   4.696  0.0219 -0.2607 -0.3876
   42MOL   C28517587   2.531   7.011   4.745  0.4607  0.0568  0.2364
   42MOL   H28617588   2.468   6.813   4.737  2.2439  1.3996  1.2776
   42MOL   H28717589   2.495   6.739   4.393 -2.6803  0.4127 -0.5225
   42MOL   H28817590   2.348   6.730   4.492  0.2336 -0.7668 -0.9699
   42MOL   H28917591   2.448   6.498   4.354 -0.8043  1.7014  0.5295
   42MOL   H29017592   2.388   6.270   4.388  0.4928 -0.5373  1.4970
   42MOL   H29117593   2.321   6.183   4.608 -1.4557  0.5269 -0.6760
   42MOL   H29217594   2.366   6.304   4.801  1.1436 -0.8241 -0.7001
   42MOL   H29317595   2.468   6.550   4.776  2.1416 -0.6983 -1.0315
   42MOL   H29417596   2.490   7.008   4.846  1.1486 -0.9959  0.4911
   42MOL   H29517597   2.495   7.111   4.721  3.6103  0.7804 -1.8388
   42MOL   C29617598   2.686   6.998   4.725  0.5345 -0.0167 -0.0832
   42MOL   O29717599   2.749   7.106   4.788  0.9053  0.2494 -0.4587
   42MOL   C29817600   2.728   7.236   4.733 -0.2425 -0.3098  0.5673
   42MOL   O29917601   2.738   7.246   4.590  0.2903  0.2252  0.3596
   42MOL   C30017602   2.860   7.222   4.526  0.0833  0.3760 -0.4909
   42MOL   C30117603   2.879   7.265   4.394  0.1172  0.7386  0.2983
   42MOL   C30217604   2.998   7.240   4.320 -0.0763 -0.9663  0.2646
   42MOL   C30317605   3.106   7.174   4.386 -0.4657  0.0794 -0.7493
   42MOL   C30417606   3.092   7.136   4.521 -1.3527 -0.5192 -0.2690
   42MOL   C30517607   2.974   7.161   4.594  0.1003 -0.2175 -0.3181
   42MOL   C30617608   2.737   6.865   4.791 -0.1590 -0.8005  0.7722
   42MOL   H30717609   2.704   7.000   4.618 -1.1718  0.6791 -0.3729
   42MOL   H30817610   2.807   7.296   4.779 -0.2642  1.2379 -1.3675
   42MOL   H30917611   2.635   7.284   4.766  0.2664 -1.3414  3.6959
   42MOL   H31017612   2.797   7.320   4.351 -0.0916 -1.2096 -1.8623
   42MOL   H31117613   2.999   7.262   4.215 -0.2377 -0.6924  0.3217
   42MOL   H31217614   3.195   7.150   4.331 -1.5511 -0.5050 -2.2782
   42MOL   H31317615   3.169   7.081   4.573 -1.4812  0.0056  0.4986
   42MOL   H31417616   2.976   7.128   4.697  1.7733 -0.7802 -0.5119
   42MOL   H31517617   2.672   6.788   4.749 -0.1944 -0.6898  0.6246
   42MOL   H31617618   2.694   6.862   4.891 -0.6469  1.5321  0.6552
   42MOL   C31717619   2.882   6.813   4.777  0.0170  0.7227  0.4782
   42MOL   O31817620   2.980   6.897   4.846 -0.0677 -0.5443 -0.2675
   42MOL   C31917621   2.946   6.926   4.981 -0.6081  0.4702  0.1122
   42MOL   O32017622   2.936   6.810   5.060 -0.4582  0.0475  0.0901
   42MOL   C32117623   3.059   6.748   5.090 -0.2700  1.2335  0.1581
   42MOL   C32217624   3.183   6.798   5.041  0.0640 -0.6795  0.1948
   42MOL   C32317625   3.299   6.723   5.070 -0.5716  0.4623  0.2096
   42MOL   C32417626   3.299   6.605   5.135 -0.3521  0.1930 -0.5858
   42MOL   C32517627   3.174   6.561   5.188 -0.7353 -0.1905 -0.4797
   42MOL   C32617628   3.054   6.637   5.176 -0.4469 -0.2938  0.5964
   42MOL   C32717629   2.904   6.775   4.629 -0.4342 -0.4897  0.2924
   42MOL   H32817630   2.884   6.723   4.838  2.4168 -0.4268 -1.2205
   42MOL   H32917631   2.849   6.975   4.988 -0.4528  0.6148  1.3287
   42MOL   H33017632   3.019   6.992   5.027 -0.5001  0.6969 -0.3847
   42MOL   H33117633   3.197   6.888   4.983  3.5302 -1.2332  0.1091
   42MOL   H33217634   3.394   6.759   5.033 -0.8052  1.6452  0.7423
   42MOL   H33317635   3.387   6.547   5.159 -0.9465 -1.3327 -2.0563
   42MOL   H33417636   3.172   6.466   5.239  1.1810 -0.4922 -0.9270
   42MOL   H33517637   2.966   6.599   5.226  0.3980 -2.0971  0.7651
   42MOL   H33617638   2.817   6.721   4.592  1.0128 -1.7696 -1.3123
   42MOL   H33717639   2.907   6.862   4.564  0.3514  0.3067  1.3649
   42MOL   C33817640   3.027   6.687   4.611  0.2914  0.3688 -0.1141
   42MOL   O33917641   3.027   6.608   4.492  0.9571 -0.4115  0.3033
   42MOL   C34017642   2.952   6.490   4.481 -0.0719 -0.9722  0.5109
   42MOL   O34117643   2.964   6.446   4.351 -0.2282  0.1193 -0.2356
   42MOL   C34217644   2.878   6.503   4.258 -0.2673  0.2109 -0.1436
   42MOL   C34317645   2.881   6.441   4.132 -0.5290 -0.2371  0.3035
   42MOL   C34417646   2.809   6.492   4.022  1.1593 -0.4277 -0.8481
   42MOL   C34517647   2.730   6.609   4.043  0.4931 -0.3398 -0.0221
   42MOL   C34617648   2.724   6.672   4.173 -0.1865 -0.0538  0.3841
   42MOL   C34717649   2.796   6.614   4.284  1.0961 -0.5750 -0.3512
   42MOL   C34817650   3.157   6.780   4.609  0.0962 -0.1488  0.9014
   42MOL   H34917651   3.025   6.608   4.686 -1.8537  1.9666  1.5815
   42MOL   H35017652   2.850   6.491   4.519  0.1085  0.5749  0.9993
   42MOL   H35117653   3.004   6.420   4.546  0.4569 -0.0198  1.1280
   42MOL   H35217654   2.950   6.360   4.112 -1.0914 -0.6170 -0.1293
   42MOL   H35317655   2.826   6.440   3.930  1.0672 -1.8638 -0.0727
   42MOL   H35417656   2.682   6.651   3.956 -1.6797  0.4928  1.5576
   42MOL   H35517657   2.671   6.763   4.193 -0.3402 -0.0519 -0.0295
   42MOL   H35617658   2.781   6.661   4.380  2.0842 -1.0579  0.0492
   42MOL   H35717659   3.136   6.874   4.661  0.1373  2.1354 -3.0048
   42MOL   H35817660   3.166   6.803   4.503 -1.0293  0.0307  0.8383
   42MOL   C35917661   3.283   6.725   4.684  0.6151  0.1829  0.1858
   42MOL   O36017662   3.378   6.832   4.703  0.1566  0.1754 -0.4098
   42MOL   C36117663   3.430   6.900   4.598  0.8166  0.5817 -0.4847
   42MOL   O36217664   3.569   6.887   4.587 -0.0877 -0.2397 -0.4734
   42MOL   C36317665   3.659   6.938   4.686 -0.7218  0.3121  0.0191
   42MOL   C36417666   3.793   6.957   4.648  0.2232 -0.1942 -0.1750
   42MOL   C36517667   3.888   7.008   4.741 -0.0444  0.6519  0.0124
   42MOL   C36617668   3.843   7.045   4.871 -0.2183  0.1827 -0.2723
   42MOL   C36717669   3.714   7.017   4.912  0.5694  0.3978  0.7027
   42MOL   C36817670   3.622   6.961   4.820 -0.1505  0.3511  0.4564
   42MOL   C36917671   3.352   6.604   4.614 -0.2317  0.5576 -0.1109
   42MOL   H37017672   3.241   6.695   4.780  1.0719  2.2646  1.0729
   42MOL   H37117673   3.404   7.005   4.613 -1.0475  0.1576 -0.6685
   42MOL   H37217674   3.385   6.869   4.504  1.9655 -0.6524 -0.6456
   42MOL   H37317675   3.828   6.925   4.551 -1.5875  0.1309 -0.9694
   42MOL   H37417676   3.987   7.023   4.701  1.2291 -0.5334  2.6060
   42MOL   H37517677   3.915   7.100   4.930 -0.2561 -0.7087  0.6297
   42MOL   H37617678   3.686   7.029   5.016 -0.8035 -0.2489  0.4146
   42MOL   H37717679   3.525   6.945   4.865 -0.2377  0.8245  0.4420
   42MOL   H37817680   3.397   6.634   4.520  1.0059  0.8405  0.5569
   42MOL   H37917681   3.280   6.526   4.586 -1.2069  0.3643  2.7478
   42MOL   C38017682   3.467   6.541   4.702 -0.3641  0.0947 -0.2843
   42MOL   O38117683   3.567   6.469   4.626  0.1580  0.3315 -0.2686
   42MOL   C38217684   3.656   6.547   4.553  0.1101 -0.3219  0.7590
   42MOL   O38317685   3.781   6.568   4.618  0.1696  0.1381  0.7296
   42MOL   C38417686   3.889   6.610   4.552  0.0772 -0.3873 -0.5746
   42MOL   C38517687   3.891   6.662   4.423 -1.5284 -0.3415 -0.7200
   42MOL   C38617688   4.009   6.708   4.368 -0.5358 -0.6528 -0.3072
   42MOL   C38717689   4.126   6.707   4.452  0.3303 -0.0708  0.7005
   42MOL   C38817690   4.126   6.657   4.583 -0.0885 -0.7093  0.0002
   42MOL   C38917691   4.006   6.599   4.629  0.0100  0.4659 -0.3673
   42MOL   C39017692   3.414   6.434   4.805 -0.5668  0.1009  0.1207
   42MOL   H39117693   3.507   6.624   4.759 -2.0735 -0.0456  1.1528
   42MOL   H39217694   3.670   6.478   4.470  0.8482 -0.9552  1.4084
   42MOL   H39317695   3.620   6.645   4.522  2.7550  0.7232  0.8605
   42MOL   H39417696   3.804   6.672   4.361 -0.8225 -1.5736 -1.9357
   42MOL   H39517697   4.009   6.747   4.268 -0.7870  0.5043  0.1411
   42MOL   H39617698   4.214   6.760   4.417 -0.0802  0.6279  0.7299
   42MOL   H39717699   4.216   6.656   4.643 -0.0556 -0.0493 -0.0385
   42MOL   H39817700   4.012   6.541   4.720  1.7619 -1.4487 -1.6455
   42MOL   H39917701   3.362   6.348   4.763 -1.0782  0.6738 -0.4249
   42MOL   H40017702   3.337   6.482   4.867 -0.5229 -0.3404  0.5222
   42MOL   C40117703   3.516   6.363   4.898 -0.9193  0.1774  0.6876
   42MOL   O40217704   3.559   6.465   4.990 -0.2626 -0.0978 -0.3652
   42MOL   C40317705   3.686   6.516   4.977  0.0301 -0.4221  0.0688
   42MOL   O40417706   3.779   6.432   5.025 -0.0836  0.1779 -0.5756
   42MOL   C40517707   3.903   6.487   5.031 -0.2403  0.3811  0.2525
   42MOL   C40617708   3.999   6.398   5.078  0.2900  0.3747 -0.0424
   42MOL   C40717709   4.136   6.430   5.087  0.1034  0.3700 -0.2944
   42MOL   C40817710   4.182   6.563   5.053  0.3018 -0.3733 -0.0539
   42MOL   C40917711   4.084   6.651   4.999  0.2703  0.0660 -0.1714
   42MOL   C41017712   3.948   6.619   4.996  0.4465  0.3275  0.2217
   42MOL   C41117713   3.468   6.247   4.987  0.1333  0.2195 -0.2730
   42MOL   H41217714   3.600   6.332   4.836 -1.9296  0.3252 -0.7913
   42MOL   H41317715   3.664   6.603   5.039 -1.0917 -0.1972 -0.6244
   42MOL   H41417716   3.701   6.537   4.871 -1.4402 -0.6821 -0.2049
   42MOL   H41517717   3.964   6.299   5.104 -1.5681  0.7009 -1.2553
   42MOL   H41617718   4.206   6.352   5.112 -2.5204 -1.5506  1.1823
   42MOL   H41717719   4.285   6.594   5.060  0.2228  0.0492 -0.7240
   42MOL   H41817720   4.115   6.751   4.974 -0.9086  0.9914  1.8969
   42MOL   H41917721   3.876   6.688   4.955 -1.1992 -0.8560  1.0746
   42MOL   H42017722   3.391   6.276   5.059 -0.1945 -2.1942  0.4010
   42MOL   H42117723   3.541   6.202   5.054 -0.1904  0.6723  0.3901
   42MOL   H42217724   3.425   6.171   4.923  0.3255  3.1912 -4.1641
   43MOL     C117725   3.939   1.505   4.047 -0.4297 -0.1127 -0.4126
   43MOL     O217726   3.846   1.432   3.974  0.1232  0.4422 -0.0682
   43MOL     C317727   3.865   1.294   3.965 -0.4386  0.7418 -0.2112
   43MOL     O417728   3.868   1.233   4.090 -0.0514  0.1410 -0.3255
   43MOL     C517729   3.757   1.203   4.163 -0.4381 -0.5956 -0.3703
   43MOL     C617730   3.776   1.152   4.295 -0.5197  0.1707 -0.3434
   43MOL     C717731   3.658   1.132   4.373 -0.5691  0.0952  0.2340
   43MOL     C817732   3.532   1.145   4.315  0.7041 -0.4722  0.9860
   43MOL     C917733   3.515   1.195   4.183 -0.0288  0.1296 -0.3266
   43MOL    C1017734   3.629   1.230   4.110  0.1582 -0.2621 -0.3526
   43MOL    C1117735   3.916   1.662   4.037  0.6882 -0.7547  0.7686
   43MOL    H1217736   3.924   1.479   4.152  0.3786  1.3282  0.0892
   43MOL    H1317737   3.794   1.251   3.894  0.3591 -0.2934 -0.3752
   43MOL    H1417738   3.964   1.286   3.921  0.3426  0.0180  1.6368
   43MOL    H1517739   3.876   1.137   4.334 -1.0981 -0.7344  0.8305
   43MOL    H1617740   3.678   1.098   4.474 -0.1711  2.3799  0.9502
   43MOL    H1717741   3.448   1.126   4.379  1.1353 -0.1889  1.6413
   43MOL    H1817742   3.417   1.221   4.144 -1.1501 -2.5173  0.6096
   43MOL    H1917743   3.599   1.271   4.015 -1.5506 -1.3774 -0.3079
   43MOL    H2017744   3.971   1.702   4.122 -0.5948  0.1126  1.2082
   43MOL    H2117745   3.809   1.678   4.046  0.9267  0.6702  1.1440
   43MOL    H2217746   4.043   1.476   4.030 -0.6655 -1.5987  0.6167
   43MOL    C2317747   3.951   1.713   3.900  0.2800  0.3327  0.4273
   43MOL    O2417748   4.087   1.699   3.875 -0.7225  0.3762 -0.4442
   43MOL    C2517749   4.132   1.629   3.762  0.1860  0.2400 -0.3200
   43MOL    O2617750   4.099   1.690   3.644  0.5831  0.0612  0.3357
   43MOL    C2717751   4.167   1.804   3.606  0.0484  0.2531 -0.0362
   43MOL    C2817752   4.134   1.852   3.477  0.2439 -0.1657  0.3873
   43MOL    C2917753   4.193   1.971   3.429  0.6249  0.1472  0.0093
   43MOL    C3017754   4.274   2.051   3.509 -0.3500 -0.2426  0.0173
   43MOL    C3117755   4.297   2.007   3.641 -0.5222 -0.2874  0.1901
   43MOL    C3217756   4.251   1.885   3.687  0.4491  0.1379 -0.3090
   43MOL    C3317757   3.914   1.865   3.880  1.1439  0.5665  0.4383
   43MOL    H3417758   3.900   1.652   3.826  2.0392 -1.0979  0.3702
   43MOL    H3517759   4.089   1.529   3.763 -0.3448  0.4618 -0.6165
   43MOL    H3617760   4.237   1.601   3.768  0.3440  1.0742  0.8464
   43MOL    H3717761   4.072   1.796   3.408  1.4406 -1.6417  0.4827
   43MOL    H3817762   4.172   2.015   3.332  1.6689 -0.5612 -0.5449
   43MOL    H3917763   4.301   2.148   3.469  0.1392 -0.5633 -0.4268
   43MOL    H4017764   4.369   2.062   3.699 -1.2414  0.1372  0.6770
   43MOL    H4117765   4.276   1.861   3.789  0.1477  4.2485  0.8112
   43MOL    H4217766   3.808   1.863   3.856  1.3756  1.2920 -0.6859
   43MOL    H4317767   3.960   1.891   3.785 -0.7627 -1.2540 -1.0360
   43MOL    C4417768   3.951   1.971   3.982  0.8048  0.0328  0.0262
   43MOL    O4517769   3.884   2.091   3.944 -0.1713 -0.0594 -0.2405
   43MOL    C4617770   3.751   2.125   3.981 -0.1274  0.5933 -1.3880
   43MOL    O4717771   3.651   2.058   3.905 -0.5865  0.3677 -0.2907
   43MOL    C4817772   3.520   2.078   3.944  0.1900 -0.8151 -0.4545
   43MOL    C4917773   3.477   2.111   4.071  0.1159  0.0522  0.7136
   43MOL    C5017774   3.337   2.119   4.096 -0.2839 -0.4980  0.8608
   43MOL    C5117775   3.241   2.104   3.993 -0.0172  0.3241  0.0949
   43MOL    C5217776   3.288   2.088   3.859  0.4197  0.5351  0.1169
   43MOL    C5317777   3.426   2.074   3.839  0.3014  0.3946 -0.0957
   43MOL    C5417778   4.101   1.990   4.001  0.3676 -0.4625 -0.5453
   43MOL    H5517779   3.903   1.932   4.072 -1.1840 -0.2958 -1.1387
   43MOL    H5617780   3.746   2.234   3.981  2.4163  0.7588  0.0855
   43MOL    H5717781   3.739   2.098   4.086  0.5984  0.4953 -1.3233
   43MOL    H5817782   3.541   2.131   4.156  1.4914  4.0507 -1.1324
   43MOL    H5917783   3.304   2.134   4.198 -0.6708 -1.6443  0.9205
   43MOL    H6017784   3.134   2.109   4.006 -0.1904 -0.7203 -0.8587
   43MOL    H6117785   3.220   2.093   3.776 -0.0137 -0.3699  0.4086
   43MOL    H6217786   3.458   2.051   3.739 -0.9873 -0.8875 -0.2261
   43MOL    H6317787   4.149   1.893   3.993  0.8302 -0.2822 -0.0016
   43MOL    H6417788   4.128   2.050   3.914  1.6455 -1.5661 -0.9238
   43MOL    C6517789   4.133   2.058   4.134  0.2769  0.4416 -0.2167
   43MOL    O6617790   4.079   1.979   4.236 -0.0700  0.3977  0.4479
   43MOL    C6717791   4.028   2.065   4.338  0.2691 -0.3666 -0.5606
   43MOL    O6817792   3.922   2.154   4.311  0.0182  0.7921  0.3520
   43MOL    C6917793   3.793   2.105   4.337 -0.6332  0.4782  0.0969
   43MOL    C7017794   3.706   2.209   4.373 -0.1597 -0.1085  0.5546
   43MOL    C7117795   3.577   2.181   4.412 -0.3276  0.4977  0.3266
   43MOL    C7217796   3.533   2.048   4.415 -0.4268 -0.2267 -0.0841
   43MOL    C7317797   3.622   1.939   4.378  0.3092  0.3626  0.3859
   43MOL    C7417798   3.752   1.967   4.335 -0.3949  0.7216 -1.2212
   43MOL    C7517799   4.286   2.042   4.157 -0.5382 -0.2853  0.0184
   43MOL    H7617800   4.103   2.163   4.132  0.6751  0.5810  0.9131
   43MOL    H7717801   4.112   2.121   4.380  0.1977  1.3853 -2.6344
   43MOL    H7817802   4.010   1.991   4.416  3.8123 -0.3656  0.3725
   43MOL    H7917803   3.730   2.314   4.374  1.5640 -0.4614 -0.8244
   43MOL    H8017804   3.515   2.262   4.446  0.2968  0.7909  0.7545
   43MOL    H8117805   3.430   2.026   4.440  0.2220 -2.2934  0.8568
   43MOL    H8217806   3.574   1.843   4.363  1.8516 -0.4644  0.6383
   43MOL    H8317807   3.818   1.885   4.309  1.1265  1.4871  0.1785
   43MOL    H8417808   4.305   2.067   4.262 -2.3967  0.9525  0.0786
   43MOL    H8517809   4.294   1.933   4.155  0.8274 -0.2177  1.1278
   43MOL    C8617810   4.387   2.114   4.068 -0.4822 -0.3541  0.1964
   43MOL    O8717811   4.359   2.253   4.084 -0.4215  0.4912  0.4100
   43MOL    C8817812   4.358   2.321   3.965  0.1662  0.4891  0.0474
   43MOL    O8917813   4.254   2.281   3.890 -0.4303  0.2271 -0.1782
   43MOL    C9017814   4.241   2.342   3.766  0.6651  0.3682  0.5009
   43MOL    C9117815   4.118   2.311   3.693  0.6086 -0.1663  0.4082
   43MOL    C9217816   4.096   2.364   3.564 -0.2647 -0.3993  0.8336
   43MOL    C9317817   4.193   2.445   3.504  0.5572 -0.3259 -0.1838
   43MOL    C9417818   4.314   2.474   3.575 -0.1813  0.1812  0.4538
   43MOL    C9517819   4.332   2.424   3.702  0.0008 -0.3532  0.0746
   43MOL    C9617820   4.537   2.081   4.075  0.3638  0.0092 -0.2805
   43MOL    H9717821   4.358   2.088   3.966 -1.3019  0.8737  0.1093
   43MOL    H9817822   4.454   2.306   3.916 -1.2038 -1.5065 -2.0813
   43MOL    H9917823   4.335   2.425   3.988  2.3585  0.7594  1.1812
   43MOL   H10017824   4.045   2.247   3.740  3.0816 -1.8703  2.0325
   43MOL   H10117825   4.008   2.340   3.506  0.3475  0.7283 -0.5860
   43MOL   H10217826   4.182   2.497   3.410  0.3379  0.5212  0.3014
   43MOL   H10317827   4.388   2.543   3.537  0.9049 -0.6823  0.9786
   43MOL   H10417828   4.427   2.440   3.750 -0.1820 -1.1485  0.7110
   43MOL   H10517829   4.604   2.126   4.001  1.2993  0.6515  0.9424
   43MOL   H10617830   4.576   2.135   4.162  0.7551  1.0362 -1.0689
   43MOL   C10717831   4.562   1.931   4.081  0.2683  0.8349  0.5550
   43MOL   O10817832   4.475   1.873   3.977  0.5380 -0.2061 -0.2874
   43MOL   C10917833   4.429   1.745   3.996 -0.3639  0.3584  0.1082
   43MOL   O11017834   4.519   1.646   3.947 -0.0137 -0.5741  0.1697
   43MOL   C11117835   4.474   1.517   3.935 -0.0096 -0.5094  0.4564
   43MOL   C11217836   4.343   1.476   3.973  0.0495 -0.2151  0.6382
   43MOL   C11317837   4.300   1.348   3.939  0.8634  0.3160  0.1047
   43MOL   C11417838   4.388   1.254   3.878  0.2784  0.3406 -0.4754
   43MOL   C11517839   4.522   1.291   3.855 -0.1993 -0.4932 -0.5262
   43MOL   C11617840   4.564   1.424   3.877  0.2552 -0.2244 -0.1780
   43MOL   C11717841   4.711   1.902   4.052 -0.2779  0.1973 -0.1166
   43MOL   H11817842   4.528   1.889   4.175  1.2292  3.1289  1.9942
   43MOL   H11917843   4.328   1.747   3.955  0.6835 -0.5738 -2.6026
   43MOL   H12017844   4.422   1.713   4.100 -1.1883  0.3586  0.0580
   43MOL   H12117845   4.269   1.534   4.025 -1.1468 -0.8185 -0.3848
   43MOL   H12217846   4.207   1.317   3.986 -0.3983  3.0091 -0.5273
   43MOL   H12317847   4.352   1.154   3.862 -0.7616  0.8167 -1.1942
   43MOL   H12417848   4.589   1.211   3.828  0.3175  0.1587 -1.2130
   43MOL   H12517849   4.668   1.448   3.863 -0.2157  3.1154  1.6505
   43MOL   H12617850   4.739   1.950   3.959  3.0200 -3.3583 -1.0686
   43MOL   H12717851   4.731   1.796   4.034  0.0941  0.3032 -0.3285
   43MOL   C12817852   4.808   1.955   4.161  0.0788 -0.0563  0.1012
   43MOL   O12917853   4.903   2.048   4.098  0.4858  0.1892  0.9729
   43MOL   C13017854   4.945   2.159   4.169 -0.8934  0.2522 -0.3993
   43MOL   O13117855   4.848   2.263   4.179 -0.5874 -0.8076  0.0343
   43MOL   C13217856   4.804   2.334   4.068  0.4429 -0.3228  0.2656
   43MOL   C13317857   4.833   2.288   3.943 -0.4179  0.2646  0.4823
   43MOL   C13417858   4.783   2.369   3.838  1.2548 -0.0718  0.2216
   43MOL   C13517859   4.707   2.484   3.854  0.7192  0.2900  0.0723
   43MOL   C13617860   4.674   2.530   3.984  0.1350 -0.0646  0.2053
   43MOL   C13717861   4.726   2.453   4.094  0.3069  0.0759 -0.4983
   43MOL   C13817862   4.892   1.846   4.238 -0.0708  0.9028 -0.1153
   43MOL   H13917863   4.748   2.010   4.233 -1.7813 -1.1915 -0.5379
   43MOL   H14017864   5.029   2.207   4.119 -0.4946  0.5953  0.5839
   43MOL   H14117865   4.975   2.131   4.270  0.5538  0.9150 -0.6433
   43MOL   H14217866   4.895   2.201   3.926 -0.6039  0.5768 -2.0198
   43MOL   H14317867   4.811   2.338   3.739 -0.5728 -2.6676  0.4530
   43MOL   H14417868   4.662   2.537   3.771  1.8349 -2.2598 -2.2303
   43MOL   H14517869   4.607   2.613   4.000  0.4798 -0.3131  3.1578
   43MOL   H14617870   4.703   2.479   4.196 -1.9219  0.3787 -1.0629
   43MOL   H14717871   4.934   1.789   4.156  0.0796  1.4016 -0.3899
   43MOL   H14817872   4.972   1.900   4.289  0.8288  0.1683 -0.7278
   43MOL   C14917873   4.816   1.769   4.335 -0.2350 -0.2340 -0.2349
   43MOL   O15017874   4.749   1.679   4.260 -0.1413  0.3854  0.1008
   43MOL   C15117875   4.629   1.613   4.310  0.0332 -0.1076 -0.0343
   43MOL   O15217876   4.539   1.706   4.354  0.6467 -0.5109  0.2600
   43MOL   C15317877   4.411   1.663   4.377 -0.1146  0.8883 -0.6584
   43MOL   C15417878   4.367   1.527   4.344  0.7257 -0.3157  0.4079
   43MOL   C15517879   4.232   1.488   4.336  1.3356  0.1650 -0.4675
   43MOL   C15617880   4.134   1.588   4.365  0.7780  0.7870 -0.1976
   43MOL   C15717881   4.168   1.721   4.396  0.0107  0.2640  0.1408
   43MOL   C15817882   4.305   1.755   4.399  0.5736 -0.0988 -0.2653
   43MOL   C15917883   4.895   1.680   4.433 -0.1690 -0.1314  0.1273
   43MOL   H16017884   4.743   1.833   4.386  1.3586  0.7142  0.8867
   43MOL   H16117885   4.600   1.554   4.224  3.4168 -0.2238 -1.1925
   43MOL   H16217886   4.642   1.555   4.402 -5.2504 -1.4448 -0.0051
   43MOL   H16317887   4.434   1.456   4.298  1.7128 -0.5383  2.1358
   43MOL   H16417888   4.192   1.393   4.303 -2.2217  1.3414  0.2573
   43MOL   H16517889   4.032   1.553   4.365  1.6456 -1.8640 -0.6079
   43MOL   H16617890   4.092   1.795   4.414 -0.6373 -0.0560 -1.2665
   43MOL   H16717891   4.326   1.860   4.407 -0.2410  0.0024  0.5288
   43MOL   H16817892   4.968   1.619   4.380 -0.2262  1.0373 -1.3224
   43MOL   H16917893   4.820   1.617   4.482 -1.9098  1.0776 -0.9193
   43MOL   C17017894   4.974   1.769   4.536 -0.6048 -0.0167  0.1952
   43MOL   O17117895   4.867   1.831   4.616 -0.0701 -0.0968 -0.3438
   43MOL   C17217896   4.899   1.962   4.662  0.3256  0.0075 -0.0770
   43MOL   O17317897   4.886   2.064   4.569 -0.3365 -0.1073  0.3243
   43MOL   C17417898   4.758   2.107   4.531  0.1358  0.2730 -0.1364
   43MOL   C17517899   4.751   2.224   4.455  0.2197  0.3086  0.3330
   43MOL   C17617900   4.628   2.273   4.407  0.5491 -0.0490  0.5405
   43MOL   C17717901   4.509   2.201   4.437 -0.5564  0.6210 -0.1396
   43MOL   C17817902   4.515   2.090   4.520  0.4233 -0.1233  0.3205
   43MOL   C17917903   4.638   2.046   4.571  0.2704  0.3684  0.1744
   43MOL   C18017904   5.051   1.684   4.634 -0.0593 -0.0524  0.0709
   43MOL   H18117905   5.035   1.844   4.485 -0.5312 -0.5648 -0.5285
   43MOL   H18217906   5.002   1.972   4.696  1.4013 -0.1452 -3.1859
   43MOL   H18317907   4.835   1.984   4.748 -0.6366 -0.1221 -0.7472
   43MOL   H18417908   4.847   2.270   4.434  0.6198  0.6459  2.7659
   43MOL   H18517909   4.610   2.356   4.340 -2.0901 -1.0034 -0.0013
   43MOL   H18617910   4.412   2.225   4.397 -0.8046 -0.7513 -0.3892
   43MOL   H18717911   4.426   2.035   4.547  0.5796  0.6074  2.4298
   43MOL   H18817912   4.646   1.959   4.634  0.9175  1.2094  1.2626
   43MOL   H18917913   5.080   1.753   4.713 -0.0325  0.9493 -0.8058
   43MOL   H19017914   4.987   1.608   4.678  0.0856  0.3400  0.9681
   43MOL   C19117915   5.180   1.631   4.572  0.3602  0.2842 -0.5797
   43MOL   O19217916   5.209   1.519   4.660 -0.2210  0.0499  0.1412
   43MOL   C19317917   5.197   1.398   4.604  0.5509  0.3211 -0.5761
   43MOL   O19417918   5.282   1.385   4.499  0.5128  0.2203 -0.0254
   43MOL   C19517919   5.256   1.288   4.408  0.0625 -0.1754 -0.8113
   43MOL   C19617920   5.190   1.165   4.440  0.3937  0.5937  1.1370
   43MOL   C19717921   5.172   1.065   4.337  0.2310 -0.3611  0.2079
   43MOL   C19817922   5.221   1.092   4.212 -0.0806  0.1751  0.1438
   43MOL   C19917923   5.295   1.210   4.184 -0.0425 -0.2246  1.0445
   43MOL   C20017924   5.309   1.305   4.279  0.1264  0.1723  0.4295
   43MOL   C20117925   5.296   1.731   4.565 -0.0798  0.4321  0.2410
   43MOL   H20217926   5.161   1.591   4.472  1.0420 -0.8217 -0.2734
   43MOL   H20317927   5.093   1.368   4.599  0.7712 -0.6664  0.4093
   43MOL   H20417928   5.243   1.329   4.675  1.5432  0.2904 -1.2256
   43MOL   H20517929   5.148   1.153   4.539  0.8561 -1.3280  1.1134
   43MOL   H20617930   5.117   0.975   4.362 -0.6429 -1.2005 -4.2046
   43MOL   H20717931   5.221   1.015   4.136  0.2701  0.1798  0.1379
   43MOL   H20817932   5.329   1.220   4.082  1.9100 -2.2060  1.4567
   43MOL   H20917933   5.350   1.401   4.252  1.6510 -0.0214  1.9197
   43MOL   H21017934   5.260   1.815   4.505 -0.3993 -0.7747 -1.3099
   43MOL   H21117935   5.315   1.768   4.665 -0.7940  0.6220  0.3027
   43MOL   C21217936   5.430   1.678   4.502 -0.6568 -0.6579 -0.0140
   43MOL   O21317937   5.510   1.787   4.449 -0.8469  0.0762  0.1661
   43MOL   C21417938   5.509   1.791   4.315 -0.4197 -0.2505 -0.3138
   43MOL   O21517939   5.596   1.697   4.256  0.6658  0.0339 -0.1434
   43MOL   C21617940   5.720   1.737   4.208  0.2201 -0.9927 -0.2293
   43MOL   C21717941   5.768   1.663   4.100 -0.3484  0.2253  0.3839
   43MOL   C21817942   5.893   1.699   4.048  0.3017 -0.4425  0.7317
   43MOL   C21917943   5.971   1.804   4.100  0.2488 -0.0288 -0.6339
   43MOL   C22017944   5.927   1.870   4.216  0.0265  0.4123  0.2453
   43MOL   C22117945   5.799   1.838   4.263  0.9106  0.3374 -0.7333
   43MOL   C22217946   5.511   1.601   4.611 -0.3314  0.5794  0.7857
   43MOL   H22317947   5.411   1.603   4.425 -0.9470  0.3908 -0.9832
   43MOL   H22417948   5.524   1.895   4.284 -1.1952 -0.4569 -1.4125
   43MOL   H22517949   5.406   1.770   4.288 -1.7500  0.2396  4.0952
   43MOL   H22617950   5.723   1.576   4.055 -0.0754  0.2118  0.1311
   43MOL   H22717951   5.933   1.633   3.972 -0.1904  0.1467 -0.0531
   43MOL   H22817952   6.067   1.822   4.054  1.1293 -2.7526  0.0160
   43MOL   H22917953   5.985   1.938   4.277 -1.0156  0.6395  0.9891
   43MOL   H23017954   5.773   1.895   4.351  0.8729  0.0857 -0.5838
   43MOL   H23117955   5.544   1.673   4.686  0.9516 -0.8505  1.6179
   43MOL   H23217956   5.446   1.529   4.662  1.1217 -1.4018 -0.1141
   43MOL   C23317957   5.639   1.528   4.561 -0.0183  0.4039 -0.1781
   43MOL   O23417958   5.721   1.511   4.671  0.3037 -0.1422  0.0516
   43MOL   C23517959   5.828   1.597   4.684 -1.0238  0.6183  0.5231
   43MOL   O23617960   5.775   1.711   4.731 -0.2013  0.3184 -0.4209
   43MOL   C23717961   5.853   1.822   4.732 -0.1985 -0.6399 -0.2179
   43MOL   C23817962   5.805   1.927   4.804 -0.4537  0.1732  0.6920
   43MOL   C23917963   5.876   2.047   4.812  0.2909  0.2404  0.0109
   43MOL   C24017964   5.984   2.066   4.723 -0.3675 -0.2442 -0.0434
   43MOL   C24117965   6.041   1.960   4.652  0.2935 -0.1493 -0.1410
   43MOL   C24217966   5.968   1.837   4.649  0.0757  0.3531  0.3526
   43MOL   C24317967   5.607   1.395   4.498 -0.5067 -0.6689 -0.5542
   43MOL   H24417968   5.683   1.597   4.488 -0.2359  1.1059  0.3540
   43MOL   H24517969   5.883   1.594   4.590  0.7068  2.0198  1.4760
   43MOL   H24617970   5.895   1.549   4.756 -1.9042  1.3639  1.8623
   43MOL   H24717971   5.707   1.916   4.848 -1.5889  1.3601 -1.4957
   43MOL   H24817972   5.843   2.129   4.874  1.4778  0.7840 -0.0603
   43MOL   H24917973   6.037   2.159   4.705  1.8140 -1.4091  0.2484
   43MOL   H25017974   6.120   1.966   4.578 -1.3557  0.3590 -1.8872
   43MOL   H25117975   6.003   1.761   4.582 -1.2833  0.1874 -0.1988
   43MOL   H25217976   5.550   1.343   4.574 -0.8159  1.2911  0.5982
   43MOL   H25317977   5.534   1.417   4.420 -0.7840 -1.1265 -0.4212
   43MOL   C25417978   5.723   1.315   4.433 -0.1067  0.2566  0.6659
   43MOL   O25517979   5.649   1.213   4.373 -0.0474  0.2929 -0.0615
   43MOL   C25617980   5.603   1.109   4.457 -0.0835 -0.1661  0.4704
   43MOL   O25717981   5.703   1.051   4.528 -0.2376 -0.0588  0.0792
   43MOL   C25817982   5.674   0.950   4.616  0.9220  0.8672  0.2882
   43MOL   C25917983   5.775   0.908   4.704  0.3642  0.2821  0.2636
   43MOL   C26017984   5.759   0.794   4.788  0.3897 -0.4536 -0.4939
   43MOL   C26117985   5.634   0.733   4.790  0.1294  0.7015 -0.0306
   43MOL   C26217986   5.532   0.768   4.706  0.1866  0.1674 -0.0775
   43MOL   C26317987   5.550   0.877   4.616 -0.9090  0.3922 -0.8262
   43MOL   C26417988   5.798   1.392   4.316  0.1152  0.0007 -0.2692
   43MOL   H26517989   5.783   1.269   4.512  0.5673 -1.1039 -0.6157
   43MOL   H26617990   5.562   1.034   4.390 -0.9057 -1.3512  2.2428
   43MOL   H26717991   5.530   1.133   4.534 -1.1968  0.7169 -0.8604
   43MOL   H26817992   5.864   0.969   4.705 -0.2230  1.1625 -1.2523
   43MOL   H26917993   5.829   0.756   4.860 -0.7683 -0.9920  0.3749
   43MOL   H27017994   5.619   0.653   4.861  2.5204 -0.8680 -1.2086
   43MOL   H27117995   5.435   0.719   4.705 -0.6143  1.7121 -0.1349
   43MOL   H27217996   5.467   0.902   4.551 -1.1496  0.7247 -0.3972
   43MOL   H27317997   5.724   1.430   4.246 -0.0486  1.5055  0.6924
   43MOL   H27417998   5.835   1.485   4.360 -2.4856  0.4232  1.1025
   43MOL   C27517999   5.902   1.309   4.235  0.1746  0.2744 -0.1897
   43MOL   O27618000   5.913   1.377   4.102 -0.7468 -0.1763 -0.3455
   43MOL   C27718001   5.938   1.291   3.997  0.0684 -0.2717 -0.0199
   43MOL   O27818002   5.815   1.231   3.957  0.1994  0.8029  0.0482
   43MOL   C27918003   5.816   1.146   3.852  0.8435 -0.2183 -0.8466
   43MOL   C28018004   5.931   1.129   3.773 -0.5980  0.2872  0.4318
   43MOL   C28118005   5.919   1.053   3.653 -0.5611  0.0930  0.0271
   43MOL   C28218006   5.796   0.988   3.624 -0.5551 -0.5051 -0.1137
   43MOL   C28318007   5.689   0.998   3.709  0.6455 -0.1903 -0.2474
   43MOL   C28418008   5.694   1.079   3.823 -0.3773 -0.4047  0.1924
   43MOL   C28518009   6.043   1.310   4.301 -0.4445  0.5243 -0.1229
   43MOL   H28618010   5.866   1.206   4.228  1.5536 -0.3435  1.2684
   43MOL   H28718011   6.017   1.219   4.020 -0.0091 -1.8882 -4.2153
   43MOL   H28818012   5.980   1.357   3.921  1.0963  0.9318  1.5681
   43MOL   H28918013   6.025   1.181   3.787 -0.3288 -0.1789  0.3580
   43MOL   H29018014   6.000   1.036   3.583  0.4324  1.1340  0.8978
   43MOL   H29118015   5.793   0.924   3.537 -2.1316  0.4637 -0.7922
   43MOL   H29218016   5.597   0.954   3.674 -0.1727  1.7988 -0.6627
   43MOL   H29318017   5.608   1.109   3.880 -1.1326  0.4905 -1.4005
   43MOL   H29418018   6.051   1.392   4.372  0.3465  2.5312 -2.4645
   43MOL   H29518019   6.110   1.323   4.216  2.3035  3.0904  2.3290
   43MOL   C29618020   6.069   1.180   4.376 -0.2461  0.4179  0.6569
   43MOL   O29718021   6.088   1.085   4.271  0.1224 -0.3783  0.1583
   43MOL   C29818022   6.030   0.962   4.279 -0.2250  0.0792  0.1146
   43MOL   O29918023   6.036   0.898   4.155  0.0456 -0.2783  0.3521
   43MOL   C30018024   6.164   0.860   4.101  0.0470 -0.1877  0.6841
   43MOL   C30118025   6.182   0.884   3.965 -0.4297  0.8005 -0.1756
   43MOL   C30218026   6.303   0.850   3.903  0.3522 -0.1966 -0.1428
   43MOL   C30318027   6.394   0.779   3.973 -0.3616  0.3526  0.0526
   43MOL   C30418028   6.369   0.743   4.110  0.5402  0.3523 -0.2586
   43MOL   C30518029   6.254   0.786   4.180 -0.5473  0.0750  0.1424
   43MOL   C30618030   6.190   1.183   4.474  0.2203  0.3244  0.1870
   43MOL   H30718031   5.971   1.167   4.424  0.3724  1.5147  2.2550
   43MOL   H30818032   5.922   0.972   4.293 -0.4932 -1.2317 -0.9053
   43MOL   H30918033   6.077   0.904   4.358  1.6988  2.2133  0.5885
   43MOL   H31018034   6.102   0.943   3.923 -0.0177  1.2206 -0.3672
   43MOL   H31118035   6.326   0.881   3.802  2.7983 -1.3617 -0.0000
   43MOL   H31218036   6.479   0.744   3.916 -0.4257  0.4414 -0.0972
   43MOL   H31318037   6.440   0.681   4.163  0.5647  0.9450  0.4100
   43MOL   H31418038   6.233   0.744   4.277 -3.5785  1.5145  0.1713
   43MOL   H31518039   6.227   1.285   4.471  0.2192  0.2778 -1.7646
   43MOL   H31618040   6.268   1.127   4.423 -0.1956  1.9114 -2.2868
   43MOL   C31718041   6.165   1.122   4.609 -0.9604 -0.0396  0.1848
   43MOL   O31818042   6.111   0.996   4.605  0.3891 -0.0738 -0.3229
   43MOL   C31918043   6.205   0.890   4.630 -0.2282 -0.2041  0.2602
   43MOL   O32018044   6.252   0.895   4.759  0.5608  0.0162 -0.3908
   43MOL   C32118045   6.358   0.808   4.791 -0.2019  0.0853 -1.0987
   43MOL   C32218046   6.396   0.804   4.929  0.3405  0.8509 -0.4005
   43MOL   C32318047   6.486   0.709   4.976 -0.1096  0.5180 -0.0328
   43MOL   C32418048   6.546   0.616   4.888  0.0654 -0.5768 -0.1597
   43MOL   C32518049   6.514   0.625   4.751  0.1638 -0.1088 -0.5863
   43MOL   C32618050   6.419   0.719   4.705  0.1513 -0.1342 -0.1485
   43MOL   C32718051   6.061   1.196   4.706 -0.6628 -0.7903 -0.3413
   43MOL   H32818052   6.260   1.131   4.662 -1.5871  1.9182  1.0284
   43MOL   H32918053   6.288   0.901   4.560  1.4920 -0.0302  2.2509
   43MOL   H33018054   6.155   0.797   4.602  0.9064 -0.4184 -1.1575
   43MOL   H33118055   6.349   0.876   4.995  0.4537 -0.2359  0.8914
   43MOL   H33218056   6.510   0.700   5.081 -1.5563  1.6948  0.4170
   43MOL   H33318057   6.616   0.544   4.929 -0.4954 -0.8165  0.3736
   43MOL   H33418058   6.560   0.551   4.687 -0.5328 -1.5429  0.5481
   43MOL   H33518059   6.382   0.708   4.604  1.0008 -1.2725 -0.3463
   43MOL   H33618060   5.972   1.230   4.654 -0.0054 -2.1433 -2.4192
   43MOL   H33718061   6.015   1.123   4.773 -1.0844 -0.1862  0.0359
   43MOL   C33818062   6.103   1.321   4.782 -1.1248  0.5890 -0.8013
   43MOL   O33918063   6.093   1.438   4.706 -0.3274 -0.2712  0.5773
   43MOL   C34018064   6.189   1.542   4.735 -0.0252 -0.7573  0.0578
   43MOL   O34118065   6.149   1.634   4.829 -0.8944  0.4359 -0.0435
   43MOL   C34218066   6.242   1.694   4.909  0.2885 -0.5108  0.7925
   43MOL   C34318067   6.360   1.626   4.956  0.7610 -0.0705 -0.1857
   43MOL   C34418068   6.451   1.683   5.039 -0.3615  0.1339 -0.5549
   43MOL   C34518069   6.436   1.822   5.074  0.5120  0.4794 -0.6235
   43MOL   C34618070   6.321   1.895   5.030  0.2606 -0.6425 -0.0527
   43MOL   C34718071   6.227   1.832   4.944  0.0027 -0.2552  1.1253
   43MOL   C34818072   6.024   1.342   4.912  0.2495 -0.3712  0.5435
   43MOL   H34918073   6.207   1.313   4.814 -1.6445 -0.7113  0.6062
   43MOL   H35018074   6.178   1.615   4.655  0.3806 -0.9920 -0.2142
   43MOL   H35118075   6.292   1.506   4.734  0.3604  0.3182 -0.1026
   43MOL   H35218076   6.380   1.522   4.936 -0.0189  0.0543 -1.6968
   43MOL   H35318077   6.542   1.634   5.070 -0.4378  0.8641  0.9061
   43MOL   H35418078   6.517   1.868   5.129 -0.4686 -0.8955  2.0267
   43MOL   H35518079   6.308   1.995   5.067 -1.1278 -0.8803  0.1338
   43MOL   H35618080   6.148   1.890   4.899  2.5550  0.2632 -2.9908
   43MOL   H35718081   5.919   1.321   4.891  0.4386 -0.1204 -0.6844
   43MOL   H35818082   6.038   1.448   4.930  2.6042 -0.3900 -1.0190
   43MOL   C35918083   6.060   1.269   5.041 -0.3229 -0.8301 -0.3346
   43MOL   O36018084   6.022   1.131   5.024 -0.1080 -0.1165 -0.1472
   43MOL   C36118085   6.126   1.031   5.028 -0.1393 -0.4850  0.7070
   43MOL   O36218086   6.168   0.985   5.150 -0.5077 -0.1259  0.1670
   43MOL   C36318087   6.075   0.928   5.235 -0.2462 -0.3450  0.5524
   43MOL   C36418088   5.941   0.898   5.190 -0.2587  0.1482 -0.6085
   43MOL   C36518089   5.864   0.814   5.272  0.6946 -0.0824 -0.7368
   43MOL   C36618090   5.904   0.785   5.403 -0.3119 -0.0947 -0.4225
   43MOL   C36718091   6.025   0.828   5.456  0.6226 -0.0161  0.6389
   43MOL   C36818092   6.108   0.905   5.372 -0.1513  0.2001  0.1209
   43MOL   C36918093   5.990   1.328   5.161 -0.4862 -0.3187 -0.3161
   43MOL   H37018094   6.167   1.277   5.061 -0.2664 -1.2016 -0.4747
   43MOL   H37118095   6.220   1.065   4.986  0.4228 -1.7056  0.9360
   43MOL   H37218096   6.099   0.943   4.969  2.6966 -0.3350 -0.8486
   43MOL   H37318097   5.903   0.924   5.092  0.2903  1.2629 -0.5311
   43MOL   H37418098   5.768   0.777   5.238  0.0608 -0.6322  1.5748
   43MOL   H37518099   5.840   0.733   5.472  2.1771 -1.6069  0.8425
   43MOL   H37618100   6.053   0.804   5.557 -0.7913  0.5969  1.1914
   43MOL   H37718101   6.207   0.922   5.411  1.1442 -2.8801 -1.6831
   43MOL   H37818102   5.973   1.258   5.242  1.3387  0.8288  1.0881
   43MOL   H37918103   5.896   1.350   5.109  0.2910  1.0421 -1.1764
   43MOL   C38018104   6.059   1.457   5.227  0.3782 -0.9063 -0.4195
   43MOL   O38118105   6.107   1.413   5.359  0.5665 -0.1346  0.2008
   43MOL   C38218106   6.219   1.328   5.350  0.1746 -0.0387 -0.1895
   43MOL   O38318107   6.324   1.397   5.292  0.5645  0.2425 -0.0697
   43MOL   C38418108   6.415   1.458   5.375 -0.1038  0.0149  0.0134
   43MOL   C38518109   6.546   1.485   5.327  0.1478  0.6839 -0.6304
   43MOL   C38618110   6.640   1.548   5.409 -0.1220 -0.4730  0.0782
   43MOL   C38718111   6.598   1.588   5.540 -0.1157  0.0141  0.4634
   43MOL   C38818112   6.470   1.565   5.584 -1.1341 -0.3767 -0.0011
   43MOL   C38918113   6.375   1.505   5.503  0.2844 -0.1582 -0.3815
   43MOL   C39018114   5.971   1.581   5.242 -0.7336 -0.0236 -0.2015
   43MOL   H39118115   6.152   1.476   5.173  1.5703  1.8281  2.4509
   43MOL   H39218116   6.236   1.306   5.456 -1.2307  1.0541  0.2925
   43MOL   H39318117   6.208   1.238   5.290 -0.4679  1.3587 -2.2306
   43MOL   H39418118   6.560   1.458   5.224 -0.9701 -1.6114 -0.1968
   43MOL   H39518119   6.741   1.563   5.376 -0.0298 -1.3509 -0.0530
   43MOL   H39618120   6.662   1.639   5.610  1.3589 -0.7467 -0.3160
   43MOL   H39718121   6.446   1.603   5.682 -0.9553 -3.7766  1.4435
   43MOL   H39818122   6.277   1.505   5.547  1.2649  0.4471  1.8929
   43MOL   H39918123   5.911   1.580   5.333 -0.1577  0.6359  0.1871
   43MOL   H40018124   5.896   1.579   5.163 -1.0852  0.2936  0.1208
   43MOL   C40118125   6.048   1.714   5.241  0.1726  0.1478 -0.0163
   43MOL   O40218126   5.960   1.822   5.259 -0.0449 -0.2425  0.0301
   43MOL   C40318127   5.964   1.915   5.160  0.1969  0.0381  0.1103
   43MOL   O40418128   5.889   2.027   5.188  0.2303  0.2075  0.0431
   43MOL   C40518129   5.925   2.110   5.284  0.1518  0.1646 -0.1278
   43MOL   C40618130   6.049   2.097   5.358 -0.3795  0.7838 -0.4258
   43MOL   C40718131   6.065   2.190   5.460 -0.3932 -0.2395  0.6287
   43MOL   C40818132   5.976   2.295   5.493  0.1948  0.3381  0.4711
   43MOL   C40918133   5.872   2.316   5.403 -0.0186 -0.6177  0.7773
   43MOL   C41018134   5.849   2.226   5.297 -0.1335 -0.3699 -0.1001
   43MOL   C41118135   6.147   1.741   5.352 -0.6599 -0.4668 -0.2950
   43MOL   H41218136   6.102   1.716   5.146 -1.5283 -0.7770 -1.0187
   43MOL   H41318137   5.917   1.876   5.070  2.2152  0.6209 -1.2359
   43MOL   H41418138   6.065   1.946   5.132 -1.3651  1.9768 -3.7912
   43MOL   H41518139   6.113   2.011   5.350 -0.9073  0.2416  1.0830
   43MOL   H41618140   6.158   2.183   5.515 -0.5222 -2.3089  0.6109
   43MOL   H41718141   6.002   2.359   5.576 -0.7242 -0.9830  1.8097
   43MOL   H41818142   5.809   2.404   5.404 -0.5599 -0.9848 -0.0268
   43MOL   H41918143   5.765   2.234   5.230  0.2428 -0.4114 -0.5819
   43MOL   H42018144   6.213   1.824   5.324 -0.6678 -0.3685 -0.0250
   43MOL   H42118145   6.210   1.652   5.359  0.9546  0.6226 -0.6143
   43MOL   H42218146   6.087   1.764   5.440  2.0215  0.7710  1.2751
   44MOL     C118147   7.025   4.521   4.322  0.3194 -1.0187 -0.1317
   44MOL     O218148   6.985   4.473   4.449  0.0680 -0.2720  0.0945
   44MOL     C318149   7.010   4.336   4.463  0.7239 -0.1128 -0.0723
   44MOL     O418150   7.139   4.295   4.443  0.1120 -0.0821 -0.6566
   44MOL     C518151   7.236   4.303   4.549  0.0555 -0.2531  0.2259
   44MOL     C618152   7.356   4.233   4.533  0.1259  0.4053  0.1300
   44MOL     C718153   7.451   4.222   4.640 -0.2741  0.2110 -0.0877
   44MOL     C818154   7.428   4.292   4.758 -0.9350  0.3205  0.1774
   44MOL     C918155   7.319   4.377   4.768  0.4928 -0.1859 -0.5445
   44MOL    C1018156   7.213   4.377   4.671 -0.1537  0.0385  0.0670
   44MOL    C1118157   6.992   4.669   4.318  0.0373 -0.2468 -0.0157
   44MOL    H1218158   7.133   4.504   4.321  0.7768  1.6099  0.2168
   44MOL    H1318159   6.991   4.314   4.568  0.5288  1.5407  0.2514
   44MOL    H1418160   6.942   4.276   4.403 -0.2631 -3.0799  3.8166
   44MOL    H1518161   7.374   4.183   4.439 -0.4487  1.3761 -0.5089
   44MOL    H1618162   7.542   4.165   4.628 -1.5362 -1.6081 -1.2240
   44MOL    H1718163   7.491   4.293   4.845 -1.8897  0.8099  0.8718
   44MOL    H1818164   7.292   4.434   4.855 -0.3116 -1.5307  0.1027
   44MOL    H1918165   7.119   4.426   4.687 -0.2750  0.8143 -2.7867
   44MOL    H2018166   7.038   4.711   4.229 -1.8027 -1.4443 -1.5767
   44MOL    H2118167   7.046   4.717   4.399 -0.3454 -0.5835  0.4405
   44MOL    H2218168   6.980   4.464   4.241 -1.4499 -2.0222  1.5169
   44MOL    C2318169   6.843   4.705   4.313 -0.6365 -0.1126  0.0399
   44MOL    O2418170   6.797   4.664   4.184  0.0959 -0.2197  0.0950
   44MOL    C2518171   6.662   4.658   4.162 -0.0509 -0.8096  0.1832
   44MOL    O2618172   6.621   4.522   4.178  0.1088  0.1943  0.2644
   44MOL    C2718173   6.652   4.428   4.083 -0.1020 -0.7383  0.3674
   44MOL    C2818174   6.725   4.449   3.967 -0.6473 -0.2161 -0.8131
   44MOL    C2918175   6.744   4.347   3.869 -0.1792  0.0164 -0.2488
   44MOL    C3018176   6.704   4.218   3.899  0.3380 -0.2109  0.1915
   44MOL    C3118177   6.616   4.199   4.010 -0.3323 -0.0298 -0.1323
   44MOL    C3218178   6.607   4.300   4.109  0.6270  0.2226 -0.3076
   44MOL    C3318179   6.825   4.852   4.342 -0.6730 -0.3762  0.5578
   44MOL    H3418180   6.792   4.645   4.388 -1.1392 -1.5584 -1.4156
   44MOL    H3518181   6.635   4.684   4.060 -0.0276 -1.9046 -0.1097
   44MOL    H3618182   6.615   4.725   4.234  0.0598 -0.6646  0.1193
   44MOL    H3718183   6.777   4.541   3.942  0.8026 -0.6822  0.4105
   44MOL    H3818184   6.798   4.361   3.776 -0.2064 -1.7237 -0.5331
   44MOL    H3918185   6.708   4.135   3.830  0.9164 -0.1941  0.1998
   44MOL    H4018186   6.580   4.101   4.037  1.7844 -0.4879  1.1591
   44MOL    H4118187   6.549   4.290   4.200  2.7177  1.4468  1.2095
   44MOL    H4218188   6.750   4.894   4.275 -0.1960  0.9073  0.8145
   44MOL    H4318189   6.901   4.912   4.293 -0.5075 -0.1097  1.1333
   44MOL    C4418190   6.802   4.886   4.486 -0.7625  0.5544 -0.4018
   44MOL    O4518191   6.669   4.843   4.494 -0.2778  0.2653 -0.5905
   44MOL    C4618192   6.617   4.830   4.622  0.0842 -0.0959 -0.3026
   44MOL    O4718193   6.476   4.826   4.627 -0.0043 -0.0845 -0.1936
   44MOL    C4818194   6.412   4.714   4.578 -0.3849  0.3147  0.5382
   44MOL    C4918195   6.271   4.696   4.601 -0.2462  0.4468  0.3118
   44MOL    C5018196   6.215   4.581   4.547 -0.4135 -0.0026  0.5817
   44MOL    C5118197   6.282   4.482   4.477 -0.2535  0.6376 -0.1057
   44MOL    C5218198   6.416   4.500   4.450  0.1646  0.4954  0.3385
   44MOL    C5318199   6.482   4.618   4.496  0.2430  0.7130  0.4154
   44MOL    C5418200   6.811   5.041   4.512  0.1563  0.4915  0.3926
   44MOL    H5518201   6.868   4.829   4.551  1.2664  1.6622 -1.4437
   44MOL    H5618202   6.659   4.900   4.694  0.8384 -1.0548  0.2136
   44MOL    H5718203   6.640   4.732   4.665 -1.0857 -0.8274 -1.3133
   44MOL    H5818204   6.213   4.773   4.651  0.1374  0.1600  1.2222
   44MOL    H5918205   6.108   4.574   4.559 -0.5648  0.3570 -0.4694
   44MOL    H6018206   6.229   4.398   4.436 -2.2761  0.6594  2.3097
   44MOL    H6118207   6.466   4.431   4.384  0.6492  0.4701  0.7301
   44MOL    H6218208   6.585   4.621   4.465 -0.3442  3.5178 -1.4124
   44MOL    H6318209   6.769   5.093   4.426  1.5875 -0.5476 -0.9704
   44MOL    H6418210   6.754   5.074   4.599 -2.3394 -2.8852  0.1532
   44MOL    C6518211   6.952   5.091   4.541  0.6749 -0.2090 -0.2379
   44MOL    O6618212   7.025   5.095   4.418  0.1724 -0.5784 -1.3880
   44MOL    C6718213   7.152   5.038   4.426  0.4568  0.3816  0.4092
   44MOL    O6818214   7.245   5.121   4.490  0.6318  0.0345 -0.1887
   44MOL    C6918215   7.283   5.241   4.437  0.1931  0.3361  0.0600
   44MOL    C7018216   7.257   5.276   4.301  0.5251 -0.2381 -0.8488
   44MOL    C7118217   7.330   5.386   4.241  0.4182 -1.0338 -0.0722
   44MOL    C7218218   7.409   5.467   4.316  0.0173  0.1168 -0.5288
   44MOL    C7318219   7.439   5.435   4.450 -0.1296  0.4488 -0.3521
   44MOL    C7418220   7.377   5.319   4.501 -0.8218  1.0636  0.0159
   44MOL    C7518221   6.954   5.230   4.615  0.1312  0.2448  0.1504
   44MOL    H7618222   6.990   5.022   4.616 -0.1180 -0.7883 -0.3550
   44MOL    H7718223   7.190   5.028   4.324 -0.3074  0.5997  0.0947
   44MOL    H7818224   7.155   4.940   4.474  0.3244  0.4211  0.4991
   44MOL    H7918225   7.193   5.211   4.243  1.4537  0.3838 -2.6052
   44MOL    H8018226   7.313   5.418   4.139 -1.7654  3.8251  1.6591
   44MOL    H8118227   7.448   5.562   4.283  1.9764  0.2720  2.0053
   44MOL    H8218228   7.499   5.499   4.513 -1.7764 -0.7555  2.5765
   44MOL    H8318229   7.394   5.280   4.600  0.5662 -0.2408 -0.7171
   44MOL    H8418230   6.918   5.211   4.716 -1.0602 -0.2567 -0.3574
   44MOL    H8518231   7.053   5.267   4.639  0.6438 -1.6499  1.0747
   44MOL    C8618232   6.869   5.353   4.559  0.6154 -0.4986  0.3858
   44MOL    O8718233   6.739   5.335   4.623 -0.1521  0.0952  0.5284
   44MOL    C8818234   6.637   5.408   4.555  0.5351 -0.7803 -0.2859
   44MOL    O8918235   6.618   5.366   4.423 -0.2677 -0.3252 -0.5836
   44MOL    C9018236   6.505   5.289   4.404  0.6705  0.0540  0.6880
   44MOL    C9118237   6.424   5.314   4.284 -0.0952  0.4648 -0.0229
   44MOL    C9218238   6.314   5.228   4.263 -0.6969  1.1339  0.5305
   44MOL    C9318239   6.283   5.124   4.350  0.0266 -0.2843 -0.0543
   44MOL    C9418240   6.350   5.116   4.472  0.6602  0.6863 -0.9169
   44MOL    C9518241   6.456   5.196   4.503 -0.0952 -0.1154 -0.5151
   44MOL    C9618242   6.942   5.482   4.592  0.6060  0.4572 -0.5595
   44MOL    H9718243   6.862   5.333   4.452 -1.0838 -2.3509  0.8070
   44MOL    H9818244   6.670   5.512   4.559 -0.3409 -0.3890 -2.3594
   44MOL    H9918245   6.538   5.413   4.600 -0.3661  0.8459 -2.3304
   44MOL   H10018246   6.456   5.396   4.223 -0.3627  0.7849  0.2638
   44MOL   H10118247   6.265   5.241   4.168  2.1074  0.4610 -1.0751
   44MOL   H10218248   6.201   5.060   4.322 -0.9597  0.6051  0.7959
   44MOL   H10318249   6.322   5.047   4.550  2.0103  1.3079  0.1441
   44MOL   H10418250   6.511   5.175   4.594  0.6608 -1.1701 -1.2027
   44MOL   H10518251   6.862   5.547   4.628  0.8163 -0.2717  1.2782
   44MOL   H10618252   6.993   5.464   4.687  0.1971 -1.0780 -0.6184
   44MOL   C10718253   7.029   5.547   4.484 -0.1400  0.1767 -0.1358
   44MOL   O10818254   6.946   5.574   4.365  0.0450 -0.1917  0.1126
   44MOL   C10918255   7.000   5.527   4.243 -0.2155  0.2015  0.0764
   44MOL   O11018256   7.118   5.597   4.209 -0.4961  0.0845 -0.1748
   44MOL   C11118257   7.107   5.728   4.166 -0.1055 -0.4986  0.7282
   44MOL   C11218258   7.217   5.787   4.103  0.0313  0.6731 -1.1121
   44MOL   C11318259   7.211   5.912   4.049 -0.2534 -0.2240  0.0697
   44MOL   C11418260   7.091   5.981   4.050  0.4096  0.5766 -0.0825
   44MOL   C11518261   6.972   5.927   4.110 -0.3381 -0.5386  0.0892
   44MOL   C11618262   6.992   5.801   4.167 -0.0546  0.3519  0.1490
   44MOL   C11718263   7.090   5.683   4.533 -0.4530 -0.4194  0.9610
   44MOL   H11818264   7.104   5.469   4.469 -0.1057  0.1372  0.2307
   44MOL   H11918265   6.930   5.533   4.160  0.2917  0.3547 -0.3426
   44MOL   H12018266   7.041   5.426   4.251  1.6302  0.9514  0.4729
   44MOL   H12118267   7.313   5.738   4.106  1.2967  3.0759 -0.4754
   44MOL   H12218268   7.298   5.945   3.993  0.8622 -1.8022  0.8411
   44MOL   H12318269   7.100   6.082   4.012 -0.9920 -0.1725 -2.5056
   44MOL   H12418270   6.877   5.978   4.114 -0.4537 -0.9316  3.1939
   44MOL   H12518271   6.896   5.762   4.197 -0.4398  1.1769  0.0225
   44MOL   H12618272   7.012   5.739   4.584 -1.8172  0.7243 -2.2670
   44MOL   H12718273   7.120   5.729   4.439 -2.1443 -1.5896 -0.1971
   44MOL   C12818274   7.214   5.680   4.627  0.8542  0.6295 -0.1044
   44MOL   O12918275   7.162   5.639   4.752 -0.0003 -0.2260  0.2944
   44MOL   C13018276   7.253   5.569   4.828 -0.2596 -0.5575 -0.1504
   44MOL   O13118277   7.266   5.436   4.791 -0.5999 -0.3730 -0.3482
   44MOL   C13218278   7.328   5.351   4.874  0.0181  0.0221 -0.5396
   44MOL   C13318279   7.389   5.389   4.999 -0.4819 -0.3940  0.5012
   44MOL   C13418280   7.448   5.296   5.080 -0.0869 -0.0304  0.2814
   44MOL   C13518281   7.438   5.160   5.059 -0.5796  0.2712 -0.0727
   44MOL   C13618282   7.379   5.115   4.937 -0.0107  0.1780 -0.0059
   44MOL   C13718283   7.329   5.211   4.849 -0.4043  0.3397  0.0565
   44MOL   C13818284   7.292   5.813   4.630 -0.0979  0.2161 -0.0996
   44MOL   H13918285   7.274   5.601   4.581  0.8757  0.6634 -0.1339
   44MOL   H14018286   7.208   5.571   4.927  2.4748  2.1842  1.1305
   44MOL   H14118287   7.344   5.629   4.834 -0.0253 -1.0795  1.8241
   44MOL   H14218288   7.390   5.494   5.026  1.7686  0.9266 -4.3051
   44MOL   H14318289   7.490   5.324   5.176  1.6081 -2.5519  0.3120
   44MOL   H14418290   7.477   5.087   5.128  3.4048 -0.2409 -2.7278
   44MOL   H14518291   7.374   5.011   4.907  1.1923 -0.1104  0.7473
   44MOL   H14618292   7.303   5.175   4.750 -0.2425 -0.2135  0.2124
   44MOL   H14718293   7.211   5.882   4.655  0.0333 -0.8997  3.7927
   44MOL   H14818294   7.352   5.827   4.719  0.4934 -2.6115  0.0116
   44MOL   C14918295   7.370   5.860   4.510  0.5581 -0.3880 -0.3686
   44MOL   O15018296   7.355   6.005   4.483  0.0338  0.1881 -0.2026
   44MOL   C15118297   7.230   6.039   4.420 -1.3839  0.1756  0.4498
   44MOL   O15218298   7.219   6.175   4.400  0.4579 -0.4644  0.2150
   44MOL   C15318299   7.309   6.244   4.313  0.1067  0.4735 -0.2617
   44MOL   C15418300   7.320   6.380   4.331  0.1484 -0.4065 -0.8685
   44MOL   C15518301   7.422   6.451   4.270 -0.2804 -0.4862 -0.9314
   44MOL   C15618302   7.513   6.389   4.185  0.2650 -0.4044  0.0285
   44MOL   C15718303   7.505   6.249   4.170 -0.0523  0.7277 -1.0514
   44MOL   C15818304   7.405   6.175   4.234 -0.1239 -0.1335  0.3270
   44MOL   C15918305   7.512   5.828   4.531 -0.0877  0.0950  0.0356
   44MOL   H16018306   7.332   5.806   4.424 -0.8300  0.7568 -0.4854
   44MOL   H16118307   7.216   5.991   4.323 -1.3926 -0.9633  1.0035
   44MOL   H16218308   7.152   6.015   4.492 -0.0422 -0.7817  1.6172
   44MOL   H16318309   7.272   6.424   4.417 -0.5038 -1.4620 -0.6903
   44MOL   H16418310   7.436   6.554   4.299  0.3457 -1.0302  0.7600
   44MOL   H16518311   7.603   6.441   4.154  0.4725 -0.9608 -0.3176
   44MOL   H16618312   7.591   6.200   4.127 -1.0755 -1.4081 -0.7350
   44MOL   H16718313   7.411   6.069   4.254  1.7325 -0.2357 -0.6524
   44MOL   H16818314   7.512   5.721   4.555  0.0866 -0.1307 -0.9438
   44MOL   H16918315   7.551   5.874   4.621 -1.6451 -1.7218  1.6940
   44MOL   C17018316   7.618   5.855   4.423  0.0149  0.4989  0.2755
   44MOL   O17118317   7.587   5.807   4.291  0.1383  0.7108 -0.3033
   44MOL   C17218318   7.678   5.728   4.222 -0.8713  0.1275 -0.0550
   44MOL   O17318319   7.780   5.810   4.173 -0.7780  0.0220 -0.1506
   44MOL   C17418320   7.751   5.903   4.076 -0.2162 -0.3302  0.1610
   44MOL   C17518321   7.864   5.967   4.025  0.1297 -0.5481 -0.4733
   44MOL   C17618322   7.857   6.038   3.902  0.7061  0.0117  1.0800
   44MOL   C17718323   7.732   6.061   3.841 -0.3876 -0.4322 -0.6868
   44MOL   C17818324   7.617   5.998   3.895  0.3366  0.4167  0.4839
   44MOL   C17918325   7.624   5.918   4.009 -0.4914  0.1014 -0.6543
   44MOL   C18018326   7.650   6.007   4.412  0.1142  0.3560  0.4579
   44MOL   H18118327   7.714   5.813   4.453 -0.3721  0.4861  1.4949
   44MOL   H18218328   7.630   5.664   4.148 -1.2124 -0.1218  0.3778
   44MOL   H18318329   7.728   5.657   4.288 -1.5481 -1.7850 -1.5455
   44MOL   H18418330   7.963   5.955   4.066  0.6805  2.2588 -0.8201
   44MOL   H18518331   7.946   6.084   3.861  1.1542 -0.2962  1.6955
   44MOL   H18618332   7.732   6.131   3.758  0.1462  1.0159  0.5190
   44MOL   H18718333   7.518   6.027   3.863 -0.8636 -0.3884  3.2964
   44MOL   H18818334   7.535   5.867   4.042 -0.1914 -0.2646 -0.4086
   44MOL   H18918335   7.634   6.039   4.309 -0.6793  1.6105  0.9576
   44MOL   H19018336   7.587   6.078   4.465 -1.7747  1.1078 -2.6101
   44MOL   C19118337   7.789   6.047   4.463  0.7581 -0.1733  0.3350
   44MOL   O19218338   7.819   5.995   4.594  0.5968 -0.2030 -0.4586
   44MOL   C19318339   7.946   5.936   4.600  0.1943  0.3377  0.4259
   44MOL   O19418340   7.955   5.807   4.548 -0.1591  0.3988 -0.3972
   44MOL   C19518341   7.867   5.708   4.602 -0.8197  0.1729 -0.3608
   44MOL   C19618342   7.856   5.582   4.528 -0.3288 -0.5794  0.3393
   44MOL   C19718343   7.760   5.485   4.570  0.4280  0.0367  0.1494
   44MOL   C19818344   7.689   5.504   4.688 -0.2053  0.3284 -0.2869
   44MOL   C19918345   7.705   5.624   4.763  0.9431 -0.2963  0.3632
   44MOL   C20018346   7.792   5.723   4.721 -0.0464 -0.0672 -0.5050
   44MOL   C20118347   7.820   6.196   4.430  0.2012 -0.4254 -0.5686
   44MOL   H20218348   7.850   5.985   4.397 -0.6140  0.1823 -1.3094
   44MOL   H20318349   0.010   5.945   4.701  0.2991 -0.5888  0.4754
   44MOL   H20418350   0.035   5.995   4.535  0.8843 -2.5891 -1.6951
   44MOL   H20518351   7.924   5.568   4.446  0.4272 -0.3483  0.9258
   44MOL   H20618352   7.750   5.388   4.522 -3.1294  0.3991  0.0631
   44MOL   H20718353   7.633   5.424   4.735  2.1490 -1.8583 -1.0763
   44MOL   H20818354   7.651   5.644   4.854 -0.4143  3.8569 -1.2477
   44MOL   H20918355   7.793   5.812   4.782 -0.0374 -1.4952  1.6084
   44MOL   H21018356   7.778   6.220   4.333  1.5913 -1.9860 -1.5787
   44MOL   H21118357   7.768   6.260   4.502  1.1297 -1.0707  0.6878
   44MOL   C21218358   7.962   6.255   4.441 -0.0891 -0.0094 -0.3771
   44MOL   O21318359   0.058   6.181   4.344 -0.4608  0.5258 -0.3665
   44MOL   C21418360   0.199   6.171   4.358  0.0064 -0.3120  0.0699
   44MOL   O21518361   0.242   6.069   4.440  0.2180 -0.3537  0.3051
   44MOL   C21618362   0.246   5.939   4.383 -0.0157  0.2215  0.5588
   44MOL   C21718363   0.319   5.847   4.453  0.4618  0.2370  0.1973
   44MOL   C21818364   0.325   5.717   4.409  0.3454  0.4631  0.0809
   44MOL   C21918365   0.258   5.680   4.290 -0.0306 -0.2734 -0.1645
   44MOL   C22018366   0.185   5.777   4.216 -0.2102  0.7696 -0.2330
   44MOL   C22118367   0.177   5.907   4.260  0.7381 -0.1876  0.9037
   44MOL   C22218368   0.002   6.402   4.395  0.2451  0.3991 -0.4388
   44MOL   H22318369   0.036   6.246   4.538  0.8613  2.4113 -0.5942
   44MOL   H22418370   0.245   6.263   4.395 -2.0941 -0.1849  2.4689
   44MOL   H22518371   0.247   6.161   4.260  0.3432  2.2600 -0.0671
   44MOL   H22618372   0.360   5.876   4.549  0.1136 -1.0097  0.7338
   44MOL   H22718373   0.367   5.630   4.458 -1.3757 -1.0538 -1.0100
   44MOL   H22818374   0.268   5.574   4.269  0.3309  0.2779 -2.9264
   44MOL   H22918375   0.127   5.751   4.128  0.7806  0.7037 -0.8699
   44MOL   H23018376   0.126   5.980   4.199  0.0383 -0.9933  0.5090
   44MOL   H23118377   0.108   6.425   4.385  0.4799 -1.2280 -1.9692
   44MOL   H23218378   7.942   6.414   4.292  1.2872 -1.6441 -1.0623
   44MOL   C23318379   7.926   6.502   4.495  0.0698  0.2511 -0.2930
   44MOL   O23418380   0.012   6.480   4.625 -0.2732  0.5538 -0.3115
   44MOL   C23518381   7.900   6.500   4.729  0.1365  0.1063  0.7202
   44MOL   O23618382   7.839   6.385   4.771 -0.3309  0.0230  0.0878
   44MOL   C23718383   7.909   6.281   4.830  0.1553 -0.4735 -0.2281
   44MOL   C23818384   0.067   6.287   4.875  1.0423  0.2102 -0.6523
   44MOL   C23918385   0.130   6.177   4.940  0.2914 -0.4365  0.5389
   44MOL   C24018386   0.054   6.060   4.964  0.8904 -0.3280 -0.1498
   44MOL   C24118387   7.898   6.049   4.924  0.4759 -0.0423 -0.0393
   44MOL   C24218388   7.836   6.162   4.854  0.5531  0.3672 -0.6580
   44MOL   C24318389   7.939   6.650   4.454  0.0951  0.6089 -0.2034
   44MOL   H24418390   7.820   6.483   4.507 -0.0100  1.0828  0.3088
   44MOL   H24518391   7.832   6.581   4.702 -1.3257 -1.4175 -0.2461
   44MOL   H24618392   7.950   6.537   4.818  0.5830 -0.0918  0.5553
   44MOL   H24718393   0.122   6.374   4.842 -1.0616  1.4181 -1.0819
   44MOL   H24818394   0.233   6.188   4.969  0.4527  3.0042 -1.1773
   44MOL   H24918395   0.097   5.973   5.010 -0.0185  0.0494  1.4371
   44MOL   H25018396   7.832   5.965   4.940  1.9928 -1.3884 -0.7364
   44MOL   H25118397   7.734   6.155   4.821 -0.7846  1.1681  3.0407
   44MOL   H25218398   7.899   6.704   4.540 -1.0791  0.2505 -0.5157
   44MOL   H25318399   0.069   6.673   4.468  0.2416 -0.7243  0.9961
   44MOL   C25418400   7.876   6.705   4.324 -0.0908 -0.6069 -0.4650
   44MOL   O25518401   7.936   6.647   4.215 -0.3962 -0.2584  0.8248
   44MOL   C25618402   0.097   6.682   4.186 -0.2780  0.6550  0.0306
   44MOL   O25718403   0.098   6.815   4.140  0.3070  0.1849  0.4143
   44MOL   C25818404   0.063   6.832   4.005  0.0799 -0.1261 -0.0217
   44MOL   C25918405   0.132   6.931   3.940  0.6390  0.2658  0.4580
   44MOL   C26018406   0.106   6.960   3.808  0.1215 -0.1138  1.1987
   44MOL   C26118407   0.023   6.872   3.737  0.1530  0.5025  0.0020
   44MOL   C26218408   7.917   6.784   3.801  0.1059 -0.1141  0.4487
   44MOL   C26318409   7.939   6.756   3.941  0.4602  0.4209 -0.7853
   44MOL   C26418410   7.723   6.671   4.309  0.3821 -0.1250  0.2094
   44MOL   H26518411   7.889   6.813   4.317 -0.5618 -0.4771  0.6141
   44MOL   H26618412   0.137   6.612   4.113 -1.2663  0.1399 -0.0247
   44MOL   H26718413   0.160   6.676   4.275  2.3559  1.2419 -1.7437
   44MOL   H26818414   0.202   6.998   3.987 -0.2196  1.8533 -0.5081
   44MOL   H26918415   0.155   7.043   3.760 -0.9315 -0.6883 -0.9591
   44MOL   H27018416   0.008   6.888   3.631  1.8304 -0.0345 -0.3389
   44MOL   H27118417   7.850   6.723   3.743  0.7377 -0.2851 -0.1025
   44MOL   H27218418   7.875   6.684   3.989 -1.4162  1.7617 -1.2121
   44MOL   H27318419   7.697   6.684   4.204  0.9452  1.8776  0.3095
   44MOL   H27418420   7.692   6.570   4.337  1.7072 -1.2746 -2.2921
   44MOL   C27518421   7.625   6.772   4.378  0.0006 -0.3871  0.8355
   44MOL   O27618422   7.511   6.779   4.300  0.0619 -0.1753  0.2506
   44MOL   C27718423   7.493   6.896   4.234  0.1125  0.4687 -0.0866
   44MOL   O27818424   7.602   6.920   4.153 -0.0802  0.0697 -0.0154
   44MOL   C27918425   7.584   6.997   4.037  0.6508  0.2263  0.0274
   44MOL   C28018426   7.464   7.072   4.015 -0.5554  0.2835 -0.3732
   44MOL   C28118427   7.463   7.163   3.911  0.3409 -0.1242  0.9188
   44MOL   C28218428   7.569   7.174   3.822 -0.2891  0.4264  0.0067
   44MOL   C28318429   7.690   7.098   3.842  0.2771  0.1129  0.1372
   44MOL   C28418430   7.697   7.015   3.956  0.3139  0.0222 -0.6367
   44MOL   C28518431   7.587   6.747   4.519  0.0965  0.5281 -0.0097
   44MOL   H28618432   7.677   6.867   4.381 -2.1357  0.7665  3.7807
   44MOL   H28718433   7.484   6.978   4.306 -1.2137  0.0759  0.2160
   44MOL   H28818434   7.391   6.901   4.195  0.3499  2.6943 -0.4771
   44MOL   H28918435   7.379   7.082   4.082 -0.6823  0.2156 -0.5265
   44MOL   H29018436   7.377   7.225   3.891  0.3003  0.1349  1.8483
   44MOL   H29118437   7.557   7.248   3.745 -0.5850 -0.3706 -0.7308
   44MOL   H29218438   7.774   7.124   3.781  0.1289  2.4173  0.8703
   44MOL   H29318439   7.790   6.962   3.971 -0.0572 -0.1399  1.1836
   44MOL   H29418440   7.678   6.740   4.580 -0.9293 -1.2067  1.3723
   44MOL   H29518441   7.548   6.645   4.516  3.1687 -0.6950 -0.5600
   44MOL   C29618442   7.496   6.855   4.591  0.0676  0.4220 -0.6793
   44MOL   O29718443   7.436   6.784   4.697  0.4618 -0.6689 -0.0769
   44MOL   C29818444   7.326   6.706   4.677 -0.4444 -0.0988  0.0156
   44MOL   O29918445   7.212   6.773   4.635  0.0328 -0.1268 -0.1694
   44MOL   C30018446   7.110   6.703   4.582  0.4859 -0.1414 -0.0056
   44MOL   C30118447   7.095   6.562   4.594 -0.5113  0.3895  0.0338
   44MOL   C30218448   6.977   6.500   4.542  0.2123  0.1905 -0.1077
   44MOL   C30318449   6.871   6.583   4.493  0.0517 -0.0060 -0.4859
   44MOL   C30418450   6.891   6.718   4.478 -0.7382  0.4161  0.7032
   44MOL   C30518451   7.005   6.786   4.521 -0.2076  0.5888 -0.7752
   44MOL   C30618452   7.585   6.958   4.665 -0.1029 -0.7891  0.4869
   44MOL   H30718453   7.418   6.900   4.530 -0.1844  0.1925 -0.5287
   44MOL   H30818454   7.302   6.666   4.775  1.1062 -0.2624  0.3430
   44MOL   H30918455   7.360   6.631   4.606 -0.6436 -0.9274  0.7881
   44MOL   H31018456   7.170   6.498   4.637  0.0873  1.4506  0.5791
   44MOL   H31118457   6.958   6.395   4.559  2.4318 -0.1828  0.2752
   44MOL   H31218458   6.780   6.535   4.461 -0.1304  0.7062 -1.0688
   44MOL   H31318459   6.800   6.765   4.443  0.0560 -0.1923 -2.3685
   44MOL   H31418460   7.023   6.892   4.522  0.4326  0.4807 -1.0409
   44MOL   H31518461   7.674   6.975   4.604 -2.4556 -0.8819 -3.1344
   44MOL   H31618462   7.610   6.920   4.764 -0.8019 -1.1887  0.5111
   44MOL   C31718463   7.513   7.102   4.681 -0.4629 -0.2130 -0.1325
   44MOL   O31818464   7.606   7.207   4.653 -0.4171 -0.2739  0.8205
   44MOL   C31918465   7.595   7.272   4.528 -0.4241 -0.3902 -0.8163
   44MOL   O32018466   7.643   7.201   4.419 -0.9548 -0.3278 -0.9531
   44MOL   C32118467   7.776   7.163   4.414  0.0199 -0.5057 -0.1800
   44MOL   C32218468   7.826   7.131   4.288 -0.0177 -0.3632 -0.1230
   44MOL   C32318469   7.962   7.099   4.272 -0.7896  0.0203  0.6713
   44MOL   C32418470   0.066   7.091   4.386 -0.0985 -0.2390 -0.4013
   44MOL   C32518471   0.017   7.127   4.513  0.3770  0.6411 -0.5648
   44MOL   C32618472   7.860   7.169   4.528  0.0559  0.3802  0.1118
   44MOL   C32718473   7.457   7.143   4.817 -0.6313 -0.2160 -0.6266
   44MOL   H32818474   7.432   7.102   4.608  0.4599 -1.1647 -1.1918
   44MOL   H32918475   7.641   7.370   4.533  0.5213 -0.8355 -0.7706
   44MOL   H33018476   7.489   7.286   4.505 -0.0302 -0.5652 -2.8461
   44MOL   H33118477   7.759   7.130   4.204 -1.2732  0.9761  0.8197
   44MOL   H33218478   0.018   7.057   4.178 -0.2027  0.7696  0.5270
   44MOL   H33318479   0.168   7.059   4.376 -0.3034 -0.8409 -0.6034
   44MOL   H33418480   0.078   7.126   4.602 -0.5953 -1.3164  0.1139
   44MOL   H33518481   7.834   7.204   4.627  2.1957  1.4898  0.3014
   44MOL   H33618482   7.508   7.078   4.888 -1.8752 -0.1335  0.3402
   44MOL   H33718483   7.469   7.245   4.851  0.4542 -0.9593  1.2736
   44MOL   C33818484   7.305   7.120   4.827 -0.5356  0.8033 -0.0346
   44MOL   O33918485   7.300   7.125   4.974  0.2874 -0.0650  0.4553
   44MOL   C34018486   7.235   7.015   5.022 -0.3205 -0.1124  0.2957
   44MOL   O34118487   7.312   6.897   5.015 -0.0180  0.1651  0.4236
   44MOL   C34218488   7.430   6.885   5.085 -0.0556  0.6469 -0.4129
   44MOL   C34318489   7.497   6.760   5.059 -0.0230  0.0033 -0.4119
   44MOL   C34418490   7.627   6.743   5.113  0.0403 -1.2917 -0.0007
   44MOL   C34518491   7.692   6.839   5.183  0.2382  0.2355 -0.7504
   44MOL   C34618492   7.632   6.958   5.209 -0.2215 -0.1153  0.2485
   44MOL   C34718493   7.500   6.984   5.164 -0.4396  0.0292  0.1297
   44MOL   C34818494   7.225   7.232   4.747  0.9925  0.7033  0.2593
   44MOL   H34918495   7.281   7.022   4.786  0.0913  0.4616  0.4083
   44MOL   H35018496   7.139   7.008   4.971  0.2596 -2.2982 -0.5634
   44MOL   H35118497   7.216   7.031   5.128 -0.1744 -0.4597  0.3759
   44MOL   H35218498   7.446   6.684   5.001 -0.5946  0.5940 -0.6954
   44MOL   H35318499   7.687   6.657   5.091  0.7636 -1.1798  1.4752
   44MOL   H35418500   7.797   6.834   5.208  0.0287  2.1243  0.6333
   44MOL   H35518501   7.682   7.025   5.278 -1.8254  0.6164  0.7455
   44MOL   H35618502   7.455   7.081   5.185 -1.5558  0.0323 -2.1373
   44MOL   H35718503   7.243   7.219   4.641 -3.2466 -0.1413 -0.4142
   44MOL   H35818504   7.267   7.332   4.761 -0.2318  1.5719 -2.0390
   44MOL   C35918505   7.073   7.239   4.773 -0.6875  0.0791  0.5172
   44MOL   O36018506   7.045   7.230   4.910 -0.1624 -0.1880  0.6137
   44MOL   C36118507   7.071   7.337   4.992  0.0613  0.1825  0.3332
   44MOL   O36218508   7.006   7.449   4.954  0.7708  0.0973 -0.4502
   44MOL   C36318509   6.951   7.532   5.056  0.7960 -0.0868 -0.5464
   44MOL   C36418510   7.030   7.589   5.159  0.3588 -0.4156 -0.4784
   44MOL   C36518511   6.973   7.690   5.243  1.1743 -0.4679 -0.8311
   44MOL   C36618512   6.841   7.733   5.225  0.0532  0.2226  0.1698
   44MOL   C36718513   6.765   7.676   5.123 -0.7231 -0.8598  0.0975
   44MOL   C36818514   6.815   7.574   5.039 -0.3734  0.0425 -0.1961
   44MOL   C36918515   6.991   7.123   4.706 -0.2854 -1.0404  0.2265
   44MOL   H37018516   7.036   7.332   4.729  0.4576  0.3967  0.2194
   44MOL   H37118517   7.177   7.360   4.994  0.0960  0.0137  0.4357
   44MOL   H37218518   7.036   7.306   5.090 -2.5742  2.1618  0.0622
   44MOL   H37318519   7.132   7.558   5.177  1.1065  0.6458 -2.7113
   44MOL   H37418520   7.031   7.726   5.327 -1.1210  1.3547  0.0368
   44MOL   H37518521   6.808   7.810   5.293  1.8132  1.5451 -0.4344
   44MOL   H37618522   6.662   7.708   5.120 -0.5935 -0.4556 -0.0622
   44MOL   H37718523   6.758   7.520   4.965  2.3179 -0.9112 -1.6550
   44MOL   H37818524   7.031   7.029   4.742  0.7618 -0.8332 -0.3675
   44MOL   H37918525   7.024   7.125   4.602  1.3832 -0.3778  0.7576
   44MOL   C38018526   6.840   7.129   4.705 -0.4155 -0.8872  0.4869
   44MOL   O38118527   6.785   7.071   4.823  0.8431  0.2378 -0.4299
   44MOL   C38218528   6.736   7.155   4.924  0.5844  0.7723  0.1960
   44MOL   O38318529   6.624   7.226   4.872  0.0581  0.4274  0.2697
   44MOL   C38418530   6.557   7.310   4.958 -0.6188  0.5424 -0.0795
   44MOL   C38518531   6.583   7.304   5.104 -0.7667  0.4404  0.1417
   44MOL   C38618532   6.514   7.395   5.189  0.4401 -0.2065  0.6596
   44MOL   C38718533   6.417   7.484   5.136 -0.0371 -0.3983 -0.7486
   44MOL   C38818534   6.387   7.476   4.996  0.1344  0.4305  0.2863
   44MOL   C38918535   6.456   7.393   4.908  0.4862  0.0459  0.0140
   44MOL   C39018536   6.769   7.039   4.600  0.1125 -0.3815 -0.1420
   44MOL   H39118537   6.820   7.236   4.704  0.5314 -0.6989  1.4582
   44MOL   H39218538   6.694   7.090   5.001  1.8724 -0.2305  0.0567
   44MOL   H39318539   6.808   7.222   4.970  1.9152  0.4850 -1.4075
   44MOL   H39418540   6.663   7.251   5.153 -0.3580  1.8549  1.0459
   44MOL   H39518541   6.544   7.389   5.293  1.2402 -2.1894  0.3396
   44MOL   H39618542   6.364   7.555   5.197  0.5483  1.7331 -2.6535
   44MOL   H39718543   6.310   7.539   4.955 -1.9773 -2.4117 -0.2245
   44MOL   H39818544   6.449   7.388   4.800  2.5524 -1.1034 -0.0901
   44MOL   H39918545   6.763   6.943   4.651  1.7277 -1.1344 -1.3388
   44MOL   H40018546   6.838   7.027   4.517  2.3700 -0.9879  1.7524
   44MOL   C40118547   6.632   7.089   4.560 -0.0909  0.1705 -1.0215
   44MOL   O40218548   6.651   7.215   4.499  0.2674  0.5024  0.0632
   44MOL   C40318549   6.533   7.293   4.485 -0.1146 -0.2981 -0.3770
   44MOL   O40418550   6.551   7.423   4.437 -0.5061 -0.0408 -0.0190
   44MOL   C40518551   6.645   7.503   4.498 -0.1870  0.0403 -0.2213
   44MOL   C40618552   6.685   7.616   4.423 -0.7847  0.2119  0.0624
   44MOL   C40718553   6.802   7.689   4.459  0.0957  0.1980 -0.2723
   44MOL   C40818554   6.874   7.641   4.573 -0.0189  0.6566 -0.6955
   44MOL   C40918555   6.825   7.539   4.652  0.1418  0.7123  0.4173
   44MOL   C41018556   6.707   7.470   4.615 -0.3313 -0.5425  0.4029
   44MOL   C41118557   6.560   6.984   4.470 -0.3353  0.2064  0.6123
   44MOL   H41218558   6.567   7.103   4.646  1.1356 -0.8905  0.1210
   44MOL   H41318559   6.489   7.304   4.585  1.6882  0.9267  0.3020
   44MOL   H41418560   6.450   7.253   4.427  0.0071 -2.0734  0.6448
   44MOL   H41518561   6.625   7.656   4.343  0.6950  0.7190 -0.8278
   44MOL   H41618562   6.830   7.783   4.413  0.2487  0.1797 -0.2184
   44MOL   H41718563   6.971   7.682   4.597 -1.3922  2.3410  2.1794
   44MOL   H41818564   6.885   7.503   4.734 -1.4354 -1.3009  0.7135
   44MOL   H41918565   6.679   7.390   4.682  0.1806 -2.2603 -1.3835
   44MOL   H42018566   6.635   6.965   4.393 -0.2776 -0.5647  0.8614
   44MOL   H42118567   6.465   7.026   4.435 -0.5690 -0.3137  0.6106
   44MOL   H42218568   6.550   6.890   4.525  1.6211  0.0337  0.6992
   45MOL     C118569   5.067   2.718   4.280 -0.0842  0.1906  0.6243
   45MOL     O218570   4.978   2.608   4.301  0.1957 -0.1939 -0.1072
   45MOL     C318571   5.036   2.508   4.373  0.5984  0.2585  0.1798
   45MOL     O418572   5.099   2.539   4.497  0.1639 -0.1075 -0.2547
   45MOL     C518573   5.019   2.577   4.600  0.4977 -0.2474 -0.5485
   45MOL     C618574   4.883   2.562   4.616 -0.3919  1.1524 -0.7298
   45MOL     C718575   4.819   2.614   4.730 -0.5075  0.7491 -0.0538
   45MOL     C818576   4.892   2.673   4.830  0.4646  0.0465 -0.3550
   45MOL     C918577   5.026   2.682   4.825 -0.4833 -0.0690 -0.1660
   45MOL    C1018578   5.089   2.635   4.709  0.0773 -0.8739 -0.2177
   45MOL    C1118579   5.004   2.789   4.161  0.4928  0.7742  0.0059
   45MOL    H1218580   5.078   2.783   4.367  3.1893  0.3264  0.1636
   45MOL    H1318581   4.967   2.426   4.391 -0.9673  1.7647  1.2041
   45MOL    H1418582   5.100   2.452   4.304 -2.0439  0.7301 -2.7728
   45MOL    H1518583   4.839   2.488   4.551  0.4837  0.2685 -0.3329
   45MOL    H1618584   4.712   2.598   4.741 -0.2813 -0.4900  0.4041
   45MOL    H1718585   4.843   2.714   4.918 -0.4191 -1.5725 -0.0631
   45MOL    H1818586   5.072   2.734   4.908  0.3785  0.4720 -0.9835
   45MOL    H1918587   5.196   2.639   4.698 -0.0293 -0.1352 -1.0664
   45MOL    H2018588   4.912   2.832   4.201 -0.1780 -1.0621  0.4923
   45MOL    H2118589   4.975   2.715   4.087 -1.5221  3.4108 -1.9908
   45MOL    H2218590   5.166   2.687   4.246 -0.9179  0.6315 -2.3451
   45MOL    C2318591   5.103   2.889   4.097 -1.2244  0.4288 -0.2474
   45MOL    O2418592   5.115   2.997   4.183  0.1217  0.4623 -0.8449
   45MOL    C2518593   5.244   3.060   4.185 -0.2054  0.2216 -1.0501
   45MOL    O2618594   5.337   2.980   4.254  0.8948 -0.0645 -0.1951
   45MOL    C2718595   5.302   2.954   4.388  0.4552  0.0260  1.0836
   45MOL    C2818596   5.195   3.006   4.459  0.3081  0.6940 -0.3281
   45MOL    C2918597   5.179   2.996   4.599 -0.4425  0.1779 -0.2485
   45MOL    C3018598   5.271   2.921   4.673 -0.3618 -0.0599 -0.2504
   45MOL    C3118599   5.380   2.864   4.602 -0.5775 -0.7138 -0.5725
   45MOL    C3218600   5.394   2.873   4.462  0.1442 -0.8447 -0.1078
   45MOL    C3318601   5.050   2.944   3.968  0.6299 -0.0265 -0.5770
   45MOL    H3418602   5.198   2.837   4.091  0.1659  3.0244 -0.9589
   45MOL    H3518603   5.233   3.148   4.248  0.1425 -1.0001  0.7516
   45MOL    H3618604   5.267   3.083   4.081 -0.2688 -2.9465 -1.8160
   45MOL    H3718605   5.130   3.073   4.405 -0.7714 -0.2178 -0.1755
   45MOL    H3818606   5.090   3.028   4.651 -0.3158 -1.3663  0.9642
   45MOL    H3918607   5.256   2.914   4.780  0.8141 -1.9137 -0.1922
   45MOL    H4018608   5.452   2.817   4.667  1.1969  2.1521 -0.4005
   45MOL    H4118609   5.463   2.808   4.410 -0.0494  0.0215 -1.4705
   45MOL    H4218610   5.125   3.011   3.927  1.1753  1.7106  3.0779
   45MOL    H4318611   4.959   3.004   3.980  1.0180  0.5783 -0.6040
   45MOL    C4418612   5.020   2.836   3.857  0.6248 -0.2519 -0.2257
   45MOL    O4518613   5.132   2.747   3.858  0.8122 -0.1808  0.0187
   45MOL    C4618614   5.094   2.611   3.865 -0.7838 -0.0457  0.4674
   45MOL    O4718615   5.073   2.559   3.734 -0.5886 -0.0017 -0.1260
   45MOL    C4818616   5.110   2.432   3.702  0.0564  0.0040 -0.2435
   45MOL    C4918617   5.112   2.406   3.568  0.1208 -0.2374 -0.1555
   45MOL    C5018618   5.116   2.274   3.518 -0.5158  0.7189  0.1128
   45MOL    C5118619   5.139   2.168   3.612  0.6763  0.4089 -0.1751
   45MOL    C5218620   5.155   2.192   3.748 -0.8009 -0.3693 -0.0932
   45MOL    C5318621   5.141   2.327   3.792  0.5801 -0.3790  0.4396
   45MOL    C5418622   5.002   2.893   3.718 -0.4827  0.1811 -0.0901
   45MOL    H5518623   4.925   2.786   3.880 -1.1263  2.3333 -1.6131
   45MOL    H5618624   5.003   2.595   3.924 -0.9586 -1.1275 -0.0937
   45MOL    H5718625   5.179   2.571   3.920  0.1869  1.2032 -0.0832
   45MOL    H5818626   5.091   2.481   3.493  1.2289  1.4052  1.1143
   45MOL    H5918627   5.106   2.248   3.414 -1.4470 -3.4529  1.1402
   45MOL    H6018628   5.149   2.062   3.591  2.4630  0.5308 -0.0804
   45MOL    H6118629   5.177   2.111   3.816  0.8396 -0.3947 -0.6299
   45MOL    H6218630   5.142   2.349   3.897  1.0012  1.8781 -0.0192
   45MOL    H6318631   5.070   2.976   3.705 -0.7542  0.5395  0.7154
   45MOL    H6418632   5.042   2.817   3.651  1.1190  0.1148  0.9110
   45MOL    C6518633   4.857   2.923   3.664 -0.0083 -0.4112 -0.4250
   45MOL    O6618634   4.767   2.809   3.680 -0.3661 -0.5593  0.7168
   45MOL    C6718635   4.755   2.723   3.568  0.3141 -0.4669  0.4432
   45MOL    O6818636   4.737   2.775   3.441  0.0593  0.4326 -0.4096
   45MOL    C6918637   4.619   2.836   3.407  0.0018  0.0113 -0.3106
   45MOL    C7018638   4.611   2.898   3.281  0.2550  0.1509  1.1056
   45MOL    C7118639   4.502   2.976   3.247  0.3094 -0.7131  0.0559
   45MOL    C7218640   4.389   2.983   3.332  0.4496 -0.0024  0.1371
   45MOL    C7318641   4.390   2.919   3.452 -0.1072 -0.4901 -0.3598
   45MOL    C7418642   4.505   2.845   3.493  0.5924 -0.2709  0.7690
   45MOL    C7518643   4.794   3.048   3.729  0.3133  0.0494  0.4299
   45MOL    H7618644   4.858   2.952   3.559 -3.3062  1.0630 -0.1144
   45MOL    H7718645   4.697   2.633   3.586  4.4105 -3.0854  1.2350
   45MOL    H7818646   4.852   2.674   3.560  1.0147  0.7854  1.0189
   45MOL    H7918647   4.689   2.887   3.208 -1.9100  1.2177 -1.4413
   45MOL    H8018648   4.501   3.036   3.157 -1.2484 -0.5377  0.1650
   45MOL    H8118649   4.295   3.029   3.303  0.9760  1.6209  0.9523
   45MOL    H8218650   4.303   2.931   3.515 -0.4730  2.1176 -1.2646
   45MOL    H8318651   4.499   2.795   3.588 -1.0007  2.1155  1.9564
   45MOL    H8418652   4.745   3.029   3.824  1.6150 -1.9435  0.7350
   45MOL    H8518653   4.876   3.111   3.763 -1.1836  1.2312  1.9000
   45MOL    C8618654   4.702   3.132   3.633  0.3902 -0.1918  0.4458
   45MOL    O8718655   4.624   3.222   3.712 -0.0753  0.1485 -0.2106
   45MOL    C8818656   4.496   3.176   3.753  0.4531  0.0355 -0.1887
   45MOL    O8918657   4.512   3.053   3.815 -0.3346 -0.7952 -0.1855
   45MOL    C9018658   4.423   2.954   3.799  0.6712 -0.6166  0.5100
   45MOL    C9118659   4.291   2.977   3.754 -0.1109 -0.0018  0.6149
   45MOL    C9218660   4.194   2.873   3.742  0.1810  0.2764  0.1644
   45MOL    C9318661   4.238   2.740   3.769  0.7319  0.4052 -0.0688
   45MOL    C9418662   4.364   2.723   3.831 -0.0810  0.1695  0.3088
   45MOL    C9518663   4.460   2.828   3.837 -0.6764  0.0122 -0.5442
   45MOL    C9618664   4.768   3.202   3.517 -0.9082  0.2422 -0.0297
   45MOL    H9718665   4.636   3.058   3.587 -0.2556 -0.3215  1.5632
   45MOL    H9818666   4.437   3.170   3.661  0.3854  1.6754 -0.2515
   45MOL    H9918667   4.448   3.241   3.826 -0.2801 -0.1496 -0.4934
   45MOL   H10018668   4.255   3.078   3.739  1.1994  0.2823 -0.6379
   45MOL   H10118669   4.095   2.884   3.701 -0.2387 -2.7009  0.2673
   45MOL   H10218670   4.176   2.652   3.771  2.1593 -0.5824  3.0619
   45MOL   H10318671   4.401   2.632   3.875 -1.7378 -0.0509  1.3029
   45MOL   H10418672   4.559   2.801   3.869 -0.5414 -2.7030 -2.9712
   45MOL   H10518673   4.785   3.132   3.435 -1.8972  0.9663 -0.8579
   45MOL   H10618674   4.693   3.267   3.472 -0.6365  0.4446 -0.1914
   45MOL   C10718675   4.898   3.291   3.528 -1.1650  0.2072 -0.5792
   45MOL   O10818676   5.015   3.208   3.544  0.1088  0.6336 -0.1066
   45MOL   C10918677   5.103   3.252   3.641  0.3471 -0.7785  0.1890
   45MOL   O11018678   5.034   3.272   3.769 -0.4106  1.1342 -0.2632
   45MOL   C11118679   5.098   3.337   3.873  0.7524 -0.2697  0.5872
   45MOL   C11218680   5.235   3.379   3.869  0.8078 -0.1152 -0.6682
   45MOL   C11318681   5.293   3.451   3.978  0.0116 -0.2158 -0.6134
   45MOL   C11418682   5.226   3.474   4.096  0.0251 -0.1761  0.0316
   45MOL   C11518683   5.091   3.433   4.099  0.6414 -0.3663 -0.8569
   45MOL   C11618684   5.034   3.353   3.995  0.4184  0.3965  0.6189
   45MOL   C11718685   4.926   3.378   3.406 -0.5606  0.1321 -0.0704
   45MOL   H11818686   4.882   3.343   3.623 -1.8699 -1.1536  0.0697
   45MOL   H11918687   5.156   3.337   3.599 -2.1445  1.1647  0.8619
   45MOL   H12018688   5.182   3.178   3.652  1.6028  0.3217 -1.2828
   45MOL   H12118689   5.289   3.356   3.778  0.9897  1.4138 -0.9769
   45MOL   H12218690   5.397   3.481   3.972 -0.9056  3.0198 -0.9117
   45MOL   H12318691   5.279   3.510   4.183  0.9446  1.1908 -1.0755
   45MOL   H12418692   5.019   3.435   4.179  0.6576  0.1489 -0.8559
   45MOL   H12518693   4.932   3.318   4.002  0.7367 -0.3455  1.6818
   45MOL   H12618694   5.019   3.431   3.426 -0.8201  1.1934 -1.5709
   45MOL   H12718695   4.845   3.451   3.397  1.2407  2.0476 -1.3618
   45MOL   C12818696   4.944   3.302   3.269 -0.1951  0.5670 -0.3830
   45MOL   O12918697   5.054   3.374   3.202 -0.6157  0.2346  0.3550
   45MOL   C13018698   5.183   3.329   3.239 -0.3634 -0.1942 -0.0563
   45MOL   O13118699   5.217   3.200   3.191 -0.4619 -0.0587 -0.5037
   45MOL   C13218700   5.269   3.192   3.063 -0.2110 -0.0443 -0.2282
   45MOL   C13318701   5.347   3.082   3.035  0.7689 -0.5562 -0.6501
   45MOL   C13418702   5.399   3.061   2.906  0.2196 -0.0694  0.0027
   45MOL   C13518703   5.395   3.164   2.809  0.4825 -0.3082  0.4495
   45MOL   C13618704   5.321   3.281   2.841  0.4134 -0.1773 -0.6624
   45MOL   C13718705   5.261   3.293   2.963  0.9510 -0.4521  0.6493
   45MOL   C13818706   4.825   3.309   3.178  0.0862 -0.1237  0.8798
   45MOL   H13918707   4.971   3.197   3.284  2.1838  0.9697 -1.5284
   45MOL   H14018708   5.188   3.321   3.347  0.3012  0.8207 -0.0054
   45MOL   H14118709   5.249   3.411   3.210 -0.8617  0.6343  1.1166
   45MOL   H14218710   5.362   3.017   3.120 -1.1270 -1.6607 -1.1165
   45MOL   H14318711   5.447   2.970   2.876 -0.7096 -0.8442  0.8162
   45MOL   H14418712   5.438   3.161   2.710 -2.1957  0.7123 -0.8086
   45MOL   H14518713   5.313   3.361   2.770  0.7302 -0.8040 -1.4166
   45MOL   H14618714   5.206   3.386   2.973 -1.7979 -1.8951 -0.5166
   45MOL   H14718715   4.729   3.282   3.222 -1.4113 -0.0983 -2.2260
   45MOL   H14818716   4.819   3.412   3.145 -2.7887 -0.8497 -1.1000
   45MOL   C14918717   4.840   3.223   3.050 -0.5923  0.5091 -0.9101
   45MOL   O15018718   4.810   3.087   3.082  0.1436 -0.3566  0.3652
   45MOL   C15118719   4.859   2.994   2.993 -0.2476 -0.0315 -0.0714
   45MOL   O15218720   4.778   2.968   2.880  0.0766 -0.0206  1.6084
   45MOL   C15318721   4.781   2.846   2.818  0.0794  0.2228 -0.0027
   45MOL   C15418722   4.682   2.819   2.725  0.5195 -0.0791  0.3352
   45MOL   C15518723   4.673   2.687   2.666 -0.8490 -0.4306  0.2177
   45MOL   C15618724   4.774   2.594   2.690 -0.0394 -0.2111 -0.2834
   45MOL   C15718725   4.879   2.624   2.775  0.0594  0.0698  0.0013
   45MOL   C15818726   4.882   2.747   2.847  0.3761  0.2960  0.0628
   45MOL   C15918727   4.769   3.282   2.932 -0.0395 -0.3556 -0.0122
   45MOL   H16018728   4.944   3.235   3.021 -0.5571 -0.3825 -1.1578
   45MOL   H16118729   4.960   3.016   2.960 -0.7414  2.2959 -0.1810
   45MOL   H16218730   4.872   2.904   3.053 -2.0165  1.5590  2.8450
   45MOL   H16318731   4.611   2.894   2.694 -0.6156 -0.9009  0.8940
   45MOL   H16418732   4.605   2.654   2.589 -0.6281 -1.6763  0.5420
   45MOL   H16518733   4.778   2.495   2.649 -3.8587 -1.6866  2.5894
   45MOL   H16618734   4.951   2.544   2.782 -2.0531 -2.2798 -3.2882
   45MOL   H16718735   4.956   2.761   2.924 -2.2530  0.2537  2.7010
   45MOL   H16818736   4.662   3.273   2.950  0.0078 -1.6198 -0.3861
   45MOL   H16918737   4.783   3.217   2.846 -1.2001  0.4538 -0.8328
   45MOL   C17018738   4.778   3.425   2.884 -0.8238  0.0671  0.3455
   45MOL   O17118739   4.703   3.508   2.983 -0.0556  0.5222  0.3509
   45MOL   C17218740   4.594   3.568   2.928  0.4700 -0.4137 -0.8480
   45MOL   O17318741   4.620   3.659   2.826  0.6130 -0.2627  0.2448
   45MOL   C17418742   4.520   3.748   2.788 -0.4825  0.7668 -0.3974
   45MOL   C17518743   4.381   3.718   2.804 -0.7235  1.0083 -0.6193
   45MOL   C17618744   4.292   3.820   2.756 -0.2250  0.1884 -0.3970
   45MOL   C17718745   4.336   3.943   2.708 -0.5417  0.4782 -0.4120
   45MOL   C17818746   4.470   3.983   2.715  0.2125  0.7075 -0.3879
   45MOL   C17918747   4.562   3.883   2.758  0.5464 -0.4268  0.3031
   45MOL   C18018748   4.919   3.480   2.888  0.1384  0.5508  0.5183
   45MOL   H18118749   4.733   3.449   2.788  0.7634 -1.0445 -0.6862
   45MOL   H18218750   4.531   3.622   2.998 -0.0528 -1.8285 -0.2117
   45MOL   H18318751   4.537   3.493   2.873 -1.2092  0.7802 -0.7743
   45MOL   H18418752   4.349   3.621   2.841  0.6995  1.3686  1.6798
   45MOL   H18518753   4.185   3.820   2.741 -0.3034  2.5461 -0.0211
   45MOL   H18618754   4.264   4.019   2.679  1.0258  1.2274 -2.4576
   45MOL   H18718755   4.494   4.085   2.691  0.5579  0.2623 -2.0025
   45MOL   H18818756   4.668   3.904   2.762  0.4564 -0.2528  2.3559
   45MOL   H18918757   4.946   3.509   2.990  2.1108  0.8280 -0.0642
   45MOL   H19018758   4.987   3.403   2.851 -1.8557  0.1598 -2.4910
   45MOL   C19118759   4.944   3.599   2.802  0.1296  0.4841  0.6435
   45MOL   O19218760   4.954   3.554   2.670  0.6077  0.0646 -0.3524
   45MOL   C19318761   4.857   3.587   2.582  0.6428  0.1109  0.7716
   45MOL   O19418762   4.847   3.731   2.567 -0.4690 -0.1758 -0.7375
   45MOL   C19518763   4.775   3.781   2.459 -0.1748  0.2359  0.1223
   45MOL   C19618764   4.726   3.912   2.476  0.8766 -0.5184 -1.0623
   45MOL   C19718765   4.641   3.969   2.381 -0.0221 -0.4786 -0.3114
   45MOL   C19818766   4.605   3.893   2.267 -0.1121 -0.1517 -0.5366
   45MOL   C19918767   4.665   3.771   2.244 -0.9395  0.9451 -0.5840
   45MOL   C20018768   4.746   3.708   2.344  0.1772  0.0484  0.4488
   45MOL   C20118769   5.089   3.652   2.836  0.3004 -0.5378  1.2601
   45MOL   H20218770   4.863   3.669   2.820  0.6314  0.8855  1.3915
   45MOL   H20318771   4.757   3.543   2.587  0.6086  0.0352 -0.5685
   45MOL   H20418772   4.902   3.544   2.493 -0.7885  0.6449 -0.2207
   45MOL   H20518773   4.747   3.968   2.566  1.6390 -0.1210 -1.4833
   45MOL   H20618774   4.589   4.061   2.403  0.7998 -0.9727  4.1707
   45MOL   H20718775   4.531   3.929   2.197  0.1684  2.4720  0.4646
   45MOL   H20818776   4.654   3.720   2.149  2.0598 -1.2934  0.1885
   45MOL   H20918777   4.787   3.612   2.313 -1.2886  0.3789 -2.7399
   45MOL   H21018778   5.108   3.666   2.943  0.5929 -0.8805  1.2545
   45MOL   H21118779   5.162   3.578   2.803  2.7140  1.7868  1.1915
   45MOL   C21218780   5.124   3.789   2.764 -0.6248  0.2191  0.0571
   45MOL   O21318781   5.025   3.892   2.801 -0.8760  0.1399 -0.6905
   45MOL   C21418782   5.015   3.992   2.702  0.5446  0.0407  0.1002
   45MOL   O21518783   5.115   4.089   2.717  0.0404 -0.5529 -0.0249
   45MOL   C21618784   5.117   4.179   2.612  0.2897 -0.9491  0.6111
   45MOL   C21718785   5.008   4.206   2.523 -0.2089  0.1398  0.0154
   45MOL   C21818786   5.018   4.305   2.426  0.1408  0.1919 -0.5644
   45MOL   C21918787   5.141   4.374   2.405 -0.3618 -0.2394  0.4423
   45MOL   C22018788   5.254   4.345   2.485  0.4931  0.2354 -0.2193
   45MOL   C22118789   5.241   4.246   2.591 -0.0168 -0.3306  0.2535
   45MOL   C22218790   5.264   3.838   2.811 -0.2837  0.1061  0.2540
   45MOL   H22318791   5.133   3.768   2.657  2.5449 -0.4097  0.4043
   45MOL   H22418792   4.917   4.035   2.719  0.3819  0.5899 -2.1146
   45MOL   H22518793   5.024   3.947   2.603 -1.4435  1.1249 -0.5819
   45MOL   H22618794   4.919   4.145   2.520  1.8588 -3.1492  1.4938
   45MOL   H22718795   4.939   4.318   2.355  0.0879  0.6446 -0.4297
   45MOL   H22818796   5.150   4.443   2.322 -0.7751 -2.5080 -1.5545
   45MOL   H22918797   5.346   4.400   2.472  0.8253 -0.9278 -3.1763
   45MOL   H23018798   5.321   4.232   2.662 -0.2291 -1.5961  0.2466
   45MOL   H23118799   5.290   3.933   2.765  2.2712 -1.0526 -0.7641
   45MOL   H23218800   5.268   3.869   2.916  1.9111 -0.2781  0.2954
   45MOL   C23318801   5.388   3.745   2.780  0.0810 -0.5724  0.7356
   45MOL   O23418802   5.375   3.706   2.642  0.4467 -0.6569  0.4083
   45MOL   C23518803   5.460   3.776   2.557 -0.6487  0.9353 -0.1852
   45MOL   O23618804   5.458   3.914   2.562 -0.0835 -0.3552  0.4527
   45MOL   C23718805   5.545   3.985   2.477  0.4947  0.6268 -0.1484
   45MOL   C23818806   5.634   3.924   2.384  0.0473 -0.4198  0.6310
   45MOL   C23918807   5.727   4.008   2.317  0.3884 -0.8193 -0.0465
   45MOL   C24018808   5.726   4.145   2.336 -0.1701 -0.3358 -0.3807
   45MOL   C24118809   5.635   4.204   2.422 -1.0924 -0.1420  0.1524
   45MOL   C24218810   5.547   4.122   2.493  0.0370  0.5275 -0.3347
   45MOL   C24318811   5.521   3.794   2.835  0.0031 -0.0681  0.2390
   45MOL   H24418812   5.361   3.652   2.829 -0.0886 -1.0894 -0.3301
   45MOL   H24518813   5.434   3.737   2.458  1.2655  1.8488 -1.0709
   45MOL   H24618814   5.557   3.727   2.566  0.2039  1.8030 -3.8070
   45MOL   H24718815   5.621   3.822   2.354  0.7874 -1.1827  2.8184
   45MOL   H24818816   5.794   3.968   2.242  0.1952  1.9210 -1.7479
   45MOL   H24918817   5.793   4.210   2.281  0.7367 -0.8930  0.0735
   45MOL   H25018818   5.631   4.308   2.449 -0.1799 -0.6051  2.0721
   45MOL   H25118819   5.494   4.171   2.574  0.1197  1.5076 -0.8633
   45MOL   H25218820   5.598   3.728   2.797  0.4152 -0.1143  1.1352
   45MOL   H25318821   5.543   3.893   2.794  0.6544 -0.4473 -0.3410
   45MOL   C25418822   5.525   3.783   2.985 -0.1184 -1.2215 -0.0042
   45MOL   O25518823   5.491   3.653   3.017 -0.0411 -0.5162 -0.0294
   45MOL   C25618824   5.439   3.625   3.142  0.0083 -0.1067  1.0044
   45MOL   O25718825   5.315   3.679   3.170  0.1646  0.8547  0.3376
   45MOL   C25818826   5.266   3.667   3.298 -0.7724  0.9048 -0.5118
   45MOL   C25918827   5.139   3.721   3.332 -0.3974  0.1243  0.0758
   45MOL   C26018828   5.083   3.701   3.457  0.4618 -0.1086  0.4806
   45MOL   C26118829   5.156   3.621   3.549 -0.2502 -0.0210 -0.2954
   45MOL   C26218830   5.287   3.572   3.525  1.1167 -0.8278  0.1731
   45MOL   C26318831   5.342   3.598   3.397  0.2193 -0.1221 -0.2382
   45MOL   C26418832   5.664   3.825   3.033  0.2030 -0.1258 -0.6902
   45MOL   H26518833   5.453   3.853   3.026  0.7221  0.1982 -0.9030
   45MOL   H26618834   5.510   3.658   3.218  0.1369  1.2894  0.2859
   45MOL   H26718835   5.417   3.518   3.146 -0.5037  0.0052  1.2074
   45MOL   H26818836   5.088   3.779   3.257 -0.6536 -1.1432 -0.7472
   45MOL   H26918837   4.984   3.735   3.483  0.7239  0.7791  0.3172
   45MOL   H27018838   5.118   3.607   3.649 -1.0593  0.5730 -0.5137
   45MOL   H27118839   5.349   3.528   3.602  1.6351  0.1920  0.3399
   45MOL   H27218840   5.444   3.563   3.386  0.6707  1.3658 -0.9183
   45MOL   H27318841   5.727   3.744   2.995 -0.1942 -0.5149 -0.5214
   45MOL   H27418842   5.697   3.919   2.990 -0.1919  1.1449  1.7000
   45MOL   C27518843   5.689   3.836   3.183 -0.0368  0.2921  0.1957
   45MOL   O27618844   5.815   3.889   3.191  0.0514  0.2371  0.3994
   45MOL   C27718845   5.930   3.816   3.212  0.0618  0.2937 -0.2727
   45MOL   O27818846   5.921   3.754   3.336 -0.3584 -0.1928  0.2516
   45MOL   C27918847   6.018   3.658   3.358  0.0498  0.0661  0.5612
   45MOL   C28018848   6.027   3.605   3.484  0.5142  0.5056  0.0038
   45MOL   C28118849   6.126   3.508   3.512  0.1771 -0.0363  0.3352
   45MOL   C28218850   6.207   3.453   3.411 -0.0901 -0.3616  0.0486
   45MOL   C28318851   6.197   3.497   3.278  0.3256 -0.4406 -0.1862
   45MOL   C28418852   6.113   3.612   3.261 -0.1368 -0.2478  1.0362
   45MOL   C28518853   5.599   3.938   3.254 -0.2037  0.3097 -0.4550
   45MOL   H28618854   5.697   3.737   3.228  2.2656  0.1893 -0.3380
   45MOL   H28718855   6.008   3.890   3.197  0.3265 -0.3665 -2.3236
   45MOL   H28818856   5.932   3.744   3.130  0.2599 -0.2235  0.1825
   45MOL   H28918857   5.967   3.645   3.564 -1.2420 -1.4924 -0.2595
   45MOL   H29018858   6.124   3.471   3.614 -0.9324 -1.1779 -0.0855
   45MOL   H29118859   6.259   3.364   3.443  0.3567 -0.5311 -1.1027
   45MOL   H29218860   6.262   3.457   3.201  1.4926  0.1556  0.4821
   45MOL   H29318861   6.104   3.651   3.160 -1.3772  0.4844  1.4209
   45MOL   H29418862   5.498   3.896   3.247 -0.8008  1.6783 -0.3209
   45MOL   H29518863   5.593   4.031   3.197 -1.6313  0.8109  0.4787
   45MOL   C29618864   5.648   3.967   3.398 -0.4572 -0.1618  0.0483
   45MOL   O29718865   5.695   4.102   3.417  0.3474  0.6236  0.5693
   45MOL   C29818866   5.824   4.134   3.380  0.1812 -0.4867  0.5270
   45MOL   O29918867   5.837   4.273   3.370 -0.0894 -0.2207 -0.2560
   45MOL   C30018868   5.842   4.358   3.484 -0.2293  0.0407  0.2678
   45MOL   C30118869   5.897   4.314   3.604 -0.3634 -0.2828  0.6550
   45MOL   C30218870   5.927   4.408   3.705 -0.0271 -0.0590  0.7932
   45MOL   C30318871   5.895   4.544   3.684 -0.4285 -0.0104  0.3876
   45MOL   C30418872   5.825   4.584   3.567 -0.2972 -0.7587  0.0176
   45MOL   C30518873   5.814   4.491   3.464  0.2233  0.0601 -0.9037
   45MOL   C30618874   5.541   3.932   3.503  0.3544 -0.3110 -0.2858
   45MOL   H30718875   5.730   3.902   3.426  0.0518  1.3202  2.0652
   45MOL   H30818876   5.838   4.108   3.274  2.6230  1.7603  0.2463
   45MOL   H30918877   5.903   4.088   3.439  0.9366  0.1266  0.0061
   45MOL   H31018878   5.926   4.210   3.615 -4.8601 -1.8145 -1.1010
   45MOL   H31118879   5.968   4.372   3.798  1.1213  0.3020  0.4376
   45MOL   H31218880   5.944   4.612   3.753  3.1628 -1.3595 -0.7356
   45MOL   H31318881   5.806   4.689   3.557 -0.1267 -0.7731 -0.4368
   45MOL   H31418882   5.774   4.521   3.369 -1.0180 -1.4647 -0.8904
   45MOL   H31518883   5.518   3.827   3.487 -2.7837  0.6032 -2.1806
   45MOL   H31618884   5.445   3.983   3.496  0.7597  0.7974  1.8583
   45MOL   C31718885   5.596   3.944   3.644 -0.3434 -0.8224  0.0173
   45MOL   O31818886   5.528   3.847   3.732 -0.2909 -0.1916  0.4836
   45MOL   C31918887   5.595   3.726   3.744 -0.1914 -0.1704 -0.1539
   45MOL   O32018888   5.713   3.736   3.820  0.2418 -0.4738 -0.3581
   45MOL   C32118889   5.699   3.730   3.953 -0.1037 -0.2252  0.1290
   45MOL   C32218890   5.587   3.770   4.026  0.4210 -0.1614  0.0512
   45MOL   C32318891   5.583   3.745   4.164  0.2463  1.0928 -0.5204
   45MOL   C32418892   5.697   3.705   4.241 -0.7103  0.0427  0.1653
   45MOL   C32518893   5.813   3.679   4.162 -0.2807  0.0082 -0.5710
   45MOL   C32618894   5.816   3.700   4.021  0.5940 -0.5293  0.2061
   45MOL   C32718895   5.585   4.089   3.689  0.0201  0.3261  0.5293
   45MOL   H32818896   5.702   3.920   3.654  0.0613  0.5238 -0.8698
   45MOL   H32918897   5.623   3.691   3.645  0.1212  1.0870 -0.5172
   45MOL   H33018898   5.539   3.647   3.794  1.4270 -0.0537  1.8895
   45MOL   H33118899   5.499   3.819   3.986  0.8773  2.0020  1.6094
   45MOL   H33218900   5.498   3.774   4.223  0.8759 -0.0749  0.9824
   45MOL   H33318901   5.706   3.703   4.349 -0.9971  0.6936  0.2017
   45MOL   H33418902   5.906   3.651   4.209 -1.6106 -2.1024  0.9472
   45MOL   H33518903   5.913   3.680   3.977 -0.0699 -0.5803 -1.2413
   45MOL   H33618904   5.630   4.148   3.609 -0.5288 -1.0348 -0.7997
   45MOL   H33718905   5.479   4.112   3.695  0.1243  0.3216  2.9292
   45MOL   C33818906   5.646   4.123   3.823 -0.2286 -0.2162 -0.0487
   45MOL   O33918907   5.787   4.101   3.796  0.6233  0.3145 -0.6535
   45MOL   C34018908   5.860   4.058   3.905  0.0082 -0.4295 -0.0322
   45MOL   O34118909   5.914   4.158   3.976 -0.7565  0.0537 -0.5286
   45MOL   C34218910   6.018   4.118   4.060  0.2833 -0.1434  0.0205
   45MOL   C34318911   6.130   4.205   4.073 -0.3446  0.2708 -0.4783
   45MOL   C34418912   6.237   4.173   4.156 -0.5161 -0.0640 -0.2895
   45MOL   C34518913   6.233   4.047   4.223 -0.2989  0.2496  0.1512
   45MOL   C34618914   6.129   3.957   4.207  0.3465 -0.3582 -0.0071
   45MOL   C34718915   6.022   3.989   4.125  0.0490 -0.2560 -0.3212
   45MOL   C34818916   5.628   4.279   3.850  0.6154 -0.0080 -0.1395
   45MOL   H34918917   5.618   4.060   3.907  0.3043 -1.0080 -0.4572
   45MOL   H35018918   5.941   3.997   3.866  1.3749  0.2352  1.6919
   45MOL   H35118919   5.801   3.998   3.974 -0.6174  0.5110  0.2635
   45MOL   H35218920   6.129   4.305   4.032  0.0325  0.5476  0.1877
   45MOL   H35318921   6.313   4.245   4.183  0.8337 -0.8231 -1.9940
   45MOL   H35418922   6.328   4.028   4.270 -0.6958 -1.2944  0.3392
   45MOL   H35518923   6.129   3.857   4.246 -1.7942 -0.2344  0.3628
   45MOL   H35618924   5.952   3.909   4.106  1.2563 -1.7602  1.3479
   45MOL   H35718925   5.601   4.323   3.754  1.0952 -1.2365 -0.8533
   45MOL   H35818926   5.726   4.319   3.878  0.1447  0.5655  0.7186
   45MOL   C35918927   5.527   4.317   3.956  0.5134 -0.1714  1.3606
   45MOL   O36018928   5.398   4.287   3.904 -0.5716 -0.3616 -0.2863
   45MOL   C36118929   5.295   4.296   3.998 -0.4347 -0.1729 -0.3727
   45MOL   O36218930   5.287   4.180   4.077 -0.1198  0.0733  0.4342
   45MOL   C36318931   5.247   4.056   4.029 -0.0716  0.4819 -0.3968
   45MOL   C36418932   5.226   3.947   4.118  0.2596 -0.9262 -1.0499
   45MOL   C36518933   5.190   3.818   4.070 -0.2017 -0.3703 -0.0199
   45MOL   C36618934   5.180   3.798   3.933 -0.5897 -0.1699 -0.2739
   45MOL   C36718935   5.190   3.901   3.842 -0.7660  0.2624 -0.9443
   45MOL   C36818936   5.226   4.026   3.893  0.1624 -0.0075 -0.6271
   45MOL   C36918937   5.551   4.465   3.996 -1.1684  0.1360 -0.1585
   45MOL   H37018938   5.545   4.253   4.043 -0.9591  0.5790  2.2298
   45MOL   H37118939   5.198   4.297   3.948 -1.1204  1.5756  0.9261
   45MOL   H37218940   5.299   4.389   4.055 -1.2483  0.3496 -1.1421
   45MOL   H37318941   5.259   3.952   4.221  3.1061 -2.8643 -1.8133
   45MOL   H37418942   5.182   3.739   4.143 -3.4261  0.6225  0.8066
   45MOL   H37518943   5.168   3.697   3.897  0.1513 -0.5601  0.5539
   45MOL   H37618944   5.184   3.887   3.735 -1.9980  2.6792 -1.2135
   45MOL   H37718945   5.239   4.110   3.826 -1.3445 -0.1773 -1.1641
   45MOL   H37818946   5.461   4.526   3.998 -2.6938 -1.7858 -4.4168
   45MOL   H37918947   5.619   4.516   3.927 -0.7282  0.3384  0.4224
   45MOL   C38018948   5.605   4.486   4.139  0.5340 -0.6241 -0.0552
   45MOL   O38118949   5.579   4.623   4.166 -0.4539 -0.0186  0.5656
   45MOL   C38218950   5.491   4.653   4.275 -0.3140  0.5798  0.6264
   45MOL   O38318951   5.361   4.605   4.251  0.2464 -0.3054 -0.1947
   45MOL   C38418952   5.284   4.671   4.157  0.7901  0.0172  0.0361
   45MOL   C38518953   5.144   4.658   4.156 -0.4147 -0.2415 -0.2198
   45MOL   C38618954   5.062   4.731   4.066 -0.2334  0.9302 -0.1925
   45MOL   C38718955   5.120   4.822   3.975 -0.2086  0.6341  0.6623
   45MOL   C38818956   5.261   4.823   3.962 -0.0961  0.2021  0.4186
   45MOL   C38918957   5.343   4.758   4.055  0.2891 -0.3318 -0.0643
   45MOL   C39018958   5.758   4.448   4.145 -0.7640  0.0088  0.1816
   45MOL   H39118959   5.549   4.428   4.212 -0.9274  1.6429  0.6663
   45MOL   H39218960   5.520   4.592   4.361  0.7135 -0.2728 -0.3062
   45MOL   H39318961   5.480   4.759   4.296  0.4669  0.9783 -0.9605
   45MOL   H39418962   5.099   4.591   4.228 -0.7378  0.8146  0.5736
   45MOL   H39518963   4.957   4.704   4.064 -0.1310  0.5572 -1.7436
   45MOL   H39618964   5.053   4.885   3.918  1.5705  1.3769 -0.6533
   45MOL   H39718965   5.290   4.879   3.874 -1.9891  0.1202 -0.2646
   45MOL   H39818966   5.448   4.785   4.054  0.4700 -1.0553 -1.4110
   45MOL   H39918967   5.816   4.514   4.081 -1.5004 -0.7300 -1.2725
   45MOL   H40018968   5.767   4.352   4.094  1.8807  1.0762 -1.4742
   45MOL   C40118969   5.811   4.451   4.288 -0.0352 -0.3594 -0.8687
   45MOL   O40218970   5.776   4.335   4.363 -0.4272 -0.1532 -0.5108
   45MOL   C40318971   5.748   4.357   4.497 -0.4187  0.7945 -0.0408
   45MOL   O40418972   5.861   4.387   4.574 -0.0918  0.3355 -0.0030
   45MOL   C40518973   5.959   4.289   4.580  0.3428  0.3185 -0.7918
   45MOL   C40618974   5.953   4.167   4.508 -0.2280  0.0502  0.5379
   45MOL   C40718975   6.051   4.071   4.540 -0.3642  0.1055 -0.5714
   45MOL   C40818976   6.156   4.101   4.638 -0.5235  0.5524 -0.7310
   45MOL   C40918977   6.167   4.232   4.701  0.5644 -0.3872 -0.3438
   45MOL   C41018978   6.060   4.318   4.675  0.5680  0.2837 -0.1275
   45MOL   C41118979   5.964   4.476   4.288 -0.3364  0.2306 -0.4331
   45MOL   H41218980   5.764   4.541   4.329 -0.2420 -1.1460  0.6551
   45MOL   H41318981   5.695   4.272   4.541 -0.0696  0.0939 -0.9649
   45MOL   H41418982   5.682   4.443   4.506 -0.5540  0.4613  2.4047
   45MOL   H41518983   5.887   4.131   4.431 -2.1681  1.0791  1.6888
   45MOL   H41618984   6.047   3.971   4.499  0.2923 -0.2470  0.2012
   45MOL   H41718985   6.228   4.029   4.671 -1.1758 -0.3053 -1.1485
   45MOL   H41818986   6.239   4.262   4.775  1.5838  0.6750 -1.7455
   45MOL   H41918987   6.068   4.413   4.727 -1.0325 -0.1148  0.8774
   45MOL   H42018988   6.011   4.400   4.227 -0.4549 -1.0155  0.9913
   45MOL   H42118989   6.015   4.480   4.385 -1.0387 -0.5881 -0.0274
   45MOL   H42218990   5.989   4.572   4.242  1.4473  0.3328  0.7039
   46MOL     C118991   1.566   1.575   7.911 -0.3405  0.5618 -0.1070
   46MOL     O218992   1.436   1.535   7.969 -0.1759  0.7110  0.1253
   46MOL     C318993   1.361   1.447   7.888 -0.2324 -0.3832  0.1958
   46MOL     O418994   1.299   1.514   7.782  0.9865 -0.3239  0.2919
   46MOL     C518995   1.177   1.582   7.803 -0.0016 -0.4115  0.6572
   46MOL     C618996   1.137   1.623   7.929 -0.0134 -0.4646 -0.2518
   46MOL     C718997   1.014   1.693   7.950  0.2641  0.0556 -0.2836
   46MOL     C818998   0.931   1.722   7.836 -0.3330 -0.2310  0.7965
   46MOL     C918999   0.982   1.684   7.709  0.5328  0.0348  0.4224
   46MOL    C1019000   1.102   1.609   7.691  0.1097  0.2879  0.1421
   46MOL    C1119001   1.637   1.686   0.008 -0.1283  0.1511 -0.2096
   46MOL    H1219002   1.634   1.491   7.901 -0.1610  0.0354  4.4868
   46MOL    H1319003   1.426   1.370   7.846 -0.1671 -0.5118  0.5327
   46MOL    H1419004   1.286   1.384   7.935  1.5954 -3.6664 -1.0733
   46MOL    H1519005   1.185   1.592   0.045 -0.0687  2.9073  0.9968
   46MOL    H1619006   0.975   1.707   0.074 -0.2019  1.5061 -0.6613
   46MOL    H1719007   0.830   1.761   7.844 -0.2891  0.0801 -0.1137
   46MOL    H1819008   0.925   1.706   7.620 -0.4767 -0.7937  0.8645
   46MOL    H1919009   1.128   1.591   7.588 -1.6379  3.6181 -0.9488
   46MOL    H2019010   1.740   1.680   7.949  0.7673 -0.3059  2.4263
   46MOL    H2119011   1.651   1.655   0.111 -1.5527  0.1334  0.0004
   46MOL    H2219012   1.547   1.617   7.812  1.8969 -0.3826 -0.9756
   46MOL    C2319013   1.583   1.831   0.008 -0.6336  0.4979  0.4743
   46MOL    O2419014   1.591   1.881   7.847  0.0767 -0.7119 -0.2477
   46MOL    C2519015   1.475   1.891   7.766 -0.1661 -1.0892  0.0351
   46MOL    O2619016   1.408   2.011   7.790  0.3165 -0.0599  0.3311
   46MOL    C2719017   1.465   2.135   7.763 -0.3549  0.1477 -0.1120
   46MOL    C2819018   1.591   2.145   7.706  0.0407 -0.0722  0.7874
   46MOL    C2919019   1.650   2.273   7.667  0.1859 -0.1559  0.0896
   46MOL    C3019020   1.590   2.390   7.711 -1.2175 -0.5195  0.0018
   46MOL    C3119021   1.464   2.384   7.774  0.4626  0.0684  0.1625
   46MOL    C3219022   1.404   2.254   7.801  0.4625 -0.2750 -0.0312
   46MOL    C3319023   1.649   1.917   0.107 -0.4857 -0.3549  0.4072
   46MOL    H3419024   1.476   1.822   0.027 -0.8611  0.6776 -0.6725
   46MOL    H3519025   1.400   1.815   7.786 -1.8520  0.1970 -1.2569
   46MOL    H3619026   1.495   1.884   7.659 -0.0175  0.3048 -0.0392
   46MOL    H3719027   1.649   2.057   7.680 -1.8606 -2.4204  4.0502
   46MOL    H3819028   1.735   2.284   7.601 -0.3339  0.4107 -0.4858
   46MOL    H3919029   1.631   2.487   7.686  1.6338 -1.5528  0.4873
   46MOL    H4019030   1.414   2.473   7.809  2.1381  0.8187  0.7180
   46MOL    H4119031   1.307   2.266   7.847  0.4727  2.7486 -0.6961
   46MOL    H4219032   1.713   1.986   0.052  1.1277 -1.4902  0.8252
   46MOL    H4319033   1.717   1.865   0.174  0.3448 -1.3277 -1.1633
   46MOL    C4419034   1.551   2.012   0.181  0.3509 -0.3341  0.0101
   46MOL    O4519035   1.629   2.117   0.238  0.0256 -0.2716 -0.2850
   46MOL    C4619036   1.660   2.228   0.161  0.1705  0.0514  0.3463
   46MOL    O4719037   1.576   2.339   0.188  0.3362  0.1941 -0.0053
   46MOL    C4819038   1.594   2.456   0.112  0.1412  0.2681 -0.3812
   46MOL    C4919039   1.498   2.558   0.105  0.2892 -0.3664  0.3453
   46MOL    C5019040   1.509   2.674   0.026  0.3015 -0.2828 -0.0306
   46MOL    C5119041   1.622   2.688   7.920 -0.7653  0.1389 -0.0172
   46MOL    C5219042   1.722   2.589   7.923 -0.7384  0.4826 -0.2077
   46MOL    C5319043   1.713   2.476   0.034 -0.4733 -0.4972 -0.3687
   46MOL    C5419044   1.462   1.959   0.290  0.1267 -0.2540  0.1235
   46MOL    H5519045   1.479   2.046   0.106 -0.9323 -0.3543  1.2097
   46MOL    H5619046   1.638   2.210   0.056 -0.7938 -1.4135  0.7764
   46MOL    H5719047   1.767   2.242   0.175  0.2235 -0.7951  0.7991
   46MOL    H5819048   1.409   2.550   0.166 -0.0044 -1.9703 -0.2750
   46MOL    H5919049   1.432   2.744   0.056 -0.2054 -0.8553  0.0232
   46MOL    H6019050   1.638   2.776   7.859 -1.9717 -0.1149 -0.7049
   46MOL    H6119051   1.809   2.596   7.859  0.1313  1.7927  1.0939
   46MOL    H6219052   1.793   2.404   0.035 -0.9041 -0.9515  1.6624
   46MOL    H6319053   1.403   1.877   0.250  0.5891 -0.6269  0.2147
   46MOL    H6419054   1.517   1.917   0.374  0.7956 -0.1135 -0.2420
   46MOL    C6519055   1.349   2.063   0.342 -0.4337 -0.5494 -0.8255
   46MOL    O6619056   1.245   2.084   0.250  0.0166  0.5721  0.2644
   46MOL    C6719057   1.243   2.195   0.161 -0.3472  0.3176 -0.4345
   46MOL    O6819058   1.191   2.311   0.225  0.1260  0.0895 -0.2595
   46MOL    C6919059   1.066   2.304   0.283  0.1491 -0.2287 -1.0671
   46MOL    C7019060   1.020   2.416   0.357  0.2891  0.7065  0.6932
   46MOL    C7119061   0.882   2.432   0.383  1.1955 -0.4812  0.2464
   46MOL    C7219062   0.792   2.332   0.360 -0.2260 -0.2354  0.3769
   46MOL    C7319063   0.843   2.206   0.309 -0.2418 -0.1940 -0.0450
   46MOL    C7419064   0.978   2.193   0.268 -0.8017  0.3912  0.4132
   46MOL    C7519065   1.296   2.027   0.480  0.1888  0.0810  0.3958
   46MOL    H7619066   1.395   2.159   0.364 -1.8879 -0.2668  1.0790
   46MOL    H7719067   1.197   2.170   0.066 -1.1050  0.9955 -0.2484
   46MOL    H7819068   1.346   2.226   0.141  0.0282  0.6872  1.8890
   46MOL    H7919069   1.087   2.495   0.388  0.4848  1.2834 -1.0994
   46MOL    H8019070   0.846   2.523   0.429 -1.6434 -0.2126 -2.3415
   46MOL    H8119071   0.697   2.347   0.409  0.2216 -0.7561  1.4230
   46MOL    H8219072   0.784   2.118   0.329  2.7064 -2.7160 -1.9341
   46MOL    H8319073   1.004   2.107   0.209 -0.1291  1.5981 -1.0939
   46MOL    H8419074   1.378   2.034   0.552  0.8843  0.5720 -0.4275
   46MOL    H8519075   1.232   2.110   0.510 -2.1239 -1.0757 -1.1787
   46MOL    C8619076   1.228   1.894   0.498  0.4836  0.6686 -0.5121
   46MOL    O8719077   1.162   1.885   0.620  0.3045 -0.1331  0.4136
   46MOL    C8819078   1.231   1.813   0.721 -0.3333  0.2527  0.3720
   46MOL    O8919079   1.235   1.676   0.682  0.4269 -0.1525  0.0203
   46MOL    C9019080   1.279   1.578   0.768 -0.4328  0.6991 -0.0238
   46MOL    C9119081   1.336   1.607   0.894  0.3011 -0.0536  0.2213
   46MOL    C9219082   1.405   1.502   0.963 -0.2972 -0.3447  0.9684
   46MOL    C9319083   1.389   1.367   0.923  1.0246  0.1161 -0.3388
   46MOL    C9419084   1.307   1.340   0.811 -0.5773 -0.8523 -0.1451
   46MOL    C9519085   1.261   1.442   0.732 -0.7240 -0.1346 -0.0287
   46MOL    C9619086   1.120   1.866   0.397  0.0015 -0.4332 -0.1149
   46MOL    H9719087   1.302   1.814   0.488 -1.9407 -2.0124  2.0132
   46MOL    H9819088   1.169   1.826   0.810  0.3576  0.6103  0.8020
   46MOL    H9919089   1.329   1.859   0.732 -0.4172  0.8220 -1.1438
   46MOL   H10019090   1.357   1.709   0.922  1.0906 -0.3931  0.8744
   46MOL   H10119091   1.462   1.527   1.051 -0.7900 -2.1408  1.8079
   46MOL   H10219092   1.423   1.282   0.981  3.5873  2.4440  1.7243
   46MOL   H10319093   1.294   1.239   0.777  0.2928 -1.2605  0.7191
   46MOL   H10419094   1.208   1.411   0.643  1.2897  0.9209 -1.6346
   46MOL   H10519095   1.047   1.947   0.405 -1.1713 -1.6112  1.2592
   46MOL   H10619096   1.173   1.869   0.301 -1.8929  0.4286 -1.1582
   46MOL   C10719097   1.055   1.725   0.406 -0.2014 -0.2260  0.8937
   46MOL   O10819098   0.951   1.733   0.310  0.1201  0.5961  0.3186
   46MOL   C10919099   0.823   1.715   0.364 -0.1710 -0.0540 -0.6482
   46MOL   O11019100   0.788   1.834   0.425 -0.0075 -0.5213 -0.4674
   46MOL   C11119101   0.678   1.836   0.505  0.1392 -0.4008  0.3779
   46MOL   C11219102   0.650   1.949   0.582 -0.2635  0.1671  0.1982
   46MOL   C11319103   0.538   1.951   0.663 -0.0393  0.4797 -0.2018
   46MOL   C11419104   0.451   1.840   0.670  0.2311 -0.0580  0.3915
   46MOL   C11519105   0.471   1.732   0.583  0.3433 -0.3490  0.1696
   46MOL   C11619106   0.580   1.735   0.492 -0.0368 -0.0290  0.2346
   46MOL   C11719107   1.148   1.607   0.365 -0.0554 -0.4406  0.0372
   46MOL   H11819108   1.018   1.709   0.507 -2.9194  0.2851  0.0049
   46MOL   H11919109   0.825   1.635   0.437 -1.4293  1.3273  0.9338
   46MOL   H12019110   0.757   1.686   0.282  2.3006 -0.9206 -2.3827
   46MOL   H12119111   0.724   2.028   0.587 -0.2128  0.3987 -3.2298
   46MOL   H12219112   0.515   2.032   0.732 -1.5126 -0.3263  0.2755
   46MOL   H12319113   0.363   1.836   0.732 -0.5226 -0.8524 -0.7055
   46MOL   H12419114   0.403   1.647   0.580  1.0026 -0.9355  1.5050
   46MOL   H12519115   0.592   1.656   0.419  1.5802  0.8629 -0.4908
   46MOL   H12619116   1.233   1.602   0.433  0.7121  0.1921 -0.8514
   46MOL   H12719117   1.213   1.613   0.277  1.7108 -0.9761  1.2706
   46MOL   C12819118   1.081   1.473   0.386 -0.5192 -0.4791 -0.0844
   46MOL   O12919119   1.167   1.377   0.428  0.2028 -0.0256  0.5851
   46MOL   C13019120   1.281   1.350   0.347 -0.1804 -0.4287  0.6333
   46MOL   O13119121   1.390   1.426   0.388  0.0209 -1.2291  0.2725
   46MOL   C13219122   1.516   1.399   0.336  0.0200  0.2139  0.8233
   46MOL   C13319123   1.614   1.498   0.353 -0.0071  0.8809  0.4962
   46MOL   C13419124   1.746   1.485   0.304 -0.2822  0.1640  0.0996
   46MOL   C13519125   1.779   1.367   0.227  0.8255  0.5728 -0.2484
   46MOL   C13619126   1.683   1.262   0.217  1.0405 -0.2495 -0.6734
   46MOL   C13719127   1.552   1.276   0.277 -1.1294  0.5125  0.2110
   46MOL   C13819128   0.997   1.425   0.266 -0.0259  0.8007  0.2944
   46MOL   H13919129   1.020   1.488   0.475  0.4216  0.8068  0.3746
   46MOL   H14019130   1.263   1.373   0.242  1.2409  0.1392  0.4973
   46MOL   H14119131   1.304   1.244   0.362  0.6247  0.0534  3.0520
   46MOL   H14219132   1.588   1.594   0.395  1.9214  2.5906 -2.0544
   46MOL   H14319133   1.810   1.570   0.318 -1.7756  1.2047  0.6782
   46MOL   H14419134   1.878   1.350   0.188 -0.4080  0.8385 -3.6046
   46MOL   H14519135   1.693   1.168   0.164  1.3451 -2.8057  3.6624
   46MOL   H14619136   1.489   1.193   0.251  0.9230 -0.5711 -1.5022
   46MOL   H14719137   0.940   1.506   0.221 -0.6361 -0.1979 -0.7621
   46MOL   H14819138   1.057   1.397   0.179  1.3281 -0.8755  1.7375
   46MOL   C14919139   0.904   1.311   0.304 -0.2111  0.3394  0.1397
   46MOL   O15019140   0.813   1.360   0.401 -0.1776 -0.1352  0.5539
   46MOL   C15119141   0.831   1.333   0.541  0.4952  0.0762 -0.0328
   46MOL   O15219142   0.760   1.213   0.579  0.1045 -0.2498  0.1292
   46MOL   C15319143   0.628   1.214   0.611  0.4600  0.0495  0.1333
   46MOL   C15419144   0.541   1.328   0.621 -0.0443  0.1160 -0.0120
   46MOL   C15519145   0.408   1.315   0.656 -0.1365  0.2653  0.6391
   46MOL   C15619146   0.356   1.191   0.694  0.2789 -0.1950  0.3285
   46MOL   C15719147   0.436   1.075   0.686  0.0873 -0.1050  0.7720
   46MOL   C15819148   0.568   1.091   0.643 -0.7953 -0.3392  0.4489
   46MOL   C15919149   0.830   1.252   0.177  0.0119 -0.2471  0.2992
   46MOL   H16019150   0.967   1.239   0.357  0.1376  0.6326  0.1270
   46MOL   H16119151   0.934   1.307   0.566  0.2560  0.0742  0.9973
   46MOL   H16219152   0.806   1.418   0.605  2.1002  0.3744  0.2037
   46MOL   H16319153   0.566   1.431   0.604 -1.2470  0.4737  0.3264
   46MOL   H16419154   0.350   1.405   0.674 -0.5849  0.3349 -1.0824
   46MOL   H16519155   0.248   1.187   0.696  0.2577 -0.5192 -1.0635
   46MOL   H16619156   0.389   0.980   0.706 -0.9775 -0.2155 -2.0167
   46MOL   H16719157   0.623   1.000   0.624  0.4305  0.2053  1.2960
   46MOL   H16819158   0.775   1.333   0.130  1.6285  0.8298  0.2183
   46MOL   H16919159   0.750   1.189   0.217 -0.5808  0.2041 -0.1672
   46MOL   C17019160   0.906   1.170   0.076  0.3839 -0.4845  0.7743
   46MOL   O17119161   0.984   1.257   7.969 -0.0942  0.4584 -0.6238
   46MOL   C17219162   0.916   1.307   7.859  0.6306 -0.0649  0.2879
   46MOL   O17319163   0.907   1.213   7.757  0.1705 -0.0928  0.3077
   46MOL   C17419164   1.006   1.203   7.665  0.1044 -0.1154 -0.6171
   46MOL   C17519165   0.969   1.208   7.528  0.0878  0.5120 -0.5338
   46MOL   C17619166   1.067   1.215   7.429  0.0692 -0.2438 -0.1126
   46MOL   C17719167   1.200   1.222   7.460 -0.3407  0.6455 -0.2042
   46MOL   C17819168   1.242   1.216   7.595  0.4578 -0.1330  0.0840
   46MOL   C17919169   1.146   1.214   7.698 -0.3737 -0.0015  0.6373
   46MOL   C18019170   1.008   1.084   0.152 -0.6360  0.1654  0.5552
   46MOL   H18119171   0.842   1.106   0.015  0.5393 -0.7313  0.8683
   46MOL   H18219172   0.976   1.394   7.832  0.4981  0.4627  1.6583
   46MOL   H18319173   0.815   1.342   7.882  0.1983 -0.3758 -1.0769
   46MOL   H18419174   0.866   1.221   7.497 -0.2330  0.5582  0.5339
   46MOL   H18519175   1.043   1.215   7.324 -0.5016 -0.8926  0.0101
   46MOL   H18619176   1.271   1.214   7.379  1.0370  0.1011  1.0284
   46MOL   H18719177   1.349   1.218   7.605  0.5414  0.3533 -0.8652
   46MOL   H18819178   1.168   1.213   7.803 -0.4643 -1.5409  0.6572
   46MOL   H18919179   1.083   1.154   0.188 -0.7533 -0.6982  2.5647
   46MOL   H19019180   0.963   1.038   0.240 -1.0783  2.1249  1.3881
   46MOL   C19119181   1.072   0.972   0.065 -0.3660  0.6711  0.4014
   46MOL   O19219182   0.972   0.876   0.021  0.6539 -0.2549  0.8127
   46MOL   C19319183   0.999   0.772   7.913 -0.5806 -0.7390  0.2603
   46MOL   O19419184   0.886   0.704   7.857  0.3803 -0.0617  0.0956
   46MOL   C19519185   0.812   0.769   7.762 -0.2091 -0.0039  0.3224
   46MOL   C19619186   0.834   0.903   7.721  0.2620 -0.5959 -0.6020
   46MOL   C19719187   0.750   0.967   7.625 -0.0038 -0.1416  0.2668
   46MOL   C19819188   0.648   0.892   7.567  0.0167 -0.2055 -0.4055
   46MOL   C19919189   0.625   0.759   7.608  0.4873  0.0633 -0.0453
   46MOL   C20019190   0.697   0.701   7.711  0.2693  0.5642  0.4571
   46MOL   C20119191   1.191   0.900   0.136 -0.5006  0.6512  0.3612
   46MOL   H20219192   1.098   1.017   7.945 -2.6574 -0.4993 -0.8064
   46MOL   H20319193   1.064   0.706   7.970 -0.5397 -1.1285 -0.2361
   46MOL   H20419194   1.059   0.820   7.836 -4.3918  1.9557 -1.2084
   46MOL   H20519195   0.914   0.954   7.772 -1.2490 -0.8425  2.1583
   46MOL   H20619196   0.772   1.072   7.611 -0.3569 -0.2237 -0.9771
   46MOL   H20719197   0.585   0.936   7.492 -0.8517  0.9630  0.9962
   46MOL   H20819198   0.547   0.700   7.563  1.0757  0.2706 -1.3544
   46MOL   H20919199   0.674   0.602   7.748  3.1660 -1.0855 -1.9447
   46MOL   H21019200   1.220   0.947   0.230 -0.9262  0.9519  0.3416
   46MOL   H21119201   1.148   0.807   0.176  0.9155 -0.6451 -1.0666
   46MOL   C21219202   1.319   0.863   0.050  0.9103  0.8852  0.0018
   46MOL   O21319203   1.380   0.983   0.003  0.5728 -0.1711 -0.1711
   46MOL   C21419204   1.391   1.004   7.844 -1.2335  1.0470  0.0345
   46MOL   O21519205   1.462   1.116   7.812 -0.0597 -0.0715 -0.0001
   46MOL   C21619206   1.596   1.103   7.826 -0.0702  0.0259  0.0407
   46MOL   C21719207   1.673   1.206   7.767 -0.3627  0.3116  0.1473
   46MOL   C21819208   1.817   1.202   7.789  0.3889  0.0390 -0.0312
   46MOL   C21919209   1.879   1.094   7.854 -0.0265  0.4374  0.4613
   46MOL   C22019210   1.805   0.989   7.902  0.3254  0.3718 -0.5546
   46MOL   C22119211   1.661   0.999   7.897  0.2364 -0.5284  0.6371
   46MOL   C22219212   1.417   0.790   0.139  0.4064  0.5220  0.6753
   46MOL   H22319213   1.285   0.795   7.949 -0.2569  2.6163 -1.0456
   46MOL   H22419214   1.287   1.015   7.812 -2.4269 -1.2553  2.8658
   46MOL   H22519215   1.427   0.913   7.796 -2.1110  1.1025 -0.7542
   46MOL   H22619216   1.631   1.296   7.725 -0.0296 -0.3714 -1.6866
   46MOL   H22719217   1.880   1.283   7.756  2.2854 -0.4800  2.1471
   46MOL   H22819218   1.986   1.089   7.865 -0.0290  1.3305  0.9169
   46MOL   H22919219   1.850   0.904   7.951 -0.5270 -1.2454 -2.5391
   46MOL   H23019220   1.607   0.916   7.941  0.3549 -0.6832  0.4932
   46MOL   H23119221   1.513   0.791   0.087  0.0873  0.4957  0.0814
   46MOL   H23219222   1.439   0.843   0.232  1.3426  1.9145 -0.3333
   46MOL   C23319223   1.385   0.640   0.165  0.3826 -0.1118  0.0312
   46MOL   O23419224   1.396   0.581   0.034 -0.0661 -0.4884 -1.1911
   46MOL   C23519225   1.330   0.465   0.016  0.5842  0.1059 -0.2670
   46MOL   O23619226   1.190   0.486   0.003  0.4923 -0.1659  0.6237
   46MOL   C23719227   1.106   0.376   7.970 -0.3445 -0.2384  0.1227
   46MOL   C23819228   1.155   0.246   7.955 -0.0142  0.0503  0.3076
   46MOL   C23919229   1.064   0.139   7.963  0.4989  0.2910  0.2712
   46MOL   C24019230   0.928   0.170   7.966  0.1661  0.3945 -0.0235
   46MOL   C24119231   0.879   0.305   7.965  0.1848  0.0059 -1.0802
   46MOL   C24219232   0.968   0.409   0.004 -0.0836 -0.4210  0.3032
   46MOL   C24319233   1.490   0.579   0.256  0.1403  0.4638 -0.2204
   46MOL   H24419234   1.286   0.622   0.206 -1.1126  0.7122 -3.0655
   46MOL   H24519235   1.351   0.395   0.096 -0.8757  0.4115  0.4042
   46MOL   H24619236   1.361   0.420   7.897  1.1677 -0.4183  0.1767
   46MOL   H24719237   1.261   0.228   7.943 -0.2485  0.0553 -2.1410
   46MOL   H24819238   1.090   0.034   7.953  0.8941  0.3321  0.8454
   46MOL   H24919239   0.853   0.093   7.962  0.8859 -0.3915  1.2781
   46MOL   H25019240   0.778   0.343   7.971  0.8581  2.1280 -2.7467
   46MOL   H25119241   0.919   0.505   0.006 -0.4535 -0.6142  0.7452
   46MOL   H25219242   1.465   0.474   0.268  0.6572  0.0789 -2.3977
   46MOL   H25319243   1.577   0.565   0.192  0.0826 -0.1031 -0.1782
   46MOL   C25419244   1.529   0.642   0.387  0.3226 -0.3999 -0.2554
   46MOL   O25519245   1.410   0.621   0.465  0.0355  1.1114 -1.1019
   46MOL   C25619246   1.393   0.701   0.575 -0.1251 -0.2292  0.2380
   46MOL   O25719247   1.379   0.836   0.543  1.0457 -0.0115  0.1273
   46MOL   C25819248   1.252   0.889   0.532 -0.2554 -0.3465 -0.4727
   46MOL   C25919249   1.150   0.810   0.469 -0.0777  1.1227  0.6933
   46MOL   C26019250   1.017   0.863   0.465  0.1574  0.6587 -0.4069
   46MOL   C26119251   0.987   0.987   0.515 -0.4840 -1.0819  0.1525
   46MOL   C26219252   1.089   1.061   0.585  0.0331  0.1940  0.4742
   46MOL   C26319253   1.222   1.013   0.593  1.0911 -0.1950  0.2023
   46MOL   C26419254   1.663   0.600   0.443  0.1073  0.2045  0.3674
   46MOL   H26519255   1.535   0.750   0.376  2.2286 -0.5690 -1.0624
   46MOL   H26619256   1.469   0.684   0.651 -0.2286  0.7120  0.5617
   46MOL   H26719257   1.304   0.669   0.629 -0.4974 -1.1048 -0.8865
   46MOL   H26819258   1.164   0.716   0.418 -2.4064  1.8905 -1.4805
   46MOL   H26919259   0.939   0.804   0.418 -0.2678  1.1114 -0.2686
   46MOL   H27019260   0.884   1.018   0.510 -0.4401 -0.9795 -0.1670
   46MOL   H27119261   1.066   1.148   0.645 -0.1961 -0.1155  0.8406
   46MOL   H27219262   1.297   1.076   0.639 -0.0990  0.0211  1.9183
   46MOL   H27319263   1.681   0.648   0.539 -1.4101  1.3518  0.0976
   46MOL   H27419264   1.655   0.493   0.459  0.1102  0.3677  1.4960
   46MOL   C27519265   1.785   0.627   0.344  0.2569 -0.1086 -0.5274
   46MOL   O27619266   1.878   0.726   0.396  0.6550  0.0681  0.0523
   46MOL   C27719267   1.835   0.858   0.421 -0.0621  1.0256 -0.1932
   46MOL   O27819268   1.752   0.867   0.531  0.2505 -0.2847 -0.3369
   46MOL   C27919269   1.722   0.989   0.592 -0.3324  0.7438 -0.0310
   46MOL   C28019270   1.617   0.997   0.687  0.5651  0.0563  0.2096
   46MOL   C28119271   1.582   1.120   0.740  0.0249 -0.0979 -0.2036
   46MOL   C28219272   1.648   1.234   0.697  0.5194  0.1917 -0.3052
   46MOL   C28319273   1.759   1.225   0.616  0.3855  0.5247  0.6143
   46MOL   C28419274   1.792   1.107   0.553  0.4235  0.7724 -1.0209
   46MOL   C28519275   1.854   0.502   0.285 -0.5021 -0.0266  0.7183
   46MOL   H28619276   1.744   0.681   0.259 -2.1111  1.6249  1.6338
   46MOL   H28719277   1.799   0.900   0.327 -0.3957  0.6750 -0.2193
   46MOL   H28819278   1.932   0.907   0.430  0.1871  0.6409 -0.7993
   46MOL   H28919279   1.569   0.906   0.719 -0.1324 -0.2655 -1.7240
   46MOL   H29019280   1.512   1.133   0.821  0.9587  3.4981  0.1091
   46MOL   H29119281   1.620   1.324   0.749 -0.0711  0.3270 -0.8574
   46MOL   H29219282   1.810   1.315   0.583 -0.4140  1.4848  1.9592
   46MOL   H29319283   1.882   1.115   0.493  0.5815 -0.1256 -0.9005
   46MOL   H29419284   1.893   0.530   0.187 -2.8464  1.6691  0.2176
   46MOL   H29519285   1.774   0.430   0.269  0.3665 -0.2361 -2.9751
   46MOL   C29619286   1.976   0.430   0.363 -0.2781  0.4251  0.2959
   46MOL   O29719287   1.999   0.315   0.292 -0.4559 -0.5334 -0.1472
   46MOL   C29819288   1.986   0.198   0.362 -0.4354  0.7825  0.3081
   46MOL   O29919289   1.854   0.166   0.403 -0.0921 -0.2252 -0.2791
   46MOL   C30019290   1.753   0.132   0.319  0.5663  0.0701  0.9696
   46MOL   C30119291   1.772   0.147   0.183  0.2710 -0.3042  0.2284
   46MOL   C30219292   1.680   0.101   0.092  0.4901 -0.0863 -0.5199
   46MOL   C30319293   1.553   0.061   0.131  0.0737  0.2621 -0.5011
   46MOL   C30419294   1.525   0.059   0.269 -0.3661  0.3281  0.0570
   46MOL   C30519295   1.624   0.095   0.362  0.1563  0.0503  0.1720
   46MOL   C30619296   2.107   0.512   0.361  0.1972 -0.6906  0.3413
   46MOL   H30719297   1.949   0.408   0.466  0.4730 -0.2311  0.3639
   46MOL   H30819298   2.059   0.199   0.443  1.5653 -0.3928 -1.3907
   46MOL   H30919299   2.019   0.116   0.297 -0.6613  0.0178  1.1524
   46MOL   H31019300   1.866   0.184   0.144 -0.8081  3.3049  0.8420
   46MOL   H31119301   1.709   0.100   7.963 -0.2916  1.2759 -0.7652
   46MOL   H31219302   1.476   0.051   0.056 -0.6147 -1.6765  0.4269
   46MOL   H31319303   1.426   0.038   0.308 -0.2272  0.0181  0.2473
   46MOL   H31419304   1.604   0.080   0.467 -0.4179 -2.3970 -0.2541
   46MOL   H31519305   2.079   0.613   0.391 -0.9621 -1.1850  0.9891
   46MOL   H31619306   2.132   0.512   0.254  1.2222  2.2700  0.5551
   46MOL   C31719307   2.226   0.458   0.443 -0.0666 -0.0653  0.3029
   46MOL   O31819308   2.205   0.484   0.585  0.1534 -0.7149  0.3894
   46MOL   C31919309   2.190   0.362   0.662 -0.5655  0.0071  0.0099
   46MOL   O32019310   2.305   0.289   0.652  0.1388 -0.0389  0.0741
   46MOL   C32119311   2.311   0.165   0.710 -1.0722  0.2936  0.2612
   46MOL   C32219312   2.221   0.120   0.807  0.4345  0.9332 -0.4112
   46MOL   C32319313   2.242   0.003   0.887 -0.7902  0.3506 -0.7254
   46MOL   C32419314   2.356   7.905   0.846 -0.0899  0.7502 -1.0282
   46MOL   C32519315   2.436   7.935   0.741  0.2664 -0.1810  0.0490
   46MOL   C32619316   2.426   0.085   0.679  0.4918 -0.1173  0.2943
   46MOL   C32719317   2.368   0.509   0.397  0.0786 -0.6823  0.8096
   46MOL   H32819318   2.229   0.352   0.417 -2.2486 -0.3773  1.1719
   46MOL   H32919319   2.099   0.317   0.620 -0.4030  0.1838 -0.5372
   46MOL   H33019320   2.181   0.386   0.768  1.1008  0.9613 -0.0539
   46MOL   H33119321   2.138   0.183   0.836  1.8002  1.3090  2.9376
   46MOL   H33219322   2.192   7.955   0.980  1.7526 -2.4663  0.0315
   46MOL   H33319323   2.380   7.811   0.894  1.6730  1.7492  0.0979
   46MOL   H33419324   2.517   7.869   0.713  1.8624  1.0749  1.5664
   46MOL   H33519325   2.490   0.112   0.596  0.9685 -2.3118 -0.0615
   46MOL   H33619326   2.347   0.615   0.385  0.8409 -0.7320 -1.2114
   46MOL   H33719327   2.440   0.498   0.478  2.1365 -1.9642 -1.1520
   46MOL   C33819328   2.412   0.453   0.269  0.0175  0.4207  0.8593
   46MOL   O33919329   2.507   0.537   0.206 -0.3649 -0.3392  0.1835
   46MOL   C34019330   2.486   0.559   0.068 -0.4242  0.0670  0.5591
   46MOL   O34119331   2.564   0.664   0.014 -0.1705  0.3461  0.4713
   46MOL   C34219332   2.691   0.634   7.940  0.2021  0.2740 -0.3928
   46MOL   C34319333   2.745   0.729   7.853 -0.8367 -0.4266 -0.9822
   46MOL   C34419334   2.876   0.715   7.800 -0.1867 -0.3692  1.1661
   46MOL   C34519335   2.945   0.594   7.828 -0.3056 -0.1086  0.4769
   46MOL   C34619336   2.891   0.492   7.904  0.5794 -0.1407 -0.6119
   46MOL   C34719337   2.765   0.514   7.970  0.3756  0.6486 -0.4962
   46MOL   C34819338   2.486   0.315   0.302  0.3910  0.1330  0.2539
   46MOL   H34919339   2.326   0.422   0.209 -0.0478 -0.9143  1.5966
   46MOL   H35019340   2.388   0.603   0.050 -0.8089 -1.2697 -0.7831
   46MOL   H35119341   2.493   0.458   0.025  1.8464  0.0055  1.0167
   46MOL   H35219342   2.697   0.821   7.825 -3.4356 -1.3594  0.2312
   46MOL   H35319343   2.924   0.793   7.744  1.0305 -0.5489  1.9279
   46MOL   H35419344   3.045   0.576   7.791 -1.7311 -2.3012 -2.6099
   46MOL   H35519345   2.943   0.399   7.921 -1.0967 -0.9124  0.4536
   46MOL   H35619346   2.735   0.442   0.069  2.0904 -0.1489 -0.5621
   46MOL   H35719347   2.444   0.258   0.384  0.8724  1.0457  1.1402
   46MOL   H35819348   2.584   0.346   0.338  0.4812 -0.3595  0.4266
   46MOL   C35919349   2.512   0.217   0.188 -0.4559  0.7246  0.8688
   46MOL   O36019350   2.382   0.172   0.146  0.0964 -0.3624  0.3065
   46MOL   C36119351   2.381   0.128   0.013 -0.6852 -0.1888  0.8025
   46MOL   O36219352   2.391   0.229   7.894 -0.4521  0.5584  0.0729
   46MOL   C36319353   2.283   0.306   7.865 -0.2644  0.0530 -0.5488
   46MOL   C36419354   2.167   0.319   7.942 -0.1135  0.2712 -0.2052
   46MOL   C36519355   2.061   0.394   7.891  0.1528 -0.6420  0.0577
   46MOL   C36619356   2.071   0.465   7.774 -0.1113  0.3135 -0.2107
   46MOL   C36719357   2.188   0.449   7.698  0.8221 -0.0704  0.6403
   46MOL   C36819358   2.295   0.369   7.746  0.1582 -0.2458 -0.1455
   46MOL   C36919359   2.598   0.096   0.223 -0.1610 -0.6597  0.9388
   46MOL   H37019360   2.560   0.279   0.112  0.3038 -1.4673 -0.4907
   46MOL   H37119361   2.287   0.075   0.001 -0.6998  0.0727 -0.3140
   46MOL   H37219362   2.456   0.054   7.961 -0.4219  1.3507 -2.8826
   46MOL   H37319363   2.166   0.282   0.068 -1.7374  0.9446  0.0372
   46MOL   H37419364   1.969   0.406   7.945 -0.3445 -1.4767 -0.5941
   46MOL   H37519365   1.998   0.532   7.731  0.1981  1.4052  0.9302
   46MOL   H37619366   2.201   0.505   7.607 -2.1267 -1.5069 -0.7201
   46MOL   H37719367   2.389   0.353   7.697  0.4168 -0.0448  0.2778
   46MOL   H37819368   2.569   0.010   0.162  2.1704 -1.5129  0.9588
   46MOL   H37919369   2.591   0.073   0.329 -1.1080 -1.5944  0.6797
   46MOL   C38019370   2.752   0.103   0.204  0.6975 -0.0409 -0.3081
   46MOL   O38119371   2.794   0.224   0.272  0.6895 -0.1302 -0.6518
   46MOL   C38219372   2.816   0.227   0.417 -0.4678 -0.5685 -0.0296
   46MOL   O38319373   2.937   0.171   0.458  0.0087 -0.3401  0.6853
   46MOL   C38419374   3.051   0.236   0.423  0.3515 -0.3222 -0.8977
   46MOL   C38519375   3.161   0.215   0.510 -0.2462  0.1166  0.5917
   46MOL   C38619376   3.292   0.263   0.479  0.0437  0.3086 -0.0032
   46MOL   C38719377   3.308   0.339   0.359 -0.2302  0.1788 -0.0756
   46MOL   C38819378   3.192   0.373   0.284 -0.7633  0.5305 -0.6694
   46MOL   C38919379   3.067   0.325   0.315 -0.0066 -0.0122 -0.0571
   46MOL   C39019380   2.809   0.102   0.060  0.5082  0.8323 -0.6481
   46MOL   H39119381   2.792   0.013   0.251 -0.3791 -0.2413  0.2263
   46MOL   H39219382   2.805   0.332   0.444  1.3403 -0.3510 -0.0639
   46MOL   H39319383   2.727   0.183   0.462  0.4836 -1.3234  1.1380
   46MOL   H39419384   3.156   0.148   0.594  1.4166  0.3668  0.9129
   46MOL   H39519385   3.367   0.264   0.557 -1.1944 -2.7512  1.3161
   46MOL   H39619386   3.401   0.389   0.338 -0.4807  0.1027 -1.3867
   46MOL   H39719387   3.199   0.447   0.207  1.0642  0.0885 -0.9528
   46MOL   H39819388   2.983   0.359   0.255 -0.1988 -0.8682 -0.2812
   46MOL   H39919389   2.914   0.130   0.067 -0.2486  3.3108  1.6512
   46MOL   H40019390   2.753   0.177   0.004  0.3013  1.3613  0.2553
   46MOL   C40119391   2.810   7.939   7.965 -0.3320 -0.8801 -0.6736
   46MOL   O40219392   2.672   7.922   7.929 -0.8808  0.0335  0.1881
   46MOL   C40319393   2.648   7.797   7.866 -0.8324  0.0543 -0.0003
   46MOL   O40419394   2.512   7.787   7.842  0.2879  0.7003  0.1275
   46MOL   C40519395   2.461   7.665   7.810  0.1290 -0.1046 -0.0462
   46MOL   C40619396   2.327   7.633   7.832 -0.6184 -0.4240 -0.6129
   46MOL   C40719397   2.275   7.506   7.788  0.4236 -0.0054  0.7859
   46MOL   C40819398   2.355   7.417   7.719  0.1253  0.4205  0.0508
   46MOL   C40919399   2.493   7.445   7.701  0.2116 -0.0314 -0.2452
   46MOL   C41019400   2.543   7.571   7.738  0.4335  0.1677  0.2740
   46MOL   C41119401   2.904   7.938   7.846  0.0483  0.5389 -0.0694
   46MOL   H41219402   2.828   7.854   0.054  1.3148 -3.1535 -3.9847
   46MOL   H41319403   2.673   7.723   7.942  2.8319  1.3339  0.1410
   46MOL   H41419404   2.709   7.786   7.777 -0.9505 -1.4314  0.0941
   46MOL   H41519405   2.267   7.705   7.885 -1.3816 -0.3294 -1.5984
   46MOL   H41619406   2.171   7.483   7.804 -0.1175 -0.8552 -3.4733
   46MOL   H41719407   2.319   7.319   7.691 -2.4563  1.2161  0.3583
   46MOL   H41819408   2.553   7.370   7.651  0.8044  1.0627 -1.2303
   46MOL   H41919409   2.647   7.589   7.715  0.0671 -0.4233 -1.9124
   46MOL   H42019410   2.927   7.836   7.817 -0.8125  0.2042  0.3979
   46MOL   H42119411   2.997   0.017   7.861  0.5914  0.6530 -3.5483
   46MOL   H42219412   2.856   0.010   7.761 -0.0130 -3.3419 -2.3171
   47MOL     C119413   6.264   3.927   1.621  0.5546 -0.0532  0.4509
   47MOL     O219414   6.136   3.918   1.693 -0.3253 -0.3758 -0.1266
   47MOL     C319415   6.075   3.798   1.675 -0.2522 -0.2563 -1.0854
   47MOL     O419416   6.101   3.720   1.782 -0.0418 -0.3947  0.2062
   47MOL     C519417   6.076   3.581   1.765 -0.0712  0.7510  0.0141
   47MOL     C619418   6.001   3.522   1.659  0.3794 -0.6145 -1.1598
   47MOL     C719419   6.004   3.384   1.640 -0.2286  1.1195  0.0943
   47MOL     C819420   6.053   3.294   1.741 -0.5203  0.7672  0.1202
   47MOL     C919421   6.117   3.346   1.851 -0.5999  0.2094 -0.8094
   47MOL    C1019422   6.131   3.491   1.863 -0.2098  0.1053 -0.9085
   47MOL    C1119423   6.383   3.845   1.676  0.0679  0.3631 -0.2720
   47MOL    H1219424   6.248   3.902   1.516 -1.7428  3.5146 -0.1437
   47MOL    H1319425   5.967   3.814   1.678 -0.0348  0.9766  1.1664
   47MOL    H1419426   6.107   3.751   1.582  3.1013 -1.7972  0.7534
   47MOL    H1519427   5.937   3.583   1.597  0.2847  0.7521  0.2592
   47MOL    H1619428   5.942   3.352   1.558  1.2790  0.0816 -0.6769
   47MOL    H1719429   6.038   3.187   1.734  0.3288  0.6344  0.2278
   47MOL    H1819430   6.166   3.279   1.919  0.3792  0.4313 -1.2911
   47MOL    H1919431   6.193   3.530   1.942  2.6690 -3.8908 -1.0630
   47MOL    H2019432   6.372   3.736   1.673  2.5294  0.1114 -1.3001
   47MOL    H2119433   6.389   3.868   1.782 -0.2786 -2.2334  0.3595
   47MOL    H2219434   6.282   4.035   1.619 -0.7366  0.1685  0.3956
   47MOL    C2319435   6.519   3.878   1.621 -0.0582  0.4368 -0.2867
   47MOL    O2419436   6.535   3.848   1.480  0.0345  0.2351  0.0610
   47MOL    C2519437   6.634   3.920   1.421 -0.4185  0.2332 -0.3471
   47MOL    O2619438   6.598   4.054   1.419  0.1252  0.2032 -0.8261
   47MOL    C2719439   6.689   4.146   1.373  0.5321  0.9155 -1.1435
   47MOL    C2819440   6.827   4.118   1.354 -0.4835  0.4381 -0.0534
   47MOL    C2919441   6.914   4.218   1.305  0.3951 -0.0207 -0.1206
   47MOL    C3019442   6.863   4.347   1.278 -0.2239 -0.3819  0.0159
   47MOL    C3119443   6.725   4.378   1.303 -0.3271  0.5161 -0.5513
   47MOL    C3219444   6.642   4.282   1.353 -0.2465  0.5998 -0.2004
   47MOL    C3319445   6.632   3.795   1.708 -0.5502 -0.1239  0.2338
   47MOL    H3419446   6.522   3.986   1.634  1.7069  0.2746  0.7493
   47MOL    H3519447   6.622   3.895   1.316  2.1098 -1.0602 -0.3635
   47MOL    H3619448   6.725   3.894   1.475 -0.5832 -0.4279 -0.3848
   47MOL    H3719449   6.868   4.019   1.364  0.7145  0.9384  0.0621
   47MOL    H3819450   7.018   4.203   1.282  0.3832  1.4499 -1.1881
   47MOL    H3919451   6.931   4.421   1.239 -2.1038  0.8457 -1.0171
   47MOL    H4019452   6.690   4.474   1.266 -1.7383  0.4820  0.6483
   47MOL    H4119453   6.536   4.302   1.361 -0.5209 -1.1653  1.0525
   47MOL    H4219454   6.673   3.705   1.662  1.5316  0.5268  0.7865
   47MOL    H4319455   6.572   3.754   1.789 -2.2095 -1.5853 -1.6832
   47MOL    C4419456   6.738   3.888   1.765  0.3828 -0.6691 -0.3137
   47MOL    O4519457   6.861   3.820   1.771 -0.3168  0.8262  0.0793
   47MOL    C4619458   6.953   3.847   1.666  0.2519 -0.2941  0.0525
   47MOL    O4719459   7.003   3.971   1.669  0.3292 -0.0701  0.2095
   47MOL    C4819460   7.082   4.023   1.774 -0.2642  0.2583  0.5129
   47MOL    C4919461   7.171   3.937   1.852  0.0730 -0.5130 -0.6002
   47MOL    C5019462   7.264   3.995   1.944 -0.3776  0.4203  0.2066
   47MOL    C5119463   7.260   4.136   1.972  0.3160 -0.1254  0.5350
   47MOL    C5219464   7.175   4.215   1.891 -0.3354  0.0865  0.5400
   47MOL    C5319465   7.092   4.162   1.791  0.1115  0.6143  0.0211
   47MOL    C5419466   6.686   3.942   1.903  0.0288 -0.0832 -0.0955
   47MOL    H5519467   6.750   3.979   1.706  0.0799  0.4802  1.3860
   47MOL    H5619468   6.901   3.825   1.572 -1.3920 -1.1464  1.1346
   47MOL    H5719469   7.039   3.782   1.677  0.8009  0.2784 -0.7389
   47MOL    H5819470   7.163   3.830   1.840 -0.5211 -0.1798 -3.4408
   47MOL    H5919471   7.330   3.929   1.999 -0.7868 -0.0584  0.1279
   47MOL    H6019472   7.334   4.170   2.043  2.2720  0.1120 -1.5467
   47MOL    H6119473   7.180   4.322   1.900  0.0642  0.1923 -0.7650
   47MOL    H6219474   7.026   4.220   1.728 -1.6614  0.1729  1.4523
   47MOL    H6319475   6.580   3.920   1.917 -0.1176 -0.2068 -1.3823
   47MOL    H6419476   6.739   3.892   1.985  0.8183  0.6345 -0.1629
   47MOL    C6519477   6.713   4.102   1.921  0.4176 -0.1565 -1.0513
   47MOL    O6619478   6.653   4.164   1.807 -0.1578 -0.2166 -0.1416
   47MOL    C6719479   6.723   4.267   1.740 -0.0165  0.4575 -0.2945
   47MOL    O6819480   6.759   4.375   1.824  0.2490 -0.3027 -0.8744
   47MOL    C6919481   6.824   4.486   1.768  0.7016 -0.1642 -0.5684
   47MOL    C7019482   6.845   4.602   1.854 -0.0212 -1.0316  0.6284
   47MOL    C7119483   6.931   4.701   1.812  0.3448  0.9537  0.3022
   47MOL    C7219484   6.959   4.712   1.677  0.5009  0.1003 -0.2473
   47MOL    C7319485   6.938   4.604   1.585 -0.0805 -0.0468  0.2695
   47MOL    C7419486   6.872   4.491   1.630  0.5320 -0.3832 -0.8525
   47MOL    C7519487   6.653   4.165   2.047 -0.6504  0.1929  0.5745
   47MOL    H7619488   6.821   4.116   1.917  0.5937 -1.1406  0.2391
   47MOL    H7719489   6.670   4.290   1.648 -1.4356  0.1887  0.4409
   47MOL    H7819490   6.814   4.217   1.708 -1.9694 -2.4933 -1.5540
   47MOL    H7919491   6.804   4.607   1.954 -0.6475 -0.9131  0.3730
   47MOL    H8019492   6.942   4.789   1.874 -0.1360 -0.3290  2.2639
   47MOL    H8119493   7.012   4.802   1.646 -0.4239  1.0207  0.8246
   47MOL    H8219494   6.962   4.620   1.480  0.8244  1.9716  0.7542
   47MOL    H8319495   6.855   4.415   1.555  0.3228 -0.5390 -0.6495
   47MOL    H8419496   6.681   4.271   2.047 -2.0096  0.5551 -0.2085
   47MOL    H8519497   6.545   4.157   2.052 -0.8269  1.1873 -1.0757
   47MOL    C8619498   6.711   4.114   2.176  0.3291  0.5947 -0.5114
   47MOL    O8719499   6.850   4.129   2.170  0.3221 -0.2554  0.6205
   47MOL    C8819500   6.935   4.022   2.189  0.0953  0.6039 -0.6710
   47MOL    O8919501   6.937   3.977   2.322 -0.1368 -0.3909 -0.7634
   47MOL    C9019502   7.057   3.954   2.382  0.0903 -0.4579 -1.1669
   47MOL    C9119503   7.073   3.986   2.517 -0.1836 -0.3461  0.1762
   47MOL    C9219504   7.190   3.949   2.588  0.1249 -0.1320 -0.5432
   47MOL    C9319505   7.287   3.869   2.520 -0.4768 -0.3128  0.1033
   47MOL    C9419506   7.271   3.836   2.380 -0.3985  0.3474  0.4706
   47MOL    C9519507   7.154   3.876   2.314  0.2181 -0.3882  0.4559
   47MOL    C9619508   6.655   4.187   2.308  1.0362  0.0313  0.2104
   47MOL    H9719509   6.692   4.006   2.183 -2.7478  0.9994 -1.9944
   47MOL    H9819510   7.030   4.067   2.160  1.2628 -2.6845 -2.2301
   47MOL    H9919511   6.926   3.937   2.120  0.8084 -0.4549  0.5266
   47MOL   H10019512   6.988   4.033   2.565  1.6884  3.5920 -0.1526
   47MOL   H10119513   7.196   3.979   2.691  1.2688 -1.9897 -0.0350
   47MOL   H10219514   7.373   3.833   2.574 -0.0084  0.0507 -0.3900
   47MOL   H10319515   7.357   3.788   2.335 -0.8927 -0.0014 -0.1151
   47MOL   H10419516   7.133   3.849   2.212  0.3211  0.3541  0.2377
   47MOL   H10519517   6.683   4.292   2.322 -0.4727  0.4238  0.3118
   47MOL   H10619518   6.549   4.206   2.290  0.8346 -2.3655 -1.3647
   47MOL   C10719519   6.665   4.111   2.444 -0.7038  1.0208 -0.2146
   47MOL   O10819520   6.639   4.205   2.554 -0.0543 -0.0624  0.5666
   47MOL   C10919521   6.745   4.275   2.610  0.0744  0.4016 -0.5477
   47MOL   O11019522   6.800   4.207   2.723  0.3049 -0.2960  0.1281
   47MOL   C11119523   6.934   4.220   2.751  0.4166 -0.7263  0.8676
   47MOL   C11219524   7.018   4.315   2.692  0.1321 -0.3938  0.3556
   47MOL   C11319525   7.150   4.341   2.732 -0.4683  0.6472 -0.1815
   47MOL   C11419526   7.202   4.260   2.839 -0.5803  0.4284 -0.2186
   47MOL   C11519527   7.124   4.161   2.896  0.4589 -0.0974 -0.3553
   47MOL   C11619528   6.989   4.137   2.847 -0.7513  0.0185  0.4043
   47MOL   C11719529   6.577   3.993   2.456  0.0048 -0.1516  0.8743
   47MOL   H11819530   6.768   4.079   2.461 -0.7403 -1.2482 -3.6487
   47MOL   H11919531   6.714   4.377   2.634 -1.1143  0.3189 -1.6885
   47MOL   H12019532   6.819   4.293   2.533  0.8543 -0.5525 -0.0373
   47MOL   H12119533   6.983   4.388   2.621  1.1574  0.5850  0.8399
   47MOL   H12219534   7.205   4.414   2.675  1.0863 -1.1575 -1.0645
   47MOL   H12319535   7.298   4.289   2.878 -0.5737  0.1954 -0.0610
   47MOL   H12419536   7.143   4.092   2.978 -1.3912  1.1170  1.1449
   47MOL   H12519537   6.932   4.053   2.885 -0.0297 -0.7830 -0.2537
   47MOL   H12619538   6.560   3.942   2.361  0.2122  1.5879 -0.1121
   47MOL   H12719539   6.480   4.020   2.496 -0.7704 -2.9597  1.0164
   47MOL   C12819540   6.629   3.883   2.548  1.2796  0.2432  0.3777
   47MOL   O12919541   6.600   3.748   2.505  0.7088 -0.2029 -0.2101
   47MOL   C13019542   6.696   3.693   2.417  0.1578 -0.0007 -0.3666
   47MOL   O13119543   6.823   3.654   2.473 -0.1219 -0.8006 -0.0163
   47MOL   C13219544   6.916   3.591   2.394  0.0646 -0.2562  0.8092
   47MOL   C13319545   6.902   3.564   2.260  0.1425 -0.1882  0.3735
   47MOL   C13419546   7.004   3.501   2.191 -0.4602 -0.2240 -0.2651
   47MOL   C13519547   7.130   3.475   2.247  0.2290  0.1190  0.3762
   47MOL   C13619548   7.144   3.499   2.383  0.1375  0.9317 -0.0086
   47MOL   C13719549   7.034   3.556   2.458 -0.0261 -0.0860  0.5997
   47MOL   C13819550   6.573   3.903   2.691 -0.3071  0.3184  0.5191
   47MOL   H13919551   6.738   3.887   2.542  1.2272 -0.5307 -1.3503
   47MOL   H14019552   6.725   3.758   2.335 -1.7471  1.1683 -0.1607
   47MOL   H14119553   6.643   3.602   2.389 -0.9058  0.4259  0.2004
   47MOL   H14219554   6.815   3.604   2.209 -0.3122 -0.5092  0.9007
   47MOL   H14319555   6.971   3.492   2.088 -1.8148 -2.7309  0.3355
   47MOL   H14419556   7.203   3.417   2.192 -1.3694  0.8776 -2.6831
   47MOL   H14519557   7.232   3.464   2.435 -0.2867  1.0283  0.7786
   47MOL   H14619558   7.043   3.569   2.565  1.6414 -3.2670  0.9172
   47MOL   H14719559   6.580   4.010   2.711 -2.1137 -0.0190  3.2584
   47MOL   H14819560   6.466   3.887   2.707 -0.3684 -0.0970 -0.3033
   47MOL   C14919561   6.655   3.856   2.807  0.7759 -0.3806  0.1141
   47MOL   O15019562   6.586   3.877   2.926 -0.2403 -0.3382 -0.8174
   47MOL   C15119563   6.630   3.973   3.017  0.3741 -0.2809  0.0108
   47MOL   O15219564   6.567   3.948   3.134 -0.1250 -0.2981  0.0678
   47MOL   C15319565   6.439   4.005   3.153  0.2920  0.2242 -0.2719
   47MOL   C15419566   6.350   4.050   3.054  0.6696  0.1884  0.7449
   47MOL   C15519567   6.227   4.108   3.082  0.2038 -0.0546 -0.4267
   47MOL   C15619568   6.177   4.106   3.213 -0.2753  0.8248 -0.1805
   47MOL   C15719569   6.270   4.073   3.316 -0.8522  0.4308  0.0028
   47MOL   C15819570   6.396   4.019   3.286  0.6227 -0.0145  0.0976
   47MOL   C15919571   6.671   3.703   2.818  0.0933 -0.1183 -0.5913
   47MOL   H16019572   6.754   3.899   2.815  0.1989  0.5671  3.2394
   47MOL   H16119573   6.735   3.955   3.040 -0.1343 -0.5798  2.2742
   47MOL   H16219574   6.614   4.072   2.974  0.1805 -0.1432  0.3988
   47MOL   H16319575   6.378   4.031   2.952  2.0071 -1.8602  1.4525
   47MOL   H16419576   6.158   4.135   3.003  1.1523  1.9615 -0.5878
   47MOL   H16519577   6.080   4.143   3.243 -0.6894  0.6089 -1.2267
   47MOL   H16619578   6.239   4.086   3.419 -0.6759 -0.6709  0.1953
   47MOL   H16719579   6.459   4.000   3.372  0.1051 -0.8354  0.2983
   47MOL   H16819580   6.697   3.659   2.722 -2.3788  0.6990 -1.6909
   47MOL   H16919581   6.573   3.666   2.847  0.2142  0.2783  0.3292
   47MOL   C17019582   6.783   3.672   2.922 -0.3987 -0.3554  0.3717
   47MOL   O17119583   6.754   3.551   2.991 -0.5172  0.2908  0.1778
   47MOL   C17219584   6.682   3.571   3.108 -0.1361  0.4091  0.9248
   47MOL   O17319585   6.758   3.583   3.225 -0.2173  0.4872  0.8024
   47MOL   C17419586   6.698   3.627   3.340  0.0828 -0.3687 -0.6963
   47MOL   C17519587   6.557   3.628   3.360 -0.2535 -0.9061 -0.4565
   47MOL   C17619588   6.511   3.675   3.486 -0.4326 -0.3688  0.4622
   47MOL   C17719589   6.597   3.713   3.583  0.0147 -0.7718 -0.1202
   47MOL   C17819590   6.734   3.710   3.561  0.2994  0.0340 -0.0623
   47MOL   C17919591   6.783   3.668   3.438 -0.4983  0.0163  0.7011
   47MOL   C18019592   6.917   3.643   2.848  0.4349  0.0300 -0.8853
   47MOL   H18119593   6.793   3.752   2.995  2.0415 -0.3824  0.1053
   47MOL   H18219594   6.616   3.485   3.110 -1.2679  1.2259 -0.0309
   47MOL   H18319595   6.616   3.654   3.083 -1.5138 -0.9611 -0.0109
   47MOL   H18419596   6.476   3.601   3.293  1.5161 -1.2742 -2.4887
   47MOL   H18519597   6.410   3.661   3.523  0.0683  0.3684  2.1360
   47MOL   H18619598   6.551   3.740   3.677  1.1686  2.2957 -0.3817
   47MOL   H18719599   6.804   3.725   3.641 -0.6717  1.6042  0.4982
   47MOL   H18819600   6.888   3.650   3.423 -0.3918 -1.4027  2.8460
   47MOL   H18919601   6.907   3.558   2.780 -0.7891 -2.1452  1.8644
   47MOL   H19019602   6.934   3.733   2.790  3.7071 -1.1528 -1.8712
   47MOL   C19119603   7.040   3.633   2.944  0.2461  0.4509 -0.3143
   47MOL   O19219604   7.062   3.768   2.998  0.7210  0.0879 -0.1723
   47MOL   C19319605   7.148   3.779   3.105 -0.4486  0.7762  0.0416
   47MOL   O19419606   7.164   3.907   3.146 -0.3122  0.1242 -0.8789
   47MOL   C19519607   7.051   3.969   3.203 -0.3001 -0.3870 -0.4402
   47MOL   C19619608   7.077   4.097   3.259  0.1111  0.2119  0.4405
   47MOL   C19719609   6.979   4.171   3.316  0.4103  0.4069 -0.3626
   47MOL   C19819610   6.853   4.113   3.345 -0.2761  0.0809 -0.4642
   47MOL   C19919611   6.832   3.982   3.297 -0.1555  0.8726  0.0228
   47MOL   C20019612   6.927   3.909   3.224 -1.0141 -0.3407  0.1815
   47MOL   C20119613   7.172   3.579   2.876  0.3376 -0.0133  0.0155
   47MOL   H20219614   7.012   3.569   3.028  1.8411 -1.4649 -1.2180
   47MOL   H20319615   7.246   3.741   3.077  0.5309  2.9204  0.5011
   47MOL   H20419616   7.115   3.719   3.190 -0.7018  0.3650 -0.3403
   47MOL   H20519617   7.179   4.130   3.252  0.6335 -0.9173  2.2572
   47MOL   H20619618   6.993   4.275   3.338 -1.8353  0.2729  1.9549
   47MOL   H20719619   6.771   4.170   3.385  1.0863  1.0597  1.0281
   47MOL   H20819620   6.736   3.936   3.315 -0.2778  1.9794  2.4812
   47MOL   H20919621   6.897   3.821   3.169  0.0621 -0.8425  0.3684
   47MOL   H21019622   7.180   3.644   2.789  2.8825 -1.3158 -0.7830
   47MOL   H21119623   7.258   3.589   2.942 -0.4391 -0.1429  1.0504
   47MOL   C21219624   7.172   3.421   2.853  0.4985  0.1808 -0.1313
   47MOL   O21319625   7.291   3.378   2.795 -0.3465  0.2539 -0.3219
   47MOL   C21419626   7.279   3.264   2.712  0.2031  0.2763  0.4615
   47MOL   O21519627   7.320   3.291   2.581 -0.0713 -0.3360  0.5958
   47MOL   C21619628   7.340   3.187   2.499 -0.4338  0.5620 -0.1055
   47MOL   C21719629   7.409   3.218   2.381 -0.1157  0.4237  0.3533
   47MOL   C21819630   7.426   3.119   2.280  0.5459 -0.1350 -0.4880
   47MOL   C21919631   7.390   2.986   2.301  1.0718 -0.4260 -0.5812
   47MOL   C22019632   7.333   2.957   2.425  0.8413  0.2284 -0.7425
   47MOL   C22119633   7.307   3.054   2.521 -0.1457  0.0972  0.4347
   47MOL   C22219634   7.178   3.340   2.981  0.5143  0.6271 -0.2838
   47MOL   H22319635   7.088   3.397   2.789 -0.2220  2.3825 -0.0731
   47MOL   H22419636   7.181   3.214   2.712 -0.5829  1.7348  3.2715
   47MOL   H22519637   7.354   3.194   2.747  0.7225 -0.2117 -1.5723
   47MOL   H22619638   7.439   3.320   2.363  3.4769 -0.3653  1.4853
   47MOL   H22719639   7.468   3.151   2.186 -0.9834 -0.7020 -1.3734
   47MOL   H22819640   7.400   2.904   2.231 -0.7765 -0.7721 -0.4688
   47MOL   H22919641   7.309   2.855   2.450  1.5538  0.4981  1.0657
   47MOL   H23019642   7.268   3.022   2.616  0.5054 -0.5019  0.5013
   47MOL   H23119643   7.245   3.255   2.973  0.0252  0.1925  0.1841
   47MOL   H23219644   7.229   3.390   3.063 -0.7763  0.2757  0.7548
   47MOL   C23319645   7.040   3.285   3.031  0.5231  0.0401 -0.1026
   47MOL   O23419646   7.016   3.171   2.948 -0.2844  0.0094 -0.0905
   47MOL   C23519647   6.883   3.142   2.942 -0.2019 -0.2403  0.3563
   47MOL   O23619648   6.822   3.250   2.875 -0.2567 -0.6182  0.1082
   47MOL   C23719649   6.689   3.247   2.843 -0.2727  1.0417 -0.6209
   47MOL   C23819650   6.631   3.346   2.760 -1.1433  0.4032 -0.5075
   47MOL   C23919651   6.495   3.356   2.731 -0.1175  0.0851  0.3347
   47MOL   C24019652   6.407   3.267   2.792  0.8122 -0.0411  0.7150
   47MOL   C24119653   6.460   3.169   2.879 -0.0635 -0.0742 -0.2758
   47MOL   C24219654   6.601   3.154   2.899  0.1784  0.1059 -0.9439
   47MOL   C24319655   7.047   3.268   3.183 -0.6326  0.0975  0.1273
   47MOL   H24419656   6.967   3.364   3.016 -1.4933 -1.6555  0.5704
   47MOL   H24519657   6.833   3.121   3.036 -1.8863 -1.0776 -0.7001
   47MOL   H24619658   6.861   3.056   2.879  0.5387 -0.5341  0.4919
   47MOL   H24719659   6.700   3.414   2.713  1.1958 -2.6434 -1.6799
   47MOL   H24819660   6.459   3.422   2.654  1.2814  0.9581  0.3988
   47MOL   H24919661   6.306   3.266   2.755  0.8664 -1.8124  0.5596
   47MOL   H25019662   6.398   3.091   2.920  0.1577 -0.1372 -0.0576
   47MOL   H25119663   6.640   3.079   2.966  0.3533  0.9396 -0.1029
   47MOL   H25219664   7.077   3.366   3.221  0.6811 -0.4389  0.5169
   47MOL   H25319665   6.942   3.256   3.208 -0.3114  0.1044  1.5498
   47MOL   C25419666   7.122   3.145   3.234 -0.1718 -0.3047  0.3052
   47MOL   O25519667   7.258   3.172   3.260 -0.4713  0.4792  0.1694
   47MOL   C25619668   7.332   3.051   3.243 -0.2687 -0.3542 -0.3679
   47MOL   O25719669   7.359   3.022   3.104 -0.0116  0.0097 -0.0385
   47MOL   C25819670   7.470   3.081   3.059  0.5061 -0.5006 -0.1007
   47MOL   C25919671   7.546   3.025   2.955  1.2905  0.2005 -0.8523
   47MOL   C26019672   7.644   3.093   2.886 -0.0287  0.3804  0.3086
   47MOL   C26119673   7.674   3.231   2.922  0.1739  0.2772 -0.5805
   47MOL   C26219674   7.612   3.283   3.038 -0.0918  0.2931 -0.1501
   47MOL   C26319675   7.510   3.215   3.100  0.4129  0.0795 -0.0285
   47MOL   C26419676   7.064   3.108   3.372 -1.4345  0.1426  0.2738
   47MOL   H26519677   7.121   3.080   3.147  0.8512  1.2760 -0.9319
   47MOL   H26619678   7.273   2.971   3.288  1.7079 -1.7302 -0.1777
   47MOL   H26719679   7.419   3.056   3.309 -0.9725 -0.9802  0.6147
   47MOL   H26819680   7.521   2.922   2.931  2.7048 -0.8223  1.8833
   47MOL   H26919681   7.691   3.038   2.807  0.1895  2.4847 -1.0625
   47MOL   H27019682   7.745   3.286   2.862  0.3613 -0.1140 -0.7162
   47MOL   H27119683   7.633   3.381   3.079  4.1627  0.3950 -2.2509
   47MOL   H27219684   7.445   3.268   3.168 -0.5333  2.0307 -2.3706
   47MOL   H27319685   7.136   3.060   3.438 -2.0552 -0.4527  0.5236
   47MOL   H27419686   7.054   3.203   3.424  0.2551 -0.7543  2.3484
   47MOL   C27519687   6.924   3.033   3.370 -0.0122  0.7998  0.1883
   47MOL   O27619688   6.959   2.897   3.340 -0.1917 -0.5397 -0.0937
   47MOL   C27719689   6.920   2.855   3.210  0.0539  0.1692 -0.9741
   47MOL   O27819690   6.780   2.878   3.187  0.3253 -0.4882  0.2348
   47MOL   C27919691   6.689   2.810   3.264 -0.2958 -1.2191 -0.4138
   47MOL   C28019692   6.716   2.710   3.360  0.0464 -0.4947  0.9858
   47MOL   C28119693   6.608   2.643   3.423  0.1597 -0.0367 -1.3261
   47MOL   C28219694   6.473   2.671   3.388  0.3816  0.2661  0.2064
   47MOL   C28319695   6.445   2.769   3.295  0.2514  0.1182 -0.3091
   47MOL   C28419696   6.551   2.835   3.234  0.0230  0.1341 -0.4665
   47MOL   C28519697   6.842   3.052   3.500 -0.2937  0.7783 -0.1786
   47MOL   H28619698   6.860   3.075   3.294  2.2667  1.0167 -1.6641
   47MOL   H28719699   6.938   2.748   3.200  0.9363  0.1933  0.3141
   47MOL   H28819700   6.992   2.902   3.143  1.0134 -0.6414 -0.5250
   47MOL   H28919701   6.817   2.677   3.382 -0.4674 -1.7552  1.4555
   47MOL   H29019702   6.618   2.575   3.507 -0.2231  1.2564 -0.2199
   47MOL   H29119703   6.391   2.621   3.439  0.5796 -1.3786 -1.0339
   47MOL   H29219704   6.344   2.790   3.262 -0.4665 -1.0569  1.1005
   47MOL   H29319705   6.522   2.908   3.160 -1.7054  0.9819  0.9778
   47MOL   H29419706   6.882   3.023   3.597 -1.0837  1.6735  0.4270
   47MOL   H29519707   6.770   2.971   3.498  1.1513 -0.5057 -0.4627
   47MOL   C29619708   6.751   3.180   3.493 -0.1785 -1.0116  0.3062
   47MOL   O29719709   6.649   3.141   3.400  0.0735 -0.1688 -0.3066
   47MOL   C29819710   6.597   3.256   3.333  0.4380  1.0320 -0.2860
   47MOL   O29919711   6.482   3.228   3.255 -0.0270  0.4295  0.2475
   47MOL   C30019712   6.369   3.167   3.308 -0.1715  0.1247 -0.4840
   47MOL   C30119713   6.365   3.099   3.432  0.0106  0.1813 -0.3443
   47MOL   C30219714   6.242   3.039   3.472  0.5151 -0.5723 -0.2218
   47MOL   C30319715   6.122   3.060   3.401 -0.3087  0.4425 -0.2958
   47MOL   C30419716   6.132   3.124   3.272 -0.4679 -0.5127 -0.4399
   47MOL   C30519717   6.252   3.171   3.221 -0.0690 -0.3694 -0.7088
   47MOL   C30619718   6.692   3.208   3.632 -0.3252  0.6269  0.3807
   47MOL   H30719719   6.811   3.264   3.461 -0.1597 -1.8233 -1.8651
   47MOL   H30819720   6.677   3.283   3.264  0.6655  2.2890  0.4459
   47MOL   H30919721   6.581   3.343   3.396  0.4406  2.9432 -2.8137
   47MOL   H31019722   6.442   3.087   3.507  0.3733  2.2689 -0.3358
   47MOL   H31119723   6.239   2.995   3.570 -0.5823  0.1885  0.0982
   47MOL   H31219724   6.021   3.033   3.430  0.0814 -0.7139 -0.0035
   47MOL   H31319725   6.041   3.130   3.216 -1.6684  1.0417  1.6009
   47MOL   H31419726   6.257   3.218   3.124  0.3429 -2.4501 -1.7131
   47MOL   H31519727   6.646   3.115   3.665 -1.0621  1.7743  2.6646
   47MOL   H31619728   6.613   3.281   3.614 -0.9382 -0.1342 -0.0308
   47MOL   C31719729   6.796   3.263   3.734  0.5532 -0.1675 -0.0281
   47MOL   O31819730   6.722   3.291   3.845  0.4168 -0.3619 -0.4195
   47MOL   C31919731   6.762   3.222   3.963 -0.1847  0.2733  1.0814
   47MOL   O32019732   6.731   3.086   3.960  0.0776  0.3276  0.1435
   47MOL   C32119733   6.605   3.044   3.918  0.2543  0.4143 -0.3019
   47MOL   C32219734   6.479   3.114   3.917 -0.0681  0.9072  0.0523
   47MOL   C32319735   6.366   3.063   3.866  0.2858  0.6201 -0.4468
   47MOL   C32419736   6.365   2.936   3.807  0.4152 -0.4605  0.1906
   47MOL   C32519737   6.478   2.865   3.806 -0.6191  0.0029  0.1048
   47MOL   C32619738   6.599   2.918   3.860 -0.6417  0.1818  0.2695
   47MOL   C32719739   6.873   3.388   3.701 -0.0612 -0.1886  0.6838
   47MOL   H32819740   6.875   3.190   3.750 -1.9422 -3.3177 -1.5647
   47MOL   H32919741   6.719   3.270   4.051 -0.3710 -0.3684  1.3399
   47MOL   H33019742   6.868   3.219   3.990  0.9188 -0.7817 -3.1240
   47MOL   H33119743   6.483   3.209   3.970  2.1612  1.2877 -0.7262
   47MOL   H33219744   6.278   3.126   3.868  1.2336  1.9276  1.4208
   47MOL   H33319745   6.274   2.898   3.764  1.0594 -1.2116 -0.5178
   47MOL   H33419746   6.475   2.764   3.768 -1.1023  0.3769 -0.8419
   47MOL   H33519747   6.690   2.860   3.860 -1.0610 -0.4914  1.3256
   47MOL   H33619748   6.907   3.389   3.597 -2.4133  1.7572 -0.1440
   47MOL   H33719749   6.809   3.477   3.697  0.2609  0.0199  0.0029
   47MOL   C33819750   6.990   3.420   3.799 -0.1167 -0.6177  0.2489
   47MOL   O33919751   7.094   3.328   3.771  0.3752  0.0559  0.5830
   47MOL   C34019752   7.155   3.269   3.884 -1.0972  0.6147 -0.4839
   47MOL   O34119753   7.293   3.256   3.860  0.0314 -0.0039  0.6979
   47MOL   C34219754   7.348   3.151   3.789 -0.1957 -1.2828 -0.1545
   47MOL   C34319755   7.489   3.115   3.792 -0.3218 -0.7741 -0.6818
   47MOL   C34419756   7.539   3.006   3.718 -0.1284  0.0134 -0.0252
   47MOL   C34519757   7.455   2.926   3.639  0.2732  0.5726  0.8400
   47MOL   C34619758   7.317   2.959   3.633 -0.4140  0.1133  0.5577
   47MOL   C34719759   7.270   3.065   3.709  0.0202 -0.0113 -0.4606
   47MOL   C34819760   7.050   3.553   3.758 -0.5499  0.3203 -0.5398
   47MOL   H34919761   6.961   3.421   3.904  0.4308  1.0962  0.3957
   47MOL   H35019762   7.112   3.180   3.930 -0.2817 -0.4292 -1.6690
   47MOL   H35119763   7.152   3.337   3.969  3.9764 -1.2274  1.3592
   47MOL   H35219764   7.570   3.163   3.846 -0.5050  0.4601 -1.4817
   47MOL   H35319765   7.643   2.974   3.722 -0.6758 -1.8101  0.1305
   47MOL   H35419766   7.501   2.838   3.597  2.7714  0.8876  2.7680
   47MOL   H35519767   7.243   2.892   3.592 -0.0889 -1.0285  1.7770
   47MOL   H35619768   7.163   3.077   3.702 -0.1550  0.4396  2.4811
   47MOL   H35719769   6.972   3.626   3.736  0.7458  2.3399  1.3167
   47MOL   H35819770   7.089   3.546   3.657 -0.0905 -1.5523 -0.2567
   47MOL   C35919771   7.146   3.630   3.855  0.3730 -0.1113  0.1404
   47MOL   O36019772   7.067   3.666   3.973  0.0161  0.4815  0.4794
   47MOL   C36119773   7.137   3.676   4.092 -0.0573 -0.2464  0.2925
   47MOL   O36219774   7.206   3.564   4.136 -0.2040  0.1240  0.2060
   47MOL   C36319775   7.172   3.511   4.260 -0.5242  0.3013 -0.2468
   47MOL   C36419776   7.279   3.469   4.342 -0.6074  0.8321 -0.5088
   47MOL   C36519777   7.254   3.414   4.469 -0.9877 -0.3942 -0.3054
   47MOL   C36619778   7.124   3.390   4.510  0.0049  0.1634  0.7768
   47MOL   C36719779   7.013   3.430   4.430 -0.2854 -0.1386  0.0424
   47MOL   C36819780   7.038   3.497   4.304  0.5881  0.1336  0.1787
   47MOL   C36919781   7.224   3.743   3.789 -0.9453 -0.7060 -0.3178
   47MOL   H37019782   7.225   3.560   3.882  0.5537 -0.0010 -0.0983
   47MOL   H37119783   7.070   3.712   4.169  0.4732 -1.1119  1.1801
   47MOL   H37219784   7.211   3.755   4.079  1.2714 -0.9639  3.1152
   47MOL   H37319785   7.383   3.489   4.321 -0.8503  2.1010 -0.5372
   47MOL   H37419786   7.334   3.400   4.540 -0.5001  1.4671 -0.4650
   47MOL   H37519787   7.101   3.340   4.603 -3.0178 -1.5098 -0.7958
   47MOL   H37619788   6.910   3.400   4.445  0.0471 -0.8419  0.9176
   47MOL   H37719789   6.958   3.527   4.238  1.5410  0.5105 -0.8148
   47MOL   H37819790   7.281   3.701   3.706 -0.2371 -0.9796  0.3002
   47MOL   H37919791   7.299   3.774   3.861  1.3748 -3.1291 -1.5884
   47MOL   C38019792   7.152   3.875   3.758  0.0636 -0.1722 -0.2655
   47MOL   O38119793   7.215   3.919   3.646  0.0593 -0.4214 -0.5466
   47MOL   C38219794   7.144   3.889   3.526 -0.5946  0.0538 -0.4137
   47MOL   O38319795   7.139   3.756   3.506  0.2927  0.3622 -0.4559
   47MOL   C38419796   7.260   3.703   3.459  0.3457  0.3124 -0.1872
   47MOL   C38519797   7.367   3.779   3.412  0.0848 -0.3293  0.5641
   47MOL   C38619798   7.471   3.718   3.338  0.3077 -0.0596 -0.5619
   47MOL   C38719799   7.472   3.583   3.313  0.1128 -0.0799  0.5686
   47MOL   C38819800   7.370   3.503   3.370 -0.3830 -0.1487  0.3101
   47MOL   C38919801   7.263   3.564   3.440 -0.3143 -0.5145  0.2418
   47MOL   C39019802   7.169   3.981   3.875  0.0245  0.7725 -0.1551
   47MOL   H39119803   7.045   3.865   3.738 -0.3161  2.2368  0.4634
   47MOL   H39219804   7.041   3.925   3.528 -1.0431 -1.1927 -0.6263
   47MOL   H39319805   7.189   3.936   3.439  0.2134  1.7565  0.8888
   47MOL   H39419806   7.380   3.884   3.434 -0.6786  0.8484 -4.1325
   47MOL   H39519807   7.555   3.782   3.315 -0.6211  1.2590 -0.3943
   47MOL   H39619808   7.556   3.546   3.256  1.3373  3.0700  0.2467
   47MOL   H39719809   7.369   3.396   3.350 -4.0862  0.1683 -1.8126
   47MOL   H39819810   7.183   3.506   3.484 -0.0386 -1.0011  0.1090
   47MOL   H39919811   7.273   4.012   3.863  0.0775  0.1166 -1.6007
   47MOL   H40019812   7.163   3.930   3.971 -0.0487  1.2208  0.0785
   47MOL   C40119813   7.086   4.110   3.893  0.2889 -0.1376  0.4431
   47MOL   O40219814   7.158   4.190   3.985  0.3514 -0.2965  0.3699
   47MOL   C40319815   7.115   4.206   4.116  0.3231 -0.0858 -0.2036
   47MOL   O40419816   7.126   4.094   4.202  0.7347 -0.3214  0.4347
   47MOL   C40519817   7.248   4.040   4.237  0.0806  0.1994  0.4588
   47MOL   C40619818   7.372   4.060   4.171  0.0447 -0.0602 -0.5994
   47MOL   C40719819   7.490   3.989   4.206  0.3129  0.2771 -0.5193
   47MOL   C40819820   7.486   3.898   4.317 -0.2242 -0.8921  0.9808
   47MOL   C40919821   7.366   3.883   4.390  0.5596 -0.1818 -0.0905
   47MOL   C41019822   7.250   3.949   4.346  0.0331 -0.1592  0.4156
   47MOL   C41119823   7.059   4.186   3.762 -0.0285  0.1521  0.3757
   47MOL   H41219824   6.989   4.077   3.928  0.3863  0.7427  1.5933
   47MOL   H41319825   7.013   4.243   4.113  0.1437 -0.4941  0.7224
   47MOL   H41419826   7.177   4.281   4.166  0.7396 -1.6268  1.6303
   47MOL   H41519827   7.371   4.132   4.091  1.3117  0.9457  0.2849
   47MOL   H41619828   7.578   4.005   4.146  0.7385  0.2568  0.0832
   47MOL   H41719829   7.576   3.845   4.345  1.6965  1.5980 -0.2483
   47MOL   H41819830   7.363   3.808   4.468  1.8286 -0.7150 -0.5335
   47MOL   H41919831   7.158   3.951   4.402 -0.0554  2.0025  0.2352
   47MOL   H42019832   7.021   4.117   3.686  0.8670 -2.1440  1.9808
   47MOL   H42119833   7.147   4.230   3.715 -0.3335  0.3099 -0.0538
   47MOL   H42219834   6.978   4.258   3.775 -0.2170  0.1103 -0.4859
   48MOL     C119835   5.485   6.150   0.296 -0.1536  0.0514  0.4535
   48MOL     O219836   5.536   6.276   0.327 -0.4511 -0.6912 -0.3343
   48MOL     C319837   5.650   6.311   0.257 -0.2754  0.3555 -0.2487
   48MOL     O419838   5.649   6.301   0.118  0.0493 -0.1958  0.0437
   48MOL     C519839   5.556   6.373   0.043 -0.1538  0.2922  0.5446
   48MOL     C619840   5.570   6.343   7.885 -0.0307 -0.9266  0.1117
   48MOL     C719841   5.493   6.416   7.798  0.0624 -0.8920  0.0365
   48MOL     C819842   5.402   6.514   7.839 -0.0049 -0.7472  0.3175
   48MOL     C919843   5.394   6.551   7.975 -0.6165  0.3517 -0.3277
   48MOL    C1019844   5.466   6.475   0.087 -0.5793  0.6465  0.5050
   48MOL    C1119845   5.387   6.112   0.412 -0.5125 -0.4898  0.2051
   48MOL    H1219846   5.427   6.154   0.204 -0.1154  0.7533  0.4515
   48MOL    H1319847   5.672   6.411   0.293 -0.8999 -0.0407  1.2985
   48MOL    H1419848   5.726   6.238   0.288 -0.5961 -0.3075 -1.0235
   48MOL    H1519849   5.637   6.269   7.844 -0.8034 -1.0002 -1.0379
   48MOL    H1619850   5.504   6.391   7.693 -0.3878  2.3037 -0.8369
   48MOL    H1719851   5.345   6.577   7.773  1.3577  0.4071  0.2088
   48MOL    H1819852   5.332   6.636   0.023 -1.0381 -0.0469  0.0135
   48MOL    H1919853   5.453   6.507   0.189 -0.3761  2.9632 -0.1592
   48MOL    H2019854   5.310   6.186   0.431  2.0091  2.0917  0.7104
   48MOL    H2119855   5.454   6.111   0.497  2.3912  1.2081 -1.9600
   48MOL    H2219856   5.562   6.076   0.277 -0.6552 -0.0158 -1.4836
   48MOL    C2319857   5.317   5.975   0.392 -0.2478  0.2203 -0.2339
   48MOL    O2419858   5.212   5.963   0.494  0.0426 -0.0238 -0.0807
   48MOL    C2519859   5.082   5.999   0.458  0.8295  0.2671 -0.2031
   48MOL    O2619860   5.042   5.909   0.354 -0.1068 -0.4464 -0.1829
   48MOL    C2719861   5.021   5.776   0.381  0.5351 -0.3345  0.4371
   48MOL    C2819862   4.994   5.729   0.509  0.0672  0.4439  0.2607
   48MOL    C2919863   4.961   5.592   0.531 -0.2288 -0.4510 -1.2018
   48MOL    C3019864   4.953   5.503   0.418 -0.2899 -0.6076 -0.3085
   48MOL    C3119865   4.986   5.550   0.287  0.7521  0.2541 -0.4022
   48MOL    C3219866   5.019   5.684   0.271  0.3637 -0.7518 -0.3938
   48MOL    C3319867   5.416   5.853   0.418 -0.2331 -0.4766 -0.2911
   48MOL    H3419868   5.272   5.973   0.293  0.8370 -0.7264 -0.7185
   48MOL    H3519869   5.087   6.101   0.419  1.6387  0.5800  0.7104
   48MOL    H3619870   5.012   6.007   0.541  0.0253  2.9729 -1.1045
   48MOL    H3719871   4.993   5.794   0.595  1.1334  0.2400  0.4340
   48MOL    H3819872   4.948   5.558   0.633  0.6294 -1.0532 -1.2866
   48MOL    H3919873   4.953   5.396   0.429 -2.5410 -0.7422 -1.2725
   48MOL    H4019874   4.993   5.475   0.210  1.2692 -1.0709  0.8966
   48MOL    H4119875   5.041   5.727   0.174 -0.2504 -0.0239 -0.2179
   48MOL    H4219876   5.379   5.801   0.506  2.0865  0.2921  1.1741
   48MOL    H4319877   5.518   5.885   0.438  0.6954 -1.5430 -3.0742
   48MOL    C4419878   5.408   5.754   0.296 -0.2981 -0.9082  0.6911
   48MOL    O4519879   5.488   5.647   0.343 -0.6713 -0.6433  0.0400
   48MOL    C4619880   5.437   5.533   0.395  0.0825 -0.1597  0.6462
   48MOL    O4719881   5.445   5.428   0.307  0.5681 -0.6924  0.3083
   48MOL    C4819882   5.340   5.337   0.312 -0.2183  0.2702 -0.1385
   48MOL    C4919883   5.290   5.276   0.202  0.0723 -0.1809 -0.1441
   48MOL    C5019884   5.174   5.198   0.205 -0.0778 -0.3851 -0.1076
   48MOL    C5119885   5.111   5.161   0.326  0.0864 -0.1137 -0.0658
   48MOL    C5219886   5.162   5.226   0.443 -0.1395  0.9054 -0.7802
   48MOL    C5319887   5.276   5.308   0.438  0.3874  0.1130  0.1547
   48MOL    C5419888   5.488   5.814   0.176 -0.7332  1.5102 -0.4728
   48MOL    H5519889   5.309   5.722   0.264 -0.0570 -0.8022 -0.1637
   48MOL    H5619890   5.335   5.545   0.432 -0.6169 -1.7139 -0.7052
   48MOL    H5719891   5.499   5.495   0.477  1.0992  1.1523  0.4974
   48MOL    H5819892   5.328   5.304   0.105 -3.0190 -0.1421 -1.3864
   48MOL    H5919893   5.137   5.146   0.118  0.4331 -2.7994  1.0723
   48MOL    H6019894   5.021   5.101   0.319 -0.6552  1.1633 -1.8765
   48MOL    H6119895   5.115   5.201   0.537 -0.5588  0.4484 -1.1036
   48MOL    H6219896   5.319   5.346   0.529  0.6766  0.0222  0.0587
   48MOL    H6319897   5.424   5.891   0.132  0.4306  1.3744 -2.4801
   48MOL    H6419898   5.581   5.851   0.220 -1.4116 -0.7271  2.9585
   48MOL    C6519899   5.522   5.719   0.058  0.2788  0.2477  0.4528
   48MOL    O6619900   5.393   5.702   7.959  0.4152 -0.1828  0.1841
   48MOL    C6719901   5.362   5.572   7.943  0.1687  0.1691  0.2227
   48MOL    O6819902   5.449   5.500   7.867 -0.7488  0.5480 -0.2744
   48MOL    C6919903   5.433   5.511   7.735  0.1453  0.1021  0.6417
   48MOL    C7019904   5.500   5.411   7.655 -0.2680 -0.1738  0.4103
   48MOL    C7119905   5.492   5.425   7.517 -0.3448  0.0653  0.1175
   48MOL    C7219906   5.418   5.525   7.452  0.2458  0.0484 -0.2984
   48MOL    C7319907   5.360   5.629   7.530  0.8199  0.1749 -0.1555
   48MOL    C7419908   5.371   5.621   7.673  0.3290  0.3125  0.1767
   48MOL    C7519909   5.626   5.779   7.931  0.4554  0.3384  0.3055
   48MOL    H7619910   5.559   5.630   0.109  0.5987 -0.5814 -1.1905
   48MOL    H7719911   5.260   5.549   7.914 -0.5794  2.2794  1.0386
   48MOL    H7819912   5.367   5.529   0.067 -1.0860  1.1324  0.7234
   48MOL    H7919913   5.548   5.326   7.701  2.8279  0.2426 -1.8734
   48MOL    H8019914   5.550   5.358   7.455 -1.7557 -0.2881 -0.8567
   48MOL    H8119915   5.434   5.536   7.346  2.3164  0.8785  0.0639
   48MOL    H8219916   5.315   5.714   7.481  0.3413  1.4719  2.4369
   48MOL    H8319917   5.337   5.708   7.726 -2.5836  0.4712 -1.8177
   48MOL    H8419918   5.649   5.699   7.860 -0.9176  1.0315 -0.9600
   48MOL    H8519919   5.567   5.851   7.874 -2.1219 -1.7523  0.2463
   48MOL    C8619920   5.766   5.831   0.010 -0.8916  0.2995 -0.4990
   48MOL    O8719921   5.865   5.726   0.028 -0.2537  0.0684  0.4213
   48MOL    C8819922   5.868   5.655   0.154  0.1737  0.1125 -0.4572
   48MOL    O8919923   5.879   5.736   0.265  0.2140 -0.0787  0.2334
   48MOL    C9019924   5.859   5.686   0.392 -0.1889 -0.5292 -0.3528
   48MOL    C9119925   5.847   5.778   0.497 -0.2219  0.3371  0.0748
   48MOL    C9219926   5.831   5.743   0.626 -0.3772 -0.3091 -0.0115
   48MOL    C9319927   5.819   5.609   0.656 -0.6871  0.0789  0.3661
   48MOL    C9419928   5.827   5.514   0.556 -0.1183 -0.0967  0.8184
   48MOL    C9519929   5.851   5.552   0.423 -0.4934 -0.1407 -0.1953
   48MOL    C9619930   5.825   5.947   7.904 -0.1188  0.0721 -0.0510
   48MOL    H9719931   5.748   5.870   0.110 -0.2039 -1.4066  0.3118
   48MOL    H9819932   5.958   5.592   0.154 -0.5904 -0.9928 -0.9439
   48MOL    H9919933   5.778   5.595   0.158 -0.3758  0.9219 -0.5369
   48MOL   H10019934   5.865   5.881   0.470 -0.8214  0.0629 -1.4017
   48MOL   H10119935   5.845   5.820   0.701 -2.2122  0.5340 -0.5081
   48MOL   H10219936   5.819   5.598   0.764 -0.9745  1.0811  0.4735
   48MOL   H10319937   5.813   5.408   0.574  3.3014 -0.4067  1.9088
   48MOL   H10419938   5.869   5.479   0.345  0.0352 -2.1653  1.7754
   48MOL   H10519939   5.836   5.894   7.810 -0.4703  0.6201 -0.4085
   48MOL   H10619940   5.762   6.036   7.896  1.1755  0.9583 -0.3857
   48MOL   C10719941   5.968   5.988   7.954 -0.2535  0.0655  0.3913
   48MOL   O10819942   6.032   6.077   7.859 -0.1077 -0.0084 -0.7911
   48MOL   C10919943   6.132   6.029   7.775 -0.6135  0.0513  0.3428
   48MOL   O11019944   6.249   6.004   7.839  0.1837  0.1234 -0.0775
   48MOL   C11119945   6.353   5.956   7.767 -0.4717  0.2752 -0.2239
   48MOL   C11219946   6.339   5.954   7.625 -0.4100 -0.3344  0.4605
   48MOL   C11319947   6.449   5.906   7.550  0.3596 -0.9038  0.0113
   48MOL   C11419948   6.562   5.857   7.613  0.1402  0.4784 -0.5087
   48MOL   C11519949   6.579   5.856   7.750 -0.1896 -0.1921  0.3063
   48MOL   C11619950   6.478   5.912   7.830 -0.0603  0.4246  0.4547
   48MOL   C11719951   5.965   6.061   0.111 -0.5460 -0.7709 -0.1634
   48MOL   H11819952   6.018   5.892   7.964 -2.0447 -0.8836  0.4209
   48MOL   H11919953   6.159   6.112   7.711  1.4225 -0.4773  0.5052
   48MOL   H12019954   6.099   5.937   7.726 -0.5964 -1.2777  2.7179
   48MOL   H12119955   6.251   5.977   7.567 -0.8315 -2.3080  0.2988
   48MOL   H12219956   6.433   5.902   7.443 -2.8044  1.2496  0.3305
   48MOL   H12319957   6.642   5.818   7.552 -1.5429 -0.3237 -2.2442
   48MOL   H12419958   6.679   5.826   7.778  1.3537 -0.4908 -4.9859
   48MOL   H12519959   6.500   5.920   7.935  0.0130  0.1834  0.4593
   48MOL   H12619960   5.914   6.002   0.187 -1.4665  1.6660  1.2009
   48MOL   H12719961   5.902   6.150   0.097 -0.3954 -0.4262  1.2641
   48MOL   C12819962   6.111   6.107   0.160 -0.0254 -0.2267  0.4240
   48MOL   O12919963   6.178   6.031   0.256  0.2652  0.6937  0.7210
   48MOL   C13019964   6.191   5.904   0.204  0.0093 -0.0330  0.1020
   48MOL   O13119965   6.270   5.833   0.293 -0.1445  0.4112 -0.2497
   48MOL   C13219966   6.402   5.861   0.304 -0.7260  0.6600 -0.2632
   48MOL   C13319967   6.482   5.763   0.367  0.2715  0.3995  0.6136
   48MOL   C13419968   6.618   5.790   0.377 -0.0145 -0.0026  0.1329
   48MOL   C13519969   6.675   5.914   0.350 -0.2517  0.2104 -0.1396
   48MOL   C13619970   6.595   6.011   0.285  0.5564  0.1461 -0.5895
   48MOL   C13719971   6.460   5.984   0.256 -0.4280  0.2511  0.4805
   48MOL   C13819972   6.109   6.248   0.226 -0.4164 -0.0581 -0.0881
   48MOL   H13919973   6.180   6.108   0.075  0.3703 -1.5896  0.7123
   48MOL   H14019974   6.221   5.898   0.100  0.6626  2.3565  0.1286
   48MOL   H14119975   6.103   5.841   0.212 -0.1997 -0.1449 -2.5997
   48MOL   H14219976   6.435   5.671   0.398 -1.8168  2.4319  3.7183
   48MOL   H14319977   6.671   5.715   0.434  0.9278  0.2192 -0.4405
   48MOL   H14419978   6.775   5.934   0.385  0.2308 -0.1375 -1.2898
   48MOL   H14519979   6.628   6.114   0.272 -0.2596  0.3734 -0.8946
   48MOL   H14619980   6.405   6.067   0.213  1.7834  0.7871 -1.4570
   48MOL   H14719981   6.020   6.251   0.289 -0.8560  1.3990 -0.7522
   48MOL   H14819982   6.198   6.261   0.287  0.8429  1.0908 -2.1059
   48MOL   C14919983   6.100   6.368   0.128 -0.3755  0.0297  0.1440
   48MOL   O15019984   6.030   6.471   0.188  0.1974 -0.1304  0.6318
   48MOL   C15119985   5.928   6.544   0.122  0.8895 -0.0058 -0.1184
   48MOL   O15219986   5.983   6.631   0.029  0.5212 -0.0145 -0.3725
   48MOL   C15319987   5.901   6.694   7.917 -0.2030 -0.1620  0.4223
   48MOL   C15419988   5.955   6.798   7.834  0.1167 -0.3012  0.1921
   48MOL   C15519989   5.877   6.874   7.740 -0.2444  1.0929 -0.7006
   48MOL   C15619990   5.742   6.847   7.735  0.8198 -0.3683  0.0615
   48MOL   C15719991   5.688   6.730   7.801 -0.9528  0.1043 -0.4473
   48MOL   C15819992   5.769   6.654   7.891 -0.1447 -0.5747  0.1223
   48MOL   C15919993   6.239   6.415   0.080 -0.2879 -0.3182  0.4123
   48MOL   H16019994   6.049   6.338   0.036 -1.1238 -0.6548  0.7717
   48MOL   H16119995   5.858   6.472   0.079  3.7196 -3.8130  1.4212
   48MOL   H16219996   5.874   6.595   0.202 -0.8214 -1.2042 -0.4678
   48MOL   H16319997   6.060   6.819   7.837 -0.0554  0.8649 -1.4410
   48MOL   H16419998   5.915   6.952   7.676  0.9854  2.9705  2.1819
   48MOL   H16519999   5.676   6.910   7.678  1.9793  1.1648  0.3822
   48MOL   H16620000   5.583   6.710   7.788 -0.9312  0.7263 -1.7861
   48MOL   H16720001   5.728   6.568   7.942 -0.7704  0.8043  1.9973
   48MOL   H16820002   6.227   6.489   0.001  2.9617  0.4656  0.5737
   48MOL   H16920003   6.285   6.329   0.032 -1.3154 -0.0993 -1.0034
   48MOL   C17020004   6.330   6.472   0.186  0.3161  0.0769 -0.1033
   48MOL   O17120005   6.408   6.363   0.236  0.3264 -0.2044 -0.5104
   48MOL   C17220006   6.431   6.368   0.372  0.3927 -0.1439  0.1042
   48MOL   O17320007   6.492   6.493   0.411 -0.5273  0.0650  0.0011
   48MOL   C17420008   6.470   6.537   0.537  0.6967  0.3473 -0.0987
   48MOL   C17520009   6.485   6.672   0.558 -0.0518 -0.5583 -0.8218
   48MOL   C17620010   6.449   6.730   0.682  0.4468  0.3177 -0.1203
   48MOL   C17720011   6.384   6.658   0.785  0.5127  0.0350  0.7678
   48MOL   C17820012   6.379   6.518   0.767 -0.1965  0.5047 -0.3343
   48MOL   C17920013   6.419   6.456   0.645 -0.1240 -0.0302  0.6916
   48MOL   C18020014   6.425   6.584   0.136  0.4663 -0.2034 -0.6487
   48MOL   H18120015   6.274   6.516   0.268 -0.9462 -2.3757  0.3746
   48MOL   H18220016   6.501   6.286   0.389  1.2603  0.4411 -0.6017
   48MOL   H18320017   6.330   6.356   0.411  0.7335  0.2100  1.0997
   48MOL   H18420018   6.523   6.738   0.481 -0.4908 -0.1154 -0.6603
   48MOL   H18520019   6.472   6.835   0.695 -0.0240  0.6921 -2.2275
   48MOL   H18620020   6.352   6.706   0.876  0.1560 -0.7579  1.0680
   48MOL   H18720021   6.337   6.457   0.846  0.4644 -0.6296 -0.8418
   48MOL   H18820022   6.405   6.350   0.633 -2.3090  0.3730 -0.6740
   48MOL   H18920023   6.505   6.611   0.205  0.6068 -0.1241 -0.8445
   48MOL   H19020024   6.475   6.530   0.055  1.0166 -1.1470  0.2956
   48MOL   C19120025   6.374   6.718   0.089  0.1014  0.0965 -0.1888
   48MOL   O19220026   6.469   6.789   0.006  0.1935  0.5574 -0.1496
   48MOL   C19320027   6.449   6.757   7.843 -0.2537 -0.1263 -1.0290
   48MOL   O19420028   6.325   6.799   7.787 -0.2488  0.0057  0.4504
   48MOL   C19520029   6.321   6.909   7.708 -0.6538 -0.1641 -0.7108
   48MOL   C19620030   6.415   7.010   7.711 -0.5812  0.0107 -0.5843
   48MOL   C19720031   6.396   7.128   7.640 -0.1128 -0.5998  0.3159
   48MOL   C19820032   6.288   7.139   7.554 -0.0658  0.4038 -0.0133
   48MOL   C19920033   6.199   7.025   7.534 -0.0817  0.2176  0.0314
   48MOL   C20020034   6.209   6.918   7.627 -0.4196  0.1977 -0.3903
   48MOL   C20120035   6.314   6.806   0.198  0.3558  0.0757  0.3614
   48MOL   H20220036   6.280   6.695   0.037  0.9972  1.2201 -2.3586
   48MOL   H20320037   6.448   6.648   7.837  0.9310 -0.0885 -2.3237
   48MOL   H20420038   6.538   6.791   7.790  0.9247  0.1867  1.0894
   48MOL   H20520039   6.503   7.001   7.774 -1.0922 -0.8381  0.0192
   48MOL   H20620040   6.469   7.206   7.661  0.9818 -1.6712  0.5759
   48MOL   H20720041   6.284   7.230   7.496 -0.2106  0.7965  0.6140
   48MOL   H20820042   6.119   7.034   7.462  0.7262 -0.1035 -0.9166
   48MOL   H20920043   6.135   6.840   7.619 -1.6443  1.1699  1.1945
   48MOL   H21020044   6.243   6.738   0.244 -0.1009 -0.5182 -1.2054
   48MOL   H21120045   6.383   6.833   0.279 -0.0781  0.5149  0.5852
   48MOL   C21220046   6.242   6.936   0.146  0.6407 -0.4248  0.1927
   48MOL   O21320047   6.140   6.938   0.245  0.3656 -0.5973  0.0974
   48MOL   C21420048   6.008   6.906   0.203 -0.2367 -0.0352  0.3012
   48MOL   O21520049   5.934   6.917   0.323  0.6591  0.1958 -0.2799
   48MOL   C21620050   5.801   6.892   0.314 -0.8452  0.1618 -0.1799
   48MOL   C21720051   5.721   6.921   0.433  0.0416  0.0563  0.2926
   48MOL   C21820052   5.587   6.901   0.435 -0.4143  0.5789  0.1955
   48MOL   C21920053   5.514   6.848   0.330  0.0066  0.0001 -0.2903
   48MOL   C22020054   5.582   6.832   0.207  0.4715 -0.1609 -0.1131
   48MOL   C22120055   5.725   6.852   0.203  0.8504  0.1164  1.1107
   48MOL   C22220056   6.327   7.060   0.149 -0.4118 -0.4262 -0.1103
   48MOL   H22320057   6.204   6.920   0.045  2.7944 -3.5894 -0.1649
   48MOL   H22420058   6.007   6.802   0.171 -2.3672 -0.5188  1.8376
   48MOL   H22520059   5.979   6.969   0.119  2.1129  0.9427  0.1804
   48MOL   H22620060   5.765   6.962   0.522  0.9659 -0.2907  0.0038
   48MOL   H22720061   5.525   6.928   0.519 -1.3705  1.3317 -0.7385
   48MOL   H22820062   5.406   6.842   0.336  0.0952  0.0070  1.6969
   48MOL   H22920063   5.532   6.803   0.116 -0.2884 -0.1740  0.3062
   48MOL   H23020064   5.767   6.837   0.105 -0.6255 -0.7568  0.6079
   48MOL   H23120065   6.387   7.058   0.240  2.8176 -2.3100 -2.1635
   48MOL   H23220066   6.401   7.048   0.070  0.5762  1.3794  0.5003
   48MOL   C23320067   6.257   7.199   0.140  0.5051  0.3294 -0.1925
   48MOL   O23420068   6.346   7.307   0.170 -0.0574 -0.0622 -0.4241
   48MOL   C23520069   6.375   7.319   0.308 -0.0345  0.6785  0.0460
   48MOL   O23620070   6.353   7.440   0.369 -0.3093  0.1547  0.0299
   48MOL   C23720071   6.437   7.542   0.323 -0.1924 -0.1473  0.0606
   48MOL   C23820072   6.523   7.536   0.211 -0.0193  0.3368  0.8737
   48MOL   C23920073   6.609   7.640   0.189 -0.3490  0.0072  0.1115
   48MOL   C24020074   6.617   7.747   0.276 -1.1051  0.7106 -0.0590
   48MOL   C24120075   6.523   7.767   0.378  0.2003 -0.6240 -0.3565
   48MOL   C24220076   6.439   7.660   0.402  0.0538  0.0076 -0.0984
   48MOL   C24320077   6.206   7.224   0.003 -0.0513 -0.8162 -0.5135
   48MOL   H24420078   6.173   7.189   0.209  1.0208  2.6030  0.8050
   48MOL   H24520079   6.481   7.298   0.322  0.0835  0.4744 -1.1722
   48MOL   H24620080   6.319   7.245   0.366 -2.0939  1.8028 -0.4396
   48MOL   H24720081   6.528   7.448   0.149  0.9424  0.7373  0.3772
   48MOL   H24820082   6.680   7.647   0.108 -1.2189  1.9648 -0.5048
   48MOL   H24920083   6.691   7.824   0.268  0.2233 -0.7245 -1.9388
   48MOL   H25020084   6.528   7.845   0.453 -0.1105 -0.5928 -0.3684
   48MOL   H25120085   6.381   7.676   0.491 -1.3894 -1.1224 -0.8162
   48MOL   H25220086   6.291   7.207   7.912  1.1166 -0.3372  0.8348
   48MOL   H25320087   6.135   7.147   7.947 -1.3083 -0.6368  1.8114
   48MOL   C25420088   6.136   7.356   7.955 -0.0294 -0.1985 -0.4512
   48MOL   O25520089   6.099   7.367   7.817 -0.5648 -0.3427 -0.6497
   48MOL   C25620090   6.199   7.405   7.728  0.6405  0.0670  0.0098
   48MOL   O25720091   6.254   7.535   7.761 -0.1794  0.2304  0.0291
   48MOL   C25820092   6.201   7.648   7.709 -0.2745 -0.5204 -0.8642
   48MOL   C25920093   6.287   7.757   7.695 -0.0995  0.3002 -0.4729
   48MOL   C26020094   6.232   7.872   7.644 -0.4175  0.3057  0.7373
   48MOL   C26120095   6.097   7.876   7.605  1.0308  0.9052 -0.3165
   48MOL   C26220096   6.009   7.768   7.621  0.4313  0.9377 -0.5148
   48MOL   C26320097   6.062   7.653   7.678  0.2857  0.6210 -0.0413
   48MOL   C26420098   6.005   7.378   0.058  0.4181 -0.1982 -0.2738
   48MOL   H26520099   6.205   7.439   7.974  0.4355 -0.9846  1.4345
   48MOL   H26620100   6.158   7.410   7.627 -0.4196 -1.7715  0.3277
   48MOL   H26720101   6.273   7.326   7.740 -0.4748 -0.7805  1.3625
   48MOL   H26820102   6.394   7.746   7.708 -0.1978  1.3782  1.4323
   48MOL   H26920103   6.296   7.958   7.635 -2.3837  1.8708  1.4100
   48MOL   H27020104   6.060   7.966   7.557 -0.8800  0.1515 -0.2811
   48MOL   H27120105   5.903   7.776   7.600  0.1794 -0.6844  0.0515
   48MOL   H27220106   6.001   7.566   7.696  0.2438  0.2016 -2.0801
   48MOL   H27320107   5.928   7.442   0.015 -1.1879 -0.2700  2.3306
   48MOL   H27420108   5.947   7.286   0.054  0.5153 -0.2412 -0.6336
   48MOL   C27520109   6.024   7.439   0.205  0.0218  0.0889  0.8804
   48MOL   O27620110   6.016   7.583   0.193 -0.1871 -0.1189 -0.1747
   48MOL   C27720111   6.127   7.652   0.144 -0.2378  0.3121  0.3524
   48MOL   O27820112   6.123   7.783   0.176  0.1927 -0.1733  0.1485
   48MOL   C27920113   6.223   7.872   0.132 -0.0565  0.1964  0.7589
   48MOL   C28020114   6.211   0.035   0.174  0.5169  0.1303 -0.1776
   48MOL   C28120115   6.314   0.125   0.139 -0.2736  0.2914 -0.1049
   48MOL   C28220116   6.420   0.086   0.051  0.0424  0.0442  0.3368
   48MOL   C28320117   6.428   7.925   0.005 -0.6501 -0.0094 -0.4709
   48MOL   C28420118   6.331   7.832   0.052 -0.3632  0.6339 -0.1905
   48MOL   C28520119   5.928   7.378   0.308 -0.0906  0.1256  0.5232
   48MOL   H28620120   6.124   7.420   0.241 -0.1002 -0.2446  1.0433
   48MOL   H28720121   6.142   7.644   0.036 -0.4865 -1.6569  0.4418
   48MOL   H28820122   6.209   7.617   0.206  0.4953  1.3750 -0.0156
   48MOL   H28920123   6.131   0.062   0.242  0.0538 -0.1907 -0.5920
   48MOL   H29020124   6.305   0.225   0.179  1.3059  0.6449 -0.6085
   48MOL   H29120125   6.501   0.154   0.030  0.5524 -0.7093 -0.1846
   48MOL   H29220126   6.511   7.889   7.921  0.2093  0.8824  0.1715
   48MOL   H29320127   6.327   7.728   0.024 -3.1014  0.4173  0.8764
   48MOL   H29420128   5.916   7.272   0.287  0.7601  0.2242 -0.4912
   48MOL   H29520129   5.833   7.431   0.306 -1.3172 -2.0741 -0.5019
   48MOL   C29620130   5.975   7.385   0.452  0.3780 -0.4312  0.9529
   48MOL   O29720131   6.098   7.309   0.473  0.1372 -0.1692  0.0046
   48MOL   C29820132   6.068   7.176   0.511 -1.0196  0.6366  0.8573
   48MOL   O29920133   6.031   7.174   0.648 -0.2226  0.5503  0.5125
   48MOL   C30020134   5.982   7.058   0.711  0.6320  0.3353  0.2651
   48MOL   C30120135   6.015   6.930   0.654 -0.0297  0.4187 -0.6188
   48MOL   C30220136   5.962   6.815   0.714  0.5966 -0.8024  0.3940
   48MOL   C30320137   5.874   6.820   0.822 -0.7055 -0.1841  0.0476
   48MOL   C30420138   5.842   6.948   0.877 -0.0821 -0.2446  0.1875
   48MOL   C30520139   5.898   7.066   0.825 -0.0309 -0.3427  0.2927
   48MOL   C30620140   5.986   7.530   0.504  0.2350 -0.1358 -1.0341
   48MOL   H30720141   5.899   7.341   0.516  1.0126 -1.5063  0.9773
   48MOL   H30820142   6.165   7.127   0.503 -0.0566  2.0672  3.1999
   48MOL   H30920143   5.997   7.126   0.446 -0.1838  2.3959 -1.4834
   48MOL   H31020144   6.073   6.907   0.566 -2.4829 -0.1155 -2.1546
   48MOL   H31120145   5.985   6.720   0.670 -2.3010 -0.4864 -1.9733
   48MOL   H31220146   5.824   6.731   0.857  0.9022 -1.4062 -0.7300
   48MOL   H31320147   5.762   6.949   0.950  0.0789  2.7060  0.4012
   48MOL   H31420148   5.859   7.158   0.864  0.6318 -0.6461  1.7220
   48MOL   H31520149   5.902   7.593   0.476 -2.3154 -1.1659  3.7375
   48MOL   H31620150   6.071   7.574   0.452 -1.3279  0.3555 -3.2425
   48MOL   C31720151   5.990   7.533   0.657 -0.0501 -0.1035  0.1456
   48MOL   O31820152   5.866   7.488   0.712  0.2503 -0.4509  0.0449
   48MOL   C31920153   5.850   7.458   0.846 -0.2816 -0.6473 -0.0317
   48MOL   O32020154   5.836   7.575   0.937 -0.0373 -0.1725  0.3519
   48MOL   C32120155   5.731   7.667   0.901 -0.1210 -0.4288 -0.4323
   48MOL   C32220156   5.713   7.777   0.986 -1.1135  0.3074 -0.3233
   48MOL   C32320157   5.600   7.860   0.971  0.3513  0.1737 -0.5778
   48MOL   C32420158   5.508   7.838   0.870  0.1742  0.1543 -0.2053
   48MOL   C32520159   5.533   7.735   0.775  0.0920 -0.6583  0.6455
   48MOL   C32620160   5.637   7.648   0.803 -0.0197  0.0180  0.0847
   48MOL   C32720161   6.024   7.669   0.716 -0.5920 -0.8559 -0.3574
   48MOL   H32820162   6.068   7.465   0.693  0.4335 -0.1112 -0.9068
   48MOL   H32920163   5.934   7.400   0.886  1.8649  3.3121  1.5966
   48MOL   H33020164   5.754   7.407   0.851  0.0092 -1.3588 -1.5930
   48MOL   H33120165   5.788   7.786   1.064  0.4092  2.1931 -1.9455
   48MOL   H33220166   5.585   7.936   1.046 -0.2402 -1.2323  0.7495
   48MOL   H33320167   5.414   7.891   0.861 -0.8353 -1.5789 -0.2007
   48MOL   H33420168   5.457   7.708   0.703 -0.6050  1.9008  0.3589
   48MOL   H33520169   5.637   7.560   0.740 -3.6010 -0.1878  0.2371
   48MOL   H33620170   5.944   7.736   0.684  0.0410 -0.6292 -1.5141
   48MOL   H33720171   6.016   7.675   0.824 -0.2158 -0.3823 -0.3543
   48MOL   C33820172   6.156   7.737   0.679  0.0652  0.2518  0.3582
   48MOL   O33920173   6.116   7.867   0.645 -0.1007 -0.0246 -0.2175
   48MOL   C34020174   6.155   7.906   0.519  0.4205 -0.2749 -0.6361
   48MOL   O34120175   6.292   7.949   0.518  0.4483 -0.3714 -0.3606
   48MOL   C34220176   6.311   0.111   0.528 -0.1103  0.1984  0.4263
   48MOL   C34320177   6.395   0.183   0.438 -0.5370 -0.3074 -0.1731
   48MOL   C34420178   6.407   0.321   0.451  0.0013 -0.0081 -0.1309
   48MOL   C34520179   6.330   0.395   0.540  0.6050 -0.7364  0.0812
   48MOL   C34620180   6.245   0.332   0.633 -0.5897  0.5097 -0.1087
   48MOL   C34720181   6.246   0.190   0.628 -0.4905  0.2506 -0.2304
   48MOL   C34820182   6.272   7.739   0.789  0.1400  0.3509 -0.0286
   48MOL   H34920183   6.198   7.681   0.596  2.5026  1.2408  0.8578
   48MOL   H35020184   6.091   0.012   0.483  2.3783  2.6152  2.1868
   48MOL   H35120185   6.139   7.824   0.449  0.1568 -0.4756 -0.3420
   48MOL   H35220186   6.452   0.121   0.370 -0.3879  1.1586 -1.4057
   48MOL   H35320187   6.468   0.381   0.385 -1.1279  1.4831  0.1461
   48MOL   H35420188   6.341   0.503   0.539 -1.5245 -0.4972  0.0346
   48MOL   H35520189   6.176   0.386   0.695 -1.2553 -1.7697  1.2032
   48MOL   H35620190   6.181   0.136   0.695 -0.6396 -0.1662 -0.7110
   48MOL   H35720191   6.241   7.801   0.873  2.6035  1.5420  0.0351
   48MOL   H35820192   6.351   7.802   0.748  0.5077  0.8130  1.3787
   48MOL   C35920193   6.337   7.606   0.824  0.3448  0.3271  0.5488
   48MOL   O36020194   6.244   7.551   0.915 -0.3268 -0.1672  0.2150
   48MOL   C36120195   6.237   7.407   0.913 -0.4702 -0.5870  0.2917
   48MOL   O36220196   6.354   7.348   0.975  0.3270 -0.0594  0.4291
   48MOL   C36320197   6.359   7.215   1.007 -0.1876  0.0627  0.1439
   48MOL   C36420198   6.459   7.168   1.101  0.3170 -0.0657  0.3850
   48MOL   C36520199   6.467   7.031   1.134 -0.1299 -0.1640  0.5423
   48MOL   C36620200   6.388   6.935   1.065  0.2353 -0.0683 -0.9529
   48MOL   C36720201   6.292   6.978   0.970  0.1633  0.2398 -0.0478
   48MOL   C36820202   6.272   7.113   0.950 -0.1995  0.0970  0.1241
   48MOL   C36920203   6.471   7.620   0.898  0.6530 -0.1781 -0.2953
   48MOL   H37020204   6.344   7.540   0.738 -0.0549  0.1042  0.6892
   48MOL   H37120205   6.228   7.357   0.816 -1.1644 -1.0539  0.5969
   48MOL   H37220206   6.148   7.379   0.970 -0.6757 -0.0157  0.2492
   48MOL   H37320207   6.525   7.236   1.154  1.2016 -0.8296  0.2720
   48MOL   H37420208   6.531   6.996   1.214  0.9322 -1.9472 -1.0383
   48MOL   H37520209   6.389   6.830   1.089  1.0035 -0.0736 -0.9710
   48MOL   H37620210   6.236   6.902   0.918 -0.4420  0.7218 -0.1090
   48MOL   H37720211   6.200   7.151   0.880 -1.1972 -0.9654  0.5564
   48MOL   H37820212   6.507   7.541   0.964  1.3216  1.1465  0.9515
   48MOL   H37920213   6.478   7.701   0.970  1.7973  0.5166 -1.1602
   48MOL   C38020214   6.589   7.647   0.804  0.0461  0.5521 -0.5621
   48MOL   O38120215   6.633   7.524   0.751  0.1675 -0.4509 -0.8430
   48MOL   C38220216   6.622   7.501   0.619  0.3521 -0.6725  0.7043
   48MOL   O38320217   6.688   7.392   0.575  0.1102 -0.5761  0.0366
   48MOL   C38420218   6.611   7.277   0.566 -0.8765  0.0642  0.1069
   48MOL   C38520219   6.497   7.252   0.647 -0.4416 -0.3010  0.5345
   48MOL   C38620220   6.432   7.125   0.642  0.2823  0.3807 -0.1622
   48MOL   C38720221   6.467   7.033   0.538 -0.7149 -0.0452  0.5181
   48MOL   C38820222   6.574   7.063   0.450  0.7848  0.8069  0.3494
   48MOL   C38920223   6.650   7.178   0.472  0.8702 -0.5100 -0.2170
   48MOL   C39020224   6.712   7.710   0.882  0.0403 -0.0835  0.1114
   48MOL   H39120225   6.566   7.721   0.728 -0.0514  0.7648 -0.3265
   48MOL   H39220226   6.517   7.499   0.589  0.6665  0.7445 -0.5438
   48MOL   H39320227   6.662   7.582   0.558 -2.2895  2.0546  2.3831
   48MOL   H39420228   6.475   7.316   0.731 -0.8785 -2.9934  2.5162
   48MOL   H39520229   6.356   7.086   0.708 -0.3736  0.5750 -0.7902
   48MOL   H39620230   6.409   6.943   0.523 -1.6262  0.6826 -0.4705
   48MOL   H39720231   6.606   6.998   0.371 -1.1142  0.7605 -0.4049
   48MOL   H39820232   6.736   7.201   0.412  0.3402 -0.9394 -1.1509
   48MOL   H39920233   6.798   7.643   0.874 -0.2579 -0.4721  0.1348
   48MOL   H40020234   6.714   7.703   0.991  0.6026 -1.6248  0.0239
   48MOL   C40120235   6.762   7.846   0.837 -0.7951 -0.1282 -0.2872
   48MOL   O40220236   6.668   7.951   0.856  0.5650  0.0316  0.2006
   48MOL   C40320237   6.608   0.044   0.743  0.1275 -0.4261  0.0985
   48MOL   O40420238   6.706   0.118   0.682  0.0306 -0.8603  0.7663
   48MOL   C40520239   6.767   0.222   0.745  0.9222 -0.1408 -0.2695
   48MOL   C40620240   6.862   0.294   0.669  0.4202  0.5092  0.2620
   48MOL   C40720241   6.921   0.405   0.733  0.0553  0.0046  0.3710
   48MOL   C40820242   6.880   0.452   0.859 -1.1873 -0.4848 -0.4258
   48MOL   C40920243   6.777   0.381   0.930  0.3636  0.3087 -0.1002
   48MOL   C41020244   6.726   0.265   0.869  0.2282  0.0393 -0.4721
   48MOL   C41120245   6.886   7.881   0.916  0.4059 -0.3602  0.2712
   48MOL   H41220246   6.792   7.836   0.733 -0.0282  0.6909 -0.1505
   48MOL   H41320247   6.532   0.110   0.786  0.0982  0.8424 -1.8527
   48MOL   H41420248   6.566   7.944   0.677  2.7326 -0.6176 -1.3979
   48MOL   H41520249   6.886   0.259   0.569 -0.1771 -0.0669  0.3150
   48MOL   H41620250   7.000   0.464   0.689 -0.0809  0.2328  0.4273
   48MOL   H41720251   6.927   0.541   0.898 -2.4229 -0.0886  0.1901
   48MOL   H41820252   6.735   0.425   1.019  0.4827  2.8256 -1.2698
   48MOL   H41920253   6.642   0.229   0.927 -1.0670 -1.0117 -2.9164
   48MOL   H42020254   6.933   7.957   0.854 -1.8276  0.1299 -0.8921
   48MOL   H42120255   6.948   7.793   0.929  1.2473  0.3943  1.4214
   48MOL   H42220256   6.863   7.919   1.015 -0.1372 -1.5938  0.6314
   49MOL     C120257   7.317   1.117   5.362  0.1899 -0.5119  0.7843
   49MOL     O220258   7.290   0.974   5.342  0.1787 -0.8439  0.3730
   49MOL     C320259   7.307   0.936   5.208  0.6689 -0.2329  0.6488
   49MOL     O420260   7.269   0.803   5.179  0.2817 -0.7307 -0.4213
   49MOL     C520261   7.138   0.769   5.158  0.1953 -0.0003 -0.6661
   49MOL     C620262   7.106   0.642   5.104  0.6118 -0.0711  0.3191
   49MOL     C720263   6.972   0.603   5.093  0.5520  0.3606  0.0894
   49MOL     C820264   6.866   0.688   5.126 -0.1097 -0.4244 -0.3253
   49MOL     C920265   6.895   0.817   5.181 -0.0483  0.0326 -0.5388
   49MOL    C1020266   7.035   0.853   5.202  0.1397  0.1537 -0.0369
   49MOL    C1120267   7.292   1.161   5.506  0.1168 -0.4255  0.5162
   49MOL    H1220268   7.420   1.133   5.332 -0.1580 -0.8331 -0.6101
   49MOL    H1320269   7.251   1.000   5.140 -1.1782 -1.7955  0.6798
   49MOL    H1420270   7.416   0.939   5.202  0.6845 -0.3839  0.8724
   49MOL    H1520271   7.183   0.572   5.075  2.0936  2.0824 -1.0935
   49MOL    H1620272   6.949   0.507   5.049 -0.9651  0.8884 -0.2943
   49MOL    H1720273   6.763   0.661   5.108 -0.2320  1.4675 -2.7996
   49MOL    H1820274   6.817   0.881   5.220  0.3851  0.0337  0.3383
   49MOL    H1920275   7.048   0.953   5.240  2.3826 -0.2115  0.2403
   49MOL    H2020276   7.335   1.084   5.569  1.3427  1.0068  1.4856
   49MOL    H2120277   7.185   1.153   5.527 -0.0080  0.2129  0.1662
   49MOL    H2220278   7.269   1.187   5.294  1.3044 -1.8336 -1.3991
   49MOL    C2320279   7.328   1.304   5.542 -0.5021  0.5014 -0.8131
   49MOL    O2420280   7.300   1.387   5.429 -0.2672 -0.1894 -0.4134
   49MOL    C2520281   7.243   1.509   5.447  0.1089 -0.1059  0.4843
   49MOL    O2620282   7.129   1.509   5.525 -0.0114  1.0730 -0.0320
   49MOL    C2720283   7.022   1.431   5.487  0.0199 -0.1840 -0.3835
   49MOL    C2820284   7.017   1.360   5.365  0.1600 -0.5174 -0.2169
   49MOL    C2920285   6.908   1.281   5.337 -0.1758  0.3908 -0.0023
   49MOL    C3020286   6.811   1.250   5.430 -0.3077  0.0969  1.2986
   49MOL    C3120287   6.813   1.324   5.549 -0.4978  0.1279  0.0871
   49MOL    C3220288   6.917   1.415   5.583  0.0938  0.5837  0.8138
   49MOL    C3320289   7.472   1.330   5.581  0.0239 -0.0964 -0.2558
   49MOL    H3420290   7.267   1.326   5.630  1.2013 -2.7873  1.2726
   49MOL    H3520291   7.222   1.560   5.352  2.5416 -2.7412 -1.5521
   49MOL    H3620292   7.308   1.585   5.491  0.0168  0.4336 -0.2832
   49MOL    H3720293   7.088   1.366   5.284 -0.2416  3.1093 -0.3568
   49MOL    H3820294   6.885   1.246   5.237 -4.0817  2.3408  0.1260
   49MOL    H3920295   6.731   1.182   5.404  1.0683  0.4970 -4.6011
   49MOL    H4020296   6.741   1.301   5.626 -0.9919  0.9310 -0.1225
   49MOL    H4120297   6.911   1.455   5.683 -4.1526 -3.3015  2.2937
   49MOL    H4220298   7.472   1.436   5.608 -0.4031  0.4090 -2.1788
   49MOL    H4320299   7.532   1.317   5.491 -0.8034 -1.2610 -0.6503
   49MOL    C4420300   7.525   1.240   5.699  0.5584  0.0269  0.5825
   49MOL    O4520301   7.616   1.311   5.786  0.0293 -0.3465 -0.0510
   49MOL    C4620302   7.567   1.407   5.870  0.4210 -0.0709 -0.7533
   49MOL    O4720303   7.547   1.535   5.813 -0.4181  0.3982 -0.1508
   49MOL    C4820304   7.658   1.614   5.774  0.7352  0.9050  0.0565
   49MOL    C4920305   7.648   1.754   5.781 -0.1541  0.2724 -0.0680
   49MOL    C5020306   7.758   1.836   5.741 -0.3629  0.4314 -0.0840
   49MOL    C5120307   7.876   1.775   5.692  0.0592  0.1311 -0.0037
   49MOL    C5220308   7.894   1.639   5.702  0.2317  0.2333  0.3615
   49MOL    C5320309   7.782   1.559   5.740  0.0236  0.1244  0.2606
   49MOL    C5420310   7.604   1.118   5.655  0.0149 -0.0266 -0.2809
   49MOL    H5520311   7.441   1.209   5.761  0.2217 -0.3537 -0.0596
   49MOL    H5620312   7.631   1.422   5.957 -0.4963  0.2568 -0.1229
   49MOL    H5720313   7.473   1.364   5.905 -1.2200  0.4341 -4.3242
   49MOL    H5820314   7.557   1.799   5.819 -0.7882 -1.7372  0.8619
   49MOL    H5920315   7.751   1.943   5.734 -0.2107  0.5169  1.0580
   49MOL    H6020316   7.953   1.841   5.654  1.2282 -1.3665 -0.2852
   49MOL    H6120317   0.014   1.597   5.675  0.7741 -0.2780  2.9497
   49MOL    H6220318   7.796   1.452   5.728 -2.4368 -0.1199 -0.7369
   49MOL    H6320319   7.562   1.066   5.570  0.7555  0.9069 -1.2361
   49MOL    H6420320   7.700   1.151   5.613 -0.5901  1.9766 -0.1446
   49MOL    C6520321   7.607   1.018   5.781 -0.3815  0.3994  0.5421
   49MOL    O6620322   7.476   0.958   5.768  0.8323 -0.2288 -0.0141
   49MOL    C6720323   7.432   0.901   5.884 -0.2666 -0.4296  0.2716
   49MOL    O6820324   7.395   1.000   5.978 -0.3089  0.5124  0.3803
   49MOL    C6920325   7.276   1.065   5.965 -0.1276 -0.3402  0.3618
   49MOL    C7020326   7.192   1.046   5.853 -0.3087  0.0237  0.1897
   49MOL    C7120327   7.075   1.127   5.835 -0.8859  0.4681 -0.7520
   49MOL    C7220328   7.044   1.214   5.943 -0.3038  0.3536 -0.2514
   49MOL    C7320329   7.118   1.224   6.061  0.1121  0.4777  0.3811
   49MOL    C7420330   7.237   1.152   6.066  0.7715  0.9032  0.0061
   49MOL    C7520331   7.713   0.907   5.758 -0.0791  0.1763  0.1975
   49MOL    H7620332   7.639   1.077   5.867 -1.1286  1.5146  0.0672
   49MOL    H7720333   7.508   0.837   5.930 -0.4762 -0.7495  0.1693
   49MOL    H7820334   7.351   0.842   5.844 -1.1791  0.9043  0.1271
   49MOL    H7920335   7.222   0.985   5.769  0.2371 -0.2439  0.5774
   49MOL    H8020336   7.016   1.136   5.745 -1.7557  0.6327 -0.1753
   49MOL    H8120337   6.957   1.277   5.939 -0.2945  0.3992  0.2891
   49MOL    H8220338   7.091   1.282   6.148  0.1726  3.7727 -1.7345
   49MOL    H8320339   7.301   1.164   6.152  1.5463  0.5478 -0.5158
   49MOL    H8420340   7.716   0.816   5.819  0.2334  0.5079  0.6806
   49MOL    H8520341   7.699   0.866   5.658  2.1825  0.0701 -0.1074
   49MOL    C8620342   7.857   0.969   5.778  0.6627  0.6911  0.2432
   49MOL    O8720343   7.876   0.979   5.920 -0.0513 -0.2148  0.0789
   49MOL    C8820344   7.950   1.089   5.962 -0.7860  0.1969  0.4371
   49MOL    O8920345   0.024   1.072   6.092 -0.8230 -0.2682  0.6062
   49MOL    C9020346   7.916   1.055   6.197  0.6346 -0.2201 -0.4023
   49MOL    C9120347   7.962   1.058   6.334 -0.0540  0.9690 -0.1610
   49MOL    C9220348   7.879   1.058   6.448  0.1446  0.0674 -0.2079
   49MOL    C9320349   7.740   1.046   6.430  0.4808  0.4981 -0.1153
   49MOL    C9420350   7.687   1.042   6.296 -0.5655 -0.2592 -0.3479
   49MOL    C9520351   7.776   1.062   6.184  0.1778 -0.1090  0.0457
   49MOL    C9620352   7.973   0.869   5.741 -0.3516  0.5603 -0.1158
   49MOL    H9720353   7.877   1.065   5.731 -3.9779  1.5067 -0.2871
   49MOL    H9820354   7.891   1.180   5.949 -1.5090  0.2149  3.4410
   49MOL    H9920355   0.068   1.104   5.907 -1.2288 -1.2658 -0.7484
   49MOL   H10020356   0.091   1.062   6.360 -0.6243 -1.4898  2.8224
   49MOL   H10120357   7.914   1.044   6.549 -0.8449 -0.0880  0.1144
   49MOL   H10220358   7.666   1.046   6.508 -0.5578  2.0644 -1.0573
   49MOL   H10320359   7.580   1.042   6.280 -0.7439 -1.2314  0.7665
   49MOL   H10420360   7.735   1.069   6.085  1.3317  1.0833 -0.3613
   49MOL   H10520361   0.088   0.898   5.793 -1.3978  0.1126  2.0104
   49MOL   H10620362   7.943   0.780   5.797 -2.6019  0.7986 -0.8817
   49MOL   C10720363   0.014   0.850   5.589 -0.0092 -0.0005 -0.0838
   49MOL   O10820364   0.078   0.964   5.532  0.4074 -0.5863  0.3772
   49MOL   C10920365   0.009   1.013   5.423 -0.1002  0.0843  0.1323
   49MOL   O11020366   0.003   0.925   5.316 -0.4193  0.2092 -0.2581
   49MOL   C11120367   7.856   0.867   5.288  0.5116 -0.1794  0.3833
   49MOL   C11220368   7.850   0.776   5.183 -0.2728  0.4763 -0.4973
   49MOL   C11320369   7.729   0.702   5.160  0.1121  0.0551 -0.2252
   49MOL   C11420370   7.614   0.735   5.227  0.4634 -0.2610  0.2703
   49MOL   C11520371   7.617   0.831   5.333 -0.4381 -0.0841  0.3529
   49MOL   C11620372   7.734   0.901   5.357 -0.1598 -0.2828 -0.0195
   49MOL   C11720373   0.094   0.725   5.563  0.1356  0.1245  0.1894
   49MOL   H11820374   7.888   0.830   5.556 -0.3473 -1.0987  1.5934
   49MOL   H11920375   0.071   1.100   5.404  0.1688 -0.3325 -0.8997
   49MOL   H12020376   7.888   1.057   5.447 -0.7973 -1.0436 -0.5666
   49MOL   H12120377   7.934   0.748   5.121 -1.1160 -3.1155 -0.1694
   49MOL   H12220378   7.738   0.627   5.083  0.6487  0.4473 -0.5454
   49MOL   H12320379   7.522   0.685   5.202  0.5633  0.4215 -1.5261
   49MOL   H12420380   7.530   0.859   5.391  0.1572  1.1729  0.6519
   49MOL   H12520381   7.721   0.965   5.443  1.1142  1.7308 -1.2537
   49MOL   H12620382   0.180   0.725   5.629  0.1129  0.3492  0.2192
   49MOL   H12720383   0.133   0.727   5.461  0.3701  1.6615  0.2904
   49MOL   C12820384   0.020   0.594   5.594 -0.1711  0.1225 -0.2922
   49MOL   O12920385   0.103   0.482   5.570  0.4299 -0.8163 -0.1583
   49MOL   C13020386   0.223   0.470   5.641 -0.6877  0.2764 -0.0043
   49MOL   O13120387   0.202   0.472   5.781 -0.0134  0.0702  0.1282
   49MOL   C13220388   0.312   0.458   5.860  0.3195 -0.2709  0.0291
   49MOL   C13320389   0.441   0.412   5.813  0.5289 -0.1420  0.0109
   49MOL   C13420390   0.546   0.409   5.910  0.0570  0.2280 -0.4881
   49MOL   C13520391   0.526   0.449   6.045  0.0153  0.3363  0.6845
   49MOL   C13620392   0.397   0.492   6.082 -0.3805  0.7354 -0.1938
   49MOL   C13720393   0.291   0.504   5.991  0.2802 -0.1782  0.4808
   49MOL   C13820394   7.866   0.561   5.512 -0.9637  0.6235  0.0926
   49MOL   H13920395   7.970   0.604   5.699  0.5828  0.2209 -0.1198
   49MOL   H14020396   0.302   0.539   5.612  0.8369 -0.4725  2.2328
   49MOL   H14120397   0.273   0.379   5.609 -1.0122  0.1511 -0.1533
   49MOL   H14220398   0.457   0.382   5.711 -0.9120  2.3104 -0.9629
   49MOL   H14320399   0.646   0.381   5.881  0.0170 -0.9768  0.5095
   49MOL   H14420400   0.607   0.458   6.116  0.3084  2.1250  0.1475
   49MOL   H14520401   0.390   0.530   6.183 -0.7655  0.7747 -0.2361
   49MOL   H14620402   0.193   0.536   6.021 -0.5995 -1.1691 -1.2368
   49MOL   H14720403   7.794   0.643   5.518 -0.7455  0.7176  1.4953
   49MOL   H14820404   7.896   0.558   5.407 -1.0134 -1.0907  0.1086
   49MOL   C14920405   7.792   0.429   5.548 -0.0256 -0.2595  0.2503
   49MOL   O15020406   7.742   0.453   5.680 -0.4551  0.4692  0.1786
   49MOL   C15120407   7.799   0.373   5.777  0.2338 -0.1309 -0.9724
   49MOL   O15220408   7.727   0.378   5.895 -0.3363 -0.6513 -0.1841
   49MOL   C15320409   7.735   0.488   5.980  0.0442 -0.1155  0.3253
   49MOL   C15420410   7.849   0.569   5.974 -0.3269  0.7163  0.7364
   49MOL   C15520411   7.861   0.679   6.057 -0.4645  0.7427 -0.5413
   49MOL   C15620412   7.766   0.710   6.153  0.4389 -0.1052  0.2856
   49MOL   C15720413   7.644   0.637   6.153 -0.4837  0.6504  0.5524
   49MOL   C15820414   7.626   0.521   6.064  0.1350  0.1093 -0.1274
   49MOL   C15920415   7.679   0.411   5.447 -0.4045 -0.5483  0.7455
   49MOL   H16020416   7.873   0.356   5.540  0.9674  1.0876 -2.4150
   49MOL   H16120417   7.800   0.276   5.728  0.2865 -0.6433  0.0287
   49MOL   H16220418   7.904   0.400   5.790  0.8277 -1.8035 -2.1532
   49MOL   H16320419   7.937   0.556   5.913 -0.5093 -0.2593  0.6703
   49MOL   H16420420   7.954   0.734   6.059  0.1999 -0.3422  3.3057
   49MOL   H16520421   7.799   0.788   6.221 -0.0629  0.0229  0.3867
   49MOL   H16620422   7.561   0.646   6.222  0.1852  0.0195  1.4431
   49MOL   H16720423   7.539   0.457   6.068  1.2640 -1.5605 -1.9224
   49MOL   H16820424   7.714   0.430   5.346  2.0223 -1.7021  1.3375
   49MOL   H16920425   7.606   0.493   5.451  0.1328  0.1399 -2.1614
   49MOL   C17020426   7.604   0.275   5.431  0.0846  0.0551 -0.3028
   49MOL   O17120427   7.500   0.298   5.341  0.8631  0.2183  0.2916
   49MOL   C17220428   7.382   0.240   5.375 -0.1997  0.5965  0.2965
   49MOL   O17320429   7.274   0.265   5.285 -0.3195  0.8398  0.4971
   49MOL   C17420430   7.146   0.234   5.326 -0.7839 -0.5274  0.5867
   49MOL   C17520431   7.102   0.113   5.386  0.0268 -0.6093  0.0122
   49MOL   C17620432   6.970   0.103   5.428 -0.0821  0.0857 -0.6614
   49MOL   C17720433   6.866   0.203   5.391 -0.2799  0.2939 -0.6691
   49MOL   C17820434   6.912   0.321   5.333  0.1089  0.3036 -0.8531
   49MOL   C17920435   7.052   0.336   5.302  0.5444  0.7309 -0.1679
   49MOL   C18020436   7.697   0.171   5.370  0.2538  0.3777  0.3040
   49MOL   H18120437   7.576   0.240   5.530  0.1321  0.9883  0.0460
   49MOL   H18220438   7.362   0.295   5.467  1.6931  1.6726  0.0968
   49MOL   H18320439   7.383   0.133   5.398  0.7898  0.7916  1.1840
   49MOL   H18420440   7.165   0.026   5.401 -0.6489 -0.6898  2.5999
   49MOL   H18520441   6.946   0.011   5.479 -0.2834 -0.8089 -2.3403
   49MOL   H18620442   6.761   0.188   5.409 -0.1905  1.0230  0.4558
   49MOL   H18720443   6.847   0.405   5.312 -3.2320 -1.5868  1.5119
   49MOL   H18820444   7.098   0.424   5.258  1.0704 -0.0292 -1.1532
   49MOL   H18920445   7.726   0.202   5.270  0.2168  1.2231  0.5476
   49MOL   H19020446   7.790   0.177   5.427  0.4332 -0.0259  0.0527
   49MOL   C19120447   7.647   0.022   5.379 -0.6332 -0.8477  0.3204
   49MOL   O19220448   7.549   7.958   5.282  0.0457 -0.1062 -0.0620
   49MOL   C19320449   7.614   7.920   5.163  0.2830  0.5194 -0.6657
   49MOL   O19420450   7.632   7.786   5.157 -0.6312 -0.1677 -0.0241
   49MOL   C19520451   7.542   7.721   5.078  0.6758  0.3533 -0.0699
   49MOL   C19620452   7.583   7.624   4.991  0.1270  0.5635 -0.4427
   49MOL   C19720453   7.500   7.558   4.903  0.0695 -0.3998 -0.6361
   49MOL   C19820454   7.365   7.579   4.905 -0.4313  0.2644  0.0424
   49MOL   C19920455   7.321   7.681   4.985  0.0198 -0.1770  0.0247
   49MOL   C20020456   7.402   7.746   5.074 -0.2633 -0.3260  0.0799
   49MOL   C20120457   7.596   7.954   5.521  0.0320  0.0495  0.3616
   49MOL   H20220458   7.740   7.942   5.373  0.4933  0.9049  0.9646
   49MOL   H20320459   7.714   7.963   5.170  0.2891  0.2577  1.4411
   49MOL   H20420460   7.565   7.946   5.069 -0.3089  1.1503 -0.1882
   49MOL   H20520461   7.686   7.592   4.990  0.4217  1.4443  0.2517
   49MOL   H20620462   7.549   7.480   4.845  0.5544 -0.6486  0.0952
   49MOL   H20720463   7.305   7.532   4.829 -1.7029  2.1196 -0.1092
   49MOL   H20820464   7.217   7.710   4.982 -0.4461 -1.6869  0.9483
   49MOL   H20920465   7.361   7.820   5.140  1.1449  2.0398 -1.6115
   49MOL   H21020466   7.649   0.026   5.603 -1.8231  0.7928  1.1775
   49MOL   H21120467   7.496   0.019   5.540  0.8213  0.9333  2.7087
   49MOL   C21220468   7.588   7.803   5.528 -0.1371 -0.7351 -0.5403
   49MOL   O21320469   7.714   7.747   5.544  0.3557 -0.6063  0.4563
   49MOL   C21420470   7.732   7.636   5.468  0.1599  0.5733 -0.1116
   49MOL   O21520471   7.857   7.582   5.485 -0.0143 -0.1904 -0.0097
   49MOL   C21620472   7.881   7.509   5.596  0.2023  0.4055  0.0255
   49MOL   C21720473   7.791   7.493   5.704 -0.0917 -0.0747 -0.2706
   49MOL   C21820474   7.809   7.402   5.806  0.2869  0.8689 -0.5477
   49MOL   C21920475   7.926   7.316   5.805 -0.1072 -0.6284 -0.1650
   49MOL   C22020476   0.041   7.335   5.701 -0.0221 -0.1218  0.2032
   49MOL   C22120477   0.017   7.422   5.590 -0.1355 -0.0560 -0.6524
   49MOL   C22220478   7.508   7.756   5.653  0.2677 -0.6602 -0.3891
   49MOL   H22320479   7.538   7.765   5.439  0.3998  0.1878 -1.2465
   49MOL   H22420480   7.721   7.660   5.362  1.3206 -0.4909 -0.4809
   49MOL   H22520481   7.655   7.559   5.477  0.9004 -0.0147  1.2344
   49MOL   H22620482   7.696   7.545   5.707 -0.0069  0.0230  0.8975
   49MOL   H22720483   7.731   7.379   5.877  0.6345  0.7060 -0.2173
   49MOL   H22820484   7.938   7.238   5.878 -0.2941 -0.0749  0.4641
   49MOL   H22920485   0.132   7.277   5.700 -0.6798 -1.1765 -1.3512
   49MOL   H23020486   0.093   7.430   5.513  0.0218  3.5011 -0.2320
   49MOL   H23120487   7.407   7.793   5.632  0.4563  0.5763  0.7937
   49MOL   H23220488   7.491   7.649   5.644 -1.8556 -0.4389  0.7658
   49MOL   C23320489   7.557   7.814   5.791  0.3358  0.3189  0.3731
   49MOL   O23420490   7.511   7.951   5.804  0.2860  0.2048 -0.2363
   49MOL   C23520491   7.581   0.056   5.891 -0.6336 -0.8469 -0.3744
   49MOL   O23620492   7.538   0.029   6.019  0.0510  0.3971 -0.0479
   49MOL   C23720493   7.601   0.093   6.125  0.0391  1.1297  0.2714
   49MOL   C23820494   7.707   0.182   6.114  0.0446  0.2263 -0.0635
   49MOL   C23920495   7.747   0.244   6.235 -0.1589 -0.4296 -0.2608
   49MOL   C24020496   7.683   0.229   6.360 -0.2407 -0.1017  0.1142
   49MOL   C24120497   7.575   0.139   6.372 -0.6098 -0.9656  0.2301
   49MOL   C24220498   7.540   0.076   6.253  1.0428 -0.3105 -0.7473
   49MOL   C24320499   7.525   7.720   5.910 -0.2274 -0.3213 -0.1689
   49MOL   H24420500   7.664   7.830   5.773  0.7044 -1.8771  0.3894
   49MOL   H24520501   7.552   0.158   5.867 -0.0023 -0.0457  2.0656
   49MOL   H24620502   7.689   0.053   5.881 -0.4191  3.0981 -0.0543
   49MOL   H24720503   7.770   0.203   6.029  1.7699 -0.3424  1.0436
   49MOL   H24820504   7.826   0.317   6.235 -1.2745  0.8297  1.7655
   49MOL   H24920505   7.699   0.305   6.435  1.4722  1.6114 -1.9036
   49MOL   H25020506   7.519   0.130   6.464  0.7988 -3.2391  0.9194
   49MOL   H25120507   7.451   0.015   6.253  0.6364  0.2736 -0.5031
   49MOL   H25220508   7.593   7.635   5.906  0.8684  0.6016 -1.6259
   49MOL   H25320509   7.565   7.762   6.002  1.4337 -1.0135 -0.5722
   49MOL   C25420510   7.384   7.648   5.913  0.7100 -0.1335  0.0997
   49MOL   O25520511   7.388   7.542   6.006  0.2560 -0.2787  0.3275
   49MOL   C25620512   7.358   7.418   5.947  0.8009  0.5787  1.0750
   49MOL   O25720513   7.443   7.382   5.845  0.4313  0.1076  0.1626
   49MOL   C25820514   7.411   7.267   5.779  0.1720 -0.3466 -0.6508
   49MOL   C25920515   7.303   7.182   5.826  0.2084  0.0497 -0.4165
   49MOL   C26020516   7.278   7.062   5.758 -0.5551 -0.2220  0.1220
   49MOL   C26120517   7.363   7.025   5.653  1.3186 -0.3427 -0.3045
   49MOL   C26220518   7.473   7.112   5.605 -0.1334 -0.2196  0.4743
   49MOL   C26320519   7.494   7.236   5.670 -0.3534  0.5714 -0.9453
   49MOL   C26420520   7.271   7.741   5.952 -0.4840  0.4610 -0.9600
   49MOL   H26520521   7.361   7.607   5.815 -0.9079 -0.3268  0.5523
   49MOL   H26620522   7.255   7.422   5.911  1.2783 -0.6807 -0.5442
   49MOL   H26720523   7.361   7.334   6.016 -1.2923  0.4062  0.9853
   49MOL   H26820524   7.229   7.206   5.901  0.1849  1.4409 -0.8570
   49MOL   H26920525   7.198   7.001   5.798 -0.6996 -0.2133 -0.1511
   49MOL   H27020526   7.345   6.932   5.603  0.2863  0.2360 -1.0289
   49MOL   H27120527   7.522   7.092   5.510  0.1515  0.8095  0.3978
   49MOL   H27220528   7.561   7.306   5.621  0.2846  1.9587  1.8191
   49MOL   H27320529   7.196   7.671   5.989  1.0947 -1.0937 -0.5766
   49MOL   H27420530   7.297   7.815   6.028 -1.2930 -0.6068  0.3759
   49MOL   C27520531   7.199   7.811   5.830  0.5631  0.0269  0.6570
   49MOL   O27620532   7.132   7.714   5.751 -0.2363  0.5683 -0.0941
   49MOL   C27720533   7.084   7.751   5.625  0.1209  0.0814 -0.6329
   49MOL   O27820534   7.184   7.751   5.530  0.2948  0.3718 -0.1649
   49MOL   C27920535   7.230   7.635   5.476  0.3234  0.3042  0.2472
   49MOL   C28020536   7.200   7.515   5.542 -0.1648  0.3235  0.1430
   49MOL   C28120537   7.247   7.394   5.491 -0.3929 -0.1750 -0.6995
   49MOL   C28220538   7.332   7.395   5.375 -0.9069 -0.1626 -0.3906
   49MOL   C28320539   7.367   7.518   5.312  0.0077  0.0619  0.7067
   49MOL   C28420540   7.324   7.640   5.368 -0.1980 -0.4680  0.5509
   49MOL   C28520541   7.081   7.902   5.878 -0.5438  0.0284 -0.1668
   49MOL   H28620542   7.266   7.861   5.760  0.7262  0.9515  1.4562
   49MOL   H28720543   7.055   7.855   5.613  0.6157  0.2085 -0.6985
   49MOL   H28820544   7.008   7.678   5.595 -1.4004  1.9108 -1.3418
   49MOL   H28920545   7.167   7.503   5.644  0.7237  0.5566  0.4686
   49MOL   H29020546   7.232   7.300   5.542  0.5547  1.4420  2.7001
   49MOL   H29120547   7.358   7.298   5.336 -1.5598 -0.1008 -0.9976
   49MOL   H29220548   7.432   7.527   5.226 -0.6432 -0.2107  0.1822
   49MOL   H29320549   7.353   7.737   5.329 -1.6961  0.0210  0.6533
   49MOL   H29420550   7.043   7.866   5.974 -2.2559  0.7974 -0.5478
   49MOL   H29520551   6.992   7.898   5.815  0.4392 -2.7428 -1.4288
   49MOL   C29620552   7.108   0.073   5.907  0.2080  0.3796 -0.1487
   49MOL   O29720553   7.097   0.128   5.776  0.1915  0.3864 -0.4968
   49MOL   C29820554   7.219   0.173   5.725 -0.5358 -0.1589 -0.0779
   49MOL   O29920555   7.273   0.271   5.800  0.1704 -0.1450 -0.2783
   49MOL   C30020556   7.282   0.395   5.743  0.1343  0.0688 -0.3785
   49MOL   C30120557   7.189   0.441   5.650 -0.8250 -0.3861 -0.8951
   49MOL   C30220558   7.222   0.552   5.570  1.0498  0.0042  0.6747
   49MOL   C30320559   7.346   0.620   5.584 -0.2533  0.5095 -0.9471
   49MOL   C30420560   7.442   0.568   5.675  0.4452 -0.0382  0.0347
   49MOL   C30520561   7.406   0.465   5.759 -0.3619  0.4672 -0.0467
   49MOL   C30620562   7.002   0.152   5.995 -0.3357  0.2417  0.5113
   49MOL   H30720563   7.207   0.091   5.948 -0.1974 -2.4132  2.2113
   49MOL   H30820564   7.210   0.203   5.620 -0.3208  2.3166  0.5699
   49MOL   H30920565   7.293   0.095   5.740  0.2877  1.0740  2.4856
   49MOL   H31020566   7.101   0.387   5.618 -0.0944 -0.6994 -2.3798
   49MOL   H31120567   7.150   0.586   5.497  2.9140  0.9458 -0.7670
   49MOL   H31220568   7.365   0.705   5.520 -1.3602  2.6514  1.4890
   49MOL   H31320569   7.536   0.620   5.689  0.5644 -0.0717 -0.6206
   49MOL   H31420570   7.483   0.437   5.830 -1.2403  0.7186  1.0129
   49MOL   H31520571   6.967   0.086   6.074  0.1969  0.7807  1.1973
   49MOL   H31620572   6.918   0.171   5.928  0.6157 -0.3759 -0.8766
   49MOL   C31720573   7.057   0.286   6.053 -0.6245 -0.0147  0.5735
   49MOL   O31820574   7.148   0.241   6.159 -0.1856 -0.3238 -0.4785
   49MOL   C31920575   7.254   0.327   6.189  0.3395  0.0049  0.0407
   49MOL   O32020576   7.207   0.439   6.257 -0.4725 -0.0988  0.2618
   49MOL   C32120577   7.151   0.429   6.384 -1.1060 -0.4829 -0.3113
   49MOL   C32220578   7.184   0.324   6.480 -0.7427  0.4010  0.4939
   49MOL   C32320579   7.135   0.323   6.613 -0.3726  0.4125  0.0221
   49MOL   C32420580   7.050   0.424   6.653  1.3804 -0.0913  0.6258
   49MOL   C32520581   7.018   0.530   6.564  0.4940 -0.3169 -0.5673
   49MOL   C32620582   7.076   0.535   6.437 -0.6290 -0.1832  0.0436
   49MOL   C32720583   6.951   0.365   6.129 -1.1068  0.6026  0.3842
   49MOL   H32820584   7.111   0.344   5.979 -0.1772 -1.6319 -0.3932
   49MOL   H32920585   7.298   0.358   6.095  0.9450 -4.1094 -1.1310
   49MOL   H33020586   7.325   0.269   6.248 -0.0168 -0.8482 -0.3621
   49MOL   H33120587   7.251   0.243   6.455 -0.8185  0.6859 -0.6206
   49MOL   H33220588   7.148   0.239   6.681  1.0965 -0.3276 -1.1276
   49MOL   H33320589   7.002   0.428   6.749  1.8996 -0.3589  0.8952
   49MOL   H33420590   6.954   0.612   6.593  0.4793 -0.7290  0.5652
   49MOL   H33520591   7.057   0.617   6.369 -2.0277  0.5774  1.2869
   49MOL   H33620592   6.937   0.326   6.230  0.7617 -2.6106 -0.5402
   49MOL   H33720593   6.989   0.463   6.156  0.2947  0.1538  0.0652
   49MOL   C33820594   6.811   0.382   6.056  0.1537 -1.0671 -0.0647
   49MOL   O33920595   6.725   0.472   6.138  0.2861  0.1020 -0.6613
   49MOL   C34020596   6.694   0.439   6.266  0.6964 -0.2311 -0.4594
   49MOL   O34120597   6.601   0.333   6.272  0.0220 -0.9852  0.5202
   49MOL   C34220598   6.563   0.294   6.397 -0.1596 -0.2337 -0.6656
   49MOL   C34320599   6.460   0.202   6.408 -0.0668 -0.3993 -0.5882
   49MOL   C34420600   6.428   0.137   6.533  0.4022 -0.3071 -0.8895
   49MOL   C34520601   6.490   0.181   6.649 -0.3395 -1.3033 -0.1289
   49MOL   C34620602   6.581   0.288   6.642  0.5746 -0.3842  0.2121
   49MOL   C34720603   6.621   0.344   6.516 -0.1699  0.8487  0.2757
   49MOL   C34820604   6.824   0.440   5.913  0.0222 -1.0703 -0.5361
   49MOL   H34920605   6.764   0.284   6.048  0.6605 -1.3663  0.5868
   49MOL   H35020606   6.645   0.529   6.304 -0.4218 -0.8948 -0.3080
   49MOL   H35120607   6.778   0.424   6.333 -0.3834 -0.3189  0.9010
   49MOL   H35220608   6.407   0.181   6.317  0.9267  0.9885 -1.5069
   49MOL   H35320609   6.343   0.071   6.537  0.0985  0.0650 -1.0925
   49MOL   H35420610   6.467   0.132   6.743  0.6849 -0.1439  0.7487
   49MOL   H35520611   6.634   0.325   6.728  3.7552  0.8932 -2.1938
   49MOL   H35620612   6.706   0.411   6.516 -0.1888  0.8802 -0.3496
   49MOL   H35720613   6.904   0.382   5.866  0.5271 -1.9696  1.4134
   49MOL   H35820614   6.863   0.542   5.915  0.5652 -1.3105  1.1735
   49MOL   C35920615   6.698   0.432   5.826 -0.5060  0.9160 -0.6977
   49MOL   O36020616   6.641   0.302   5.832  0.0141  0.1218 -0.8321
   49MOL   C36120617   6.509   0.301   5.879 -0.7676 -0.5239  0.0155
   49MOL   O36220618   6.425   0.331   5.770 -1.0015  0.0579  0.0794
   49MOL   C36320619   6.294   0.345   5.802  0.2413 -0.2370  0.4522
   49MOL   C36420620   6.227   0.307   5.923 -0.0185  0.1879 -0.6127
   49MOL   C36520621   6.084   0.332   5.941  0.2305 -1.1705  0.0766
   49MOL   C36620622   6.011   0.399   5.846 -0.4754  0.2834 -0.3613
   49MOL   C36720623   6.080   0.446   5.735  0.2233 -0.0009  0.5297
   49MOL   C36820624   6.219   0.413   5.713  0.0159  0.1665  0.4506
   49MOL   C36920625   6.720   0.473   5.677 -0.1577 -0.2969  0.5544
   49MOL   H37020626   6.617   0.501   5.852 -0.4593  0.5218  0.5201
   49MOL   H37120627   6.494   0.368   5.964  0.0434  0.1961 -0.3987
   49MOL   H37220628   6.488   0.196   5.900  0.5525 -1.2987 -2.3676
   49MOL   H37320629   6.277   0.240   5.991  1.2641  1.7204  0.0055
   49MOL   H37420630   6.035   0.290   6.028  0.2228 -0.4360  0.4295
   49MOL   H37520631   5.904   0.404   5.861 -0.3831 -0.8870  0.7923
   49MOL   H37620632   6.032   0.506   5.660  3.3266 -0.4811 -1.9123
   49MOL   H37720633   6.255   0.454   5.620  2.1910  0.5443  1.4373
   49MOL   H37820634   6.656   0.410   5.615 -0.7054  1.1334 -0.3329
   49MOL   H37920635   6.815   0.430   5.643 -1.5550 -0.9185 -2.6967
   49MOL   C38020636   6.701   0.616   5.633 -0.3440 -0.4666 -0.3152
   49MOL   O38120637   6.641   0.621   5.504  0.3292 -0.0951  0.2086
   49MOL   C38220638   6.500   0.618   5.511  0.0716  0.1612  1.3782
   49MOL   O38320639   6.437   0.733   5.536 -0.1561 -0.3071  0.1432
   49MOL   C38420640   6.458   0.851   5.468 -0.2486 -0.1650 -0.1974
   49MOL   C38520641   6.515   0.846   5.339 -0.4143  0.4277  0.4915
   49MOL   C38620642   6.539   0.964   5.269  0.7184  0.0909  0.0981
   49MOL   C38720643   6.510   1.089   5.336 -0.1509  0.1922  0.6675
   49MOL   C38820644   6.455   1.094   5.462 -0.6381 -0.2588  0.0861
   49MOL   C38920645   6.428   0.972   5.534  0.9143 -0.4917 -0.5218
   49MOL   C39020646   6.838   0.689   5.602 -0.7739  0.3561  0.0915
   49MOL   H39120647   6.642   0.670   5.708 -2.3499 -2.9536 -0.0166
   49MOL   H39220648   6.454   0.568   5.426 -0.8296  1.8508  0.8527
   49MOL   H39320649   6.475   0.547   5.590  0.1286  0.6929  1.8783
   49MOL   H39420650   6.536   0.749   5.295  0.5582  1.2669 -0.9251
   49MOL   H39520651   6.585   0.968   5.171  1.5096  0.0875  0.4757
   49MOL   H39620652   6.517   1.183   5.283 -1.5874  0.6502  1.2729
   49MOL   H39720653   6.430   1.188   5.510  0.5115 -0.6437  1.4572
   49MOL   H39820654   6.386   0.971   5.633 -0.7148  0.0225 -1.1924
   49MOL   H39920655   6.863   0.645   5.505  0.3913  0.1151  0.4994
   49MOL   H40020656   6.921   0.666   5.668  0.3599  0.2653 -1.3314
   49MOL   C40120657   6.839   0.838   5.603 -0.5519 -0.5439  0.8398
   49MOL   O40220658   6.833   0.881   5.738  0.0336 -0.2320 -1.1272
   49MOL   C40320659   6.744   0.986   5.768  0.0002  0.1185 -0.0081
   49MOL   O40420660   6.611   0.945   5.781  0.0184  0.4638 -0.3711
   49MOL   C40520661   6.571   0.863   5.885 -0.1704  0.2170  0.2255
   49MOL   C40620662   6.629   0.863   6.014  0.5030  0.2935  0.3494
   49MOL   C40720663   6.575   0.778   6.112 -0.5694 -0.3019 -0.0643
   49MOL   C40820664   6.461   0.712   6.086 -0.1361 -0.3057  0.5718
   49MOL   C40920665   6.398   0.715   5.960 -0.2349 -0.4996  0.2004
   49MOL   C41020666   6.453   0.796   5.866 -0.8402  0.1628  0.5724
   49MOL   C41120667   6.972   0.891   5.543  0.1976  0.5265 -0.3566
   49MOL   H41220668   6.766   0.884   5.536 -0.2600  0.6059  1.2910
   49MOL   H41320669   6.737   1.055   5.684  2.5263  0.2896 -0.1178
   49MOL   H41420670   6.782   1.026   5.862  0.4428 -0.9926  0.2935
   49MOL   H41520671   6.721   0.913   6.040  1.9577 -1.2419 -1.6874
   49MOL   H41620672   6.613   0.761   6.212  0.0438 -1.8337 -0.5387
   49MOL   H41720673   6.422   0.644   6.160  4.2864 -2.2621  1.2358
   49MOL   H41820674   6.300   0.674   5.943 -0.8753  0.8308  0.5612
   49MOL   H41920675   6.396   0.806   5.775 -0.3186  0.9123  0.3250
   49MOL   H42020676   7.047   0.869   5.619 -1.5374 -0.4566  1.0727
   49MOL   H42120677   6.974   0.999   5.528 -2.2744  1.0223  2.4990
   49MOL   H42220678   7.005   0.834   5.456 -1.3392 -1.9156  0.6423
   50MOL     C120679   4.932   2.511   1.041  0.6114 -0.3410 -0.2795
   50MOL     O220680   4.885   2.423   1.144 -0.0611 -0.4945 -0.2014
   50MOL     C320681   4.812   2.499   1.236  0.0926  0.0027 -0.7060
   50MOL     O420682   4.891   2.601   1.285 -0.2368  0.1804  0.1319
   50MOL     C520683   4.881   2.620   1.423  0.0093  0.3769 -0.4633
   50MOL     C620684   4.993   2.679   1.489 -0.1320  0.1550  0.2743
   50MOL     C720685   4.989   2.704   1.625  0.5402 -0.5424  0.0559
   50MOL     C820686   4.874   2.672   1.698 -0.0678  0.6560  0.3718
   50MOL     C920687   4.767   2.601   1.645 -0.3448 -0.0796 -0.0921
   50MOL    C1020688   4.769   2.578   1.507 -0.5967 -0.5360  0.0950
   50MOL    C1120689   4.966   2.422   0.916 -0.8828  0.3457  0.6033
   50MOL    H1220690   4.855   2.581   1.011  1.3162  0.0844 -1.1333
   50MOL    H1320691   4.732   2.544   1.177  0.0358  2.0582  0.8583
   50MOL    H1420692   4.769   2.432   1.311  0.0325  2.0119  1.1349
   50MOL    H1520693   5.078   2.717   1.435 -0.8138  0.4757 -0.5813
   50MOL    H1620694   5.079   2.745   1.668  0.6848 -0.4032 -0.3773
   50MOL    H1720695   4.874   2.699   1.803 -0.9993 -0.4431  0.6614
   50MOL    H1820696   4.683   2.580   1.709  1.0467  2.0698  2.5532
   50MOL    H1920697   4.687   2.514   1.477 -0.3650 -0.7598 -0.0572
   50MOL    H2020698   4.876   2.370   0.884 -1.5011  1.7295  0.0466
   50MOL    H2120699   5.040   2.351   0.954 -0.7735 -0.0546 -0.3482
   50MOL    H2220700   5.015   2.576   1.069 -0.1031  1.3172 -1.8841
   50MOL    C2320701   5.034   2.514   0.806  0.5236 -0.0599 -0.2198
   50MOL    O2420702   4.949   2.539   0.694  0.3746 -0.3804  0.1787
   50MOL    C2520703   4.845   2.627   0.710  0.4002 -0.0330 -0.0147
   50MOL    O2620704   4.897   2.753   0.724 -0.2099 -0.1439 -0.1379
   50MOL    C2720705   4.880   2.845   0.620  0.9827  0.1946 -1.0032
   50MOL    C2820706   4.858   2.810   0.486 -0.3056  0.2837 -0.3732
   50MOL    C2920707   4.851   2.910   0.386  0.9243 -0.3689  0.0877
   50MOL    C3020708   4.870   3.046   0.418  0.5797 -0.6116  0.1672
   50MOL    C3120709   4.884   3.087   0.551 -0.2220  0.2454  0.0137
   50MOL    C3220710   4.879   2.984   0.649 -0.2899  0.0578  0.1328
   50MOL    C3320711   5.164   2.447   0.748 -0.4437  0.1280  0.4499
   50MOL    H3420712   5.063   2.605   0.858 -0.1226 -0.1577  0.3250
   50MOL    H3520713   4.789   2.603   0.801  0.0405  1.5406  0.1926
   50MOL    H3620714   4.770   2.609   0.632  1.2350  1.2961 -1.1458
   50MOL    H3720715   4.862   2.706   0.458  0.3140 -0.2532  1.6112
   50MOL    H3820716   4.858   2.892   0.279 -0.8131 -0.2658 -0.0550
   50MOL    H3920717   4.866   3.127   0.346 -1.0244 -0.4443  0.4176
   50MOL    H4020718   4.878   3.192   0.574 -0.4326  0.3868 -0.6760
   50MOL    H4120719   4.890   3.021   0.750  0.8161 -0.4433  0.1943
   50MOL    H4220720   5.147   2.344   0.718 -0.8820  0.4176 -0.3264
   50MOL    H4320721   5.237   2.442   0.829 -0.2938 -2.0548  0.2040
   50MOL    C4420722   5.243   2.530   0.642 -0.2517 -0.7002  0.0285
   50MOL    O4520723   5.165   2.541   0.530 -0.4663 -0.1770 -0.0591
   50MOL    C4620724   5.168   2.668   0.475  0.1377 -0.0982  0.4500
   50MOL    O4720725   5.288   2.690   0.412 -0.3755 -0.1452  0.3029
   50MOL    C4820726   5.308   2.808   0.355  0.7465 -0.8538 -0.4703
   50MOL    C4920727   5.212   2.912   0.335  0.4568 -0.0704 -0.3847
   50MOL    C5020728   5.252   3.030   0.267 -0.6447 -1.2299 -0.2899
   50MOL    C5120729   5.389   3.055   0.235 -0.0802 -0.0195 -0.1954
   50MOL    C5220730   5.485   2.958   0.267  0.0654 -0.3803 -0.1916
   50MOL    C5320731   5.442   2.835   0.320  0.0798  0.5296  0.1438
   50MOL    C5420732   5.383   2.477   0.600 -0.7008  0.6014 -0.1998
   50MOL    H5520733   5.256   2.627   0.690 -3.8969  0.3564 -0.9616
   50MOL    H5620734   5.152   2.749   0.545 -1.4607 -0.9315  1.0769
   50MOL    H5720735   5.092   2.668   0.397  0.2547 -0.9567  0.3295
   50MOL    H5820736   5.110   2.899   0.369 -0.2009  1.7519 -1.5509
   50MOL    H5920737   5.182   3.109   0.245  0.8885  0.3516  0.3866
   50MOL    H6020738   5.423   3.147   0.189 -0.4886  0.4125  0.3625
   50MOL    H6120739   5.584   2.964   0.224  0.7731 -0.6268  1.3821
   50MOL    H6220740   5.517   2.759   0.335  0.1559  0.5558 -0.0997
   50MOL    H6320741   5.376   2.369   0.605  0.3439  0.5865  1.1399
   50MOL    H6420742   5.399   2.489   0.493  0.9740 -1.0458 -0.1630
   50MOL    C6520743   5.509   2.525   0.675  0.1911  0.6095  0.0239
   50MOL    O6620744   5.616   2.455   0.621 -0.7561  0.1451  0.5603
   50MOL    C6720745   5.655   2.332   0.678 -0.7110 -0.8141  0.0332
   50MOL    O6820746   5.740   2.338   0.783  0.3948 -0.1659  0.2156
   50MOL    C6920747   5.871   2.377   0.765 -0.5227 -0.3527  0.3425
   50MOL    C7020748   5.916   2.426   0.640 -0.1122  0.2714 -0.2303
   50MOL    C7120749   6.053   2.454   0.623 -0.5867  0.1118  0.7158
   50MOL    C7220750   6.141   2.433   0.727  0.2704 -0.3437  0.0685
   50MOL    C7320751   6.097   2.381   0.854 -0.9043 -0.4079 -0.6816
   50MOL    C7420752   5.962   2.356   0.870 -0.4374 -0.8134  0.2523
   50MOL    C7520753   5.536   2.682   0.649  0.1734  1.4349  0.1141
   50MOL    H7620754   5.498   2.501   0.780  1.0965 -0.0861 -0.0310
   50MOL    H7720755   5.710   2.281   0.600  0.4912  2.1029 -1.0990
   50MOL    H7820756   5.569   2.265   0.687 -2.1389  1.0170  0.4663
   50MOL    H7920757   5.843   2.448   0.564 -0.7663 -1.6246 -0.1810
   50MOL    H8020758   6.089   2.475   0.523 -1.5174 -1.3511  0.0567
   50MOL    H8120759   6.243   2.470   0.723 -0.5998  2.0594 -0.6784
   50MOL    H8220760   6.165   2.374   0.937 -1.2330 -1.1707 -0.4685
   50MOL    H8320761   5.940   2.308   0.964  3.0921 -1.1547  0.9696
   50MOL    H8420762   5.526   2.703   0.542 -0.3247 -0.3379 -0.2032
   50MOL    H8520763   5.449   2.723   0.700 -0.2324 -2.0918  2.3794
   50MOL    C8620764   5.673   2.736   0.700  1.0249  0.7397  0.0717
   50MOL    O8720765   5.672   2.879   0.678  0.1213 -0.3351 -0.4514
   50MOL    C8820766   5.778   2.924   0.597 -0.0224  0.1769 -0.0844
   50MOL    O8920767   5.829   3.061   0.618 -0.6269 -0.1406 -0.1290
   50MOL    C9020768   5.758   3.166   0.574 -1.0274 -0.4676 -0.9320
   50MOL    C9120769   5.823   3.291   0.574 -0.2892 -0.8669  0.1067
   50MOL    C9220770   5.751   3.402   0.522  0.7411 -0.0520  0.1734
   50MOL    C9320771   5.618   3.395   0.475 -0.2088 -0.5198  0.3885
   50MOL    C9420772   5.560   3.268   0.466  0.0941 -0.0364 -1.2215
   50MOL    C9520773   5.625   3.157   0.529  0.0742 -0.0086  0.2381
   50MOL    C9620774   5.673   2.700   0.858  0.2126  0.6304  0.2061
   50MOL    H9720775   5.755   2.682   0.652  0.1925  0.5776 -1.1876
   50MOL    H9820776   5.756   2.910   0.491 -0.4527  1.1233 -0.1257
   50MOL    H9920777   5.870   2.867   0.605  1.2918  2.0352 -1.4483
   50MOL   H10020778   5.923   3.316   0.606 -0.3947 -0.4464  0.1110
   50MOL   H10120779   5.798   3.499   0.517  2.2093 -0.7271  0.4745
   50MOL   H10220780   5.568   3.481   0.434 -0.1965 -0.2424  0.9376
   50MOL   H10320781   5.470   3.256   0.408  1.0714 -2.6149 -2.2752
   50MOL   H10420782   5.571   3.063   0.527  1.1263 -0.6202  0.4693
   50MOL   H10520783   5.571   2.694   0.897 -0.8632  0.0741 -2.6107
   50MOL   H10620784   5.714   2.600   0.871 -1.5140  0.1326  2.3068
   50MOL   C10720785   5.772   2.775   0.947  0.4707 -0.6838  0.4750
   50MOL   O10820786   5.740   2.750   1.084 -0.2829  0.3365  0.4018
   50MOL   C10920787   5.677   2.854   1.152 -0.4085  0.2676 -0.5737
   50MOL   O11020788   5.549   2.880   1.107 -0.0898 -0.0093 -0.1259
   50MOL   C11120789   5.451   2.791   1.144 -0.9908 -0.4025 -0.0957
   50MOL   C11220790   5.468   2.656   1.166  0.2504  0.3073  0.0939
   50MOL   C11320791   5.360   2.569   1.203 -0.5888  0.7267  0.3109
   50MOL   C11420792   5.234   2.633   1.235 -0.7145 -1.0209  0.0889
   50MOL   C11520793   5.212   2.768   1.207 -0.1518 -0.7733  0.1740
   50MOL   C11620794   5.322   2.848   1.161 -0.2403  0.1877 -0.1247
   50MOL   C11720795   5.921   2.734   0.930 -0.3062  0.5159 -0.6273
   50MOL   H11820796   5.761   2.877   0.908 -1.6583 -1.1976 -0.2882
   50MOL   H11920797   5.738   2.943   1.159 -1.0526  0.6442  0.3890
   50MOL   H12020798   5.655   2.826   1.255 -1.0388 -2.3519 -1.3705
   50MOL   H12120799   5.558   2.605   1.137 -1.3649 -2.2694 -0.5409
   50MOL   H12220800   5.369   2.461   1.210  0.2210  0.8096  0.5969
   50MOL   H12320801   5.154   2.574   1.277 -1.9585 -0.2701 -1.1714
   50MOL   H12420802   5.122   2.824   1.223  0.4175  0.9213 -2.2620
   50MOL   H12520803   5.317   2.956   1.150 -0.2485  0.4109  1.8538
   50MOL   H12620804   5.942   2.717   0.825 -0.3676 -0.3275 -0.5077
   50MOL   H12720805   5.939   2.636   0.975  3.4129 -0.0379 -3.0950
   50MOL   C12820806   6.019   2.836   0.976  0.1002 -0.5856 -0.8525
   50MOL   O12920807   6.136   2.797   0.902 -0.2341  0.2281 -0.2467
   50MOL   C13020808   6.188   2.913   0.836 -0.1047 -0.3337  0.0723
   50MOL   O13120809   6.325   2.898   0.809 -0.7440  0.0262  0.1996
   50MOL   C13220810   6.365   2.813   0.707  1.0836  0.2194 -0.3322
   50MOL   C13320811   6.505   2.809   0.684  0.3948  0.0268  0.1456
   50MOL   C13420812   6.555   2.747   0.563  0.4875  0.0009 -0.2088
   50MOL   C13520813   6.461   2.697   0.470  0.0616  0.1725  0.1150
   50MOL   C13620814   6.322   2.683   0.508 -0.2149  0.0507  0.2146
   50MOL   C13720815   6.272   2.744   0.624  0.5380  0.6076  0.1478
   50MOL   C13820816   6.041   2.824   1.123  0.4144 -0.0382 -0.0157
   50MOL   H13920817   5.983   2.934   0.946 -0.3599  0.4153  2.7152
   50MOL   H14020818   6.175   3.011   0.883  0.2591 -0.4578  0.4389
   50MOL   H14120819   6.137   2.932   0.742 -0.9686  1.8379  0.9335
   50MOL   H14220820   6.573   2.866   0.746  1.5209  1.0452 -1.9647
   50MOL   H14320821   6.663   2.749   0.554  0.3927  0.4032 -1.3511
   50MOL   H14420822   6.490   2.653   0.376 -3.8603 -1.1138 -0.6113
   50MOL   H14520823   6.252   2.624   0.451  0.5903 -2.5648  1.8234
   50MOL   H14620824   6.165   2.745   0.640  0.4799 -0.2045 -0.1884
   50MOL   H14720825   5.944   2.811   1.171  0.4711 -1.1767 -0.1815
   50MOL   H14820826   6.085   2.725   1.136  0.4886 -0.0049 -0.0119
   50MOL   C14920827   6.113   2.931   1.192 -0.1198 -0.3078 -0.0464
   50MOL   O15020828   6.066   2.943   1.326 -0.0268 -0.2735 -0.2939
   50MOL   C15120829   6.132   2.869   1.424 -0.3297 -0.3761  0.6101
   50MOL   O15220830   6.136   2.736   1.406  0.0107  0.2847  0.2754
   50MOL   C15320831   6.018   2.659   1.410 -0.0291  0.5130  0.8628
   50MOL   C15420832   5.891   2.711   1.451 -0.8825 -0.3127 -0.1491
   50MOL   C15520833   5.785   2.626   1.465  0.4289  1.0097  0.0225
   50MOL   C15620834   5.793   2.496   1.416  0.1521 -0.2838  0.2929
   50MOL   C15720835   5.912   2.449   1.353  0.6355 -0.3038 -0.2814
   50MOL   C15820836   6.026   2.531   1.361  0.1490 -0.2914 -0.9909
   50MOL   C15920837   6.266   2.921   1.172 -0.1737 -0.0388 -0.7780
   50MOL   H16020838   6.083   3.021   1.139 -0.2163  0.9151  2.0186
   50MOL   H16120839   6.235   2.903   1.421  0.1074 -1.8335 -1.2177
   50MOL   H16220840   6.090   2.899   1.521 -0.9301 -0.2538  0.3130
   50MOL   H16320841   5.892   2.813   1.484  2.5979  0.0191 -1.1024
   50MOL   H16420842   5.693   2.667   1.504 -1.6611 -0.4216 -3.2254
   50MOL   H16520843   5.708   2.430   1.406  0.9018 -1.2635  0.3352
   50MOL   H16620844   5.924   2.350   1.312 -1.1529  0.4269 -2.6210
   50MOL   H16720845   6.115   2.475   1.338  1.4587  1.7279 -0.9388
   50MOL   H16820846   6.288   2.906   1.066  2.2375  0.8361 -0.4252
   50MOL   H16920847   6.319   2.840   1.222 -0.9269  0.7409  1.3587
   50MOL   C17020848   6.346   3.048   1.205  0.0371  0.7523 -0.8355
   50MOL   O17120849   6.485   3.019   1.235  0.5261  0.0896  0.3170
   50MOL   C17220850   6.525   2.977   1.363  0.3083 -0.8311 -0.0360
   50MOL   O17320851   6.475   2.856   1.397 -0.5214  0.0969  0.1441
   50MOL   C17420852   6.529   2.762   1.486 -0.6592  0.0213 -0.7961
   50MOL   C17520853   6.664   2.776   1.537 -0.0678 -0.0385  0.3683
   50MOL   C17620854   6.720   2.673   1.615  0.5349  0.8467  0.0766
   50MOL   C17720855   6.641   2.562   1.649 -0.8180 -1.2450 -0.8034
   50MOL   C17820856   6.511   2.547   1.598 -0.5271 -0.2716  0.1321
   50MOL   C17920857   6.456   2.646   1.515 -0.6105  0.1564 -0.5896
   50MOL   C18020858   6.348   3.150   1.088  0.9116  0.4246 -0.0910
   50MOL   H18120859   6.300   3.099   1.290 -0.3053 -0.3954 -0.3150
   50MOL   H18220860   6.498   3.060   1.429 -0.6386 -1.7683  0.7752
   50MOL   H18320861   6.634   2.982   1.363  0.2856 -0.2788 -0.1855
   50MOL   H18420862   6.717   2.864   1.505  0.4123 -0.2195  0.6604
   50MOL   H18520863   6.819   2.688   1.655  0.4279  1.3465  0.1587
   50MOL   H18620864   6.688   2.504   1.727 -0.3384  2.0728  1.4857
   50MOL   H18720865   6.457   2.459   1.627  0.4198 -0.8954  0.0475
   50MOL   H18820866   6.357   2.649   1.473 -1.2861  2.3826  1.0298
   50MOL   H18920867   6.413   3.113   1.009  0.8552 -1.5328  0.7484
   50MOL   H19020868   6.249   3.132   1.045  0.9579 -0.7829  0.2856
   50MOL   C19120869   6.384   3.299   1.119 -0.3722 -0.6658  0.1775
   50MOL   O19220870   6.385   3.389   1.003 -0.2666  0.3061  0.1306
   50MOL   C19320871   6.259   3.435   0.975  0.3317  0.2718  0.1958
   50MOL   O19420872   6.181   3.342   0.901  0.1251 -0.0207  0.6201
   50MOL   C19520873   6.069   3.288   0.955  0.2249  0.0569  0.4893
   50MOL   C19620874   6.021   3.318   1.086  0.2208  0.5166  0.4049
   50MOL   C19720875   5.898   3.266   1.130 -0.1018  0.4660  0.0378
   50MOL   C19820876   5.817   3.191   1.044  0.4332  0.3665  0.1344
   50MOL   C19920877   5.849   3.168   0.911 -0.2194 -0.4735  0.5950
   50MOL   C20020878   5.980   3.218   0.869 -0.1759 -0.0444  0.2478
   50MOL   C20120879   6.521   3.329   1.175 -0.2965 -0.5468 -0.4146
   50MOL   H20220880   6.309   3.327   1.193 -1.0523 -0.3188 -0.6297
   50MOL   H20320881   6.296   3.512   0.908  1.5654  0.4476  1.0645
   50MOL   H20420882   6.223   3.480   1.067 -0.9748  1.3826 -0.8433
   50MOL   H20520883   6.067   3.382   1.160  1.9170 -1.0169  0.7118
   50MOL   H20620884   5.860   3.302   1.225  5.0884  2.4818  1.5429
   50MOL   H20720885   5.732   3.152   1.097  1.4757 -0.6354  1.0974
   50MOL   H20820886   5.783   3.125   0.837  0.1247  1.4656 -0.8680
   50MOL   H20920887   5.996   3.199   0.764 -2.3905 -0.8810  0.0324
   50MOL   H21020888   6.536   3.249   1.247  1.9320  1.6532  1.6392
   50MOL   H21120889   6.592   3.322   1.092 -1.9969  0.0802 -1.9629
   50MOL   C21220890   6.527   3.470   1.248 -0.1231  0.1258 -0.0913
   50MOL   O21320891   6.426   3.463   1.343 -0.1064 -0.4145 -0.2959
   50MOL   C21420892   6.391   3.580   1.400 -0.2819  0.2952  0.6853
   50MOL   O21520893   6.328   3.658   1.304  0.2519 -0.5931  0.1968
   50MOL   C21620894   6.192   3.673   1.294  0.0359 -0.8442  0.7568
   50MOL   C21720895   6.097   3.586   1.356  0.0994 -0.8050 -0.0287
   50MOL   C21820896   5.955   3.613   1.348 -0.0568  0.0525 -0.0077
   50MOL   C21920897   5.908   3.726   1.277 -0.1062  0.2454  0.4235
   50MOL   C22020898   6.002   3.810   1.211 -0.1418  0.2669 -0.9235
   50MOL   C22120899   6.139   3.780   1.224  0.8645  0.5181  1.1483
   50MOL   C22220900   6.662   3.493   1.317 -0.2338 -0.2416 -0.1353
   50MOL   H22320901   6.504   3.542   1.170 -1.6432  0.1792  0.4026
   50MOL   H22420902   6.471   3.640   1.444  1.5743 -0.5889 -1.3893
   50MOL   H22520903   6.321   3.564   1.482  0.3232  2.2391  1.6085
   50MOL   H22620904   6.132   3.500   1.411  0.9653  0.1619  0.9594
   50MOL   H22720905   5.879   3.542   1.376 -0.3806  0.7432  0.8769
   50MOL   H22820906   5.802   3.746   1.271 -0.4642 -2.1098 -2.0284
   50MOL   H22920907   5.983   3.900   1.154 -2.8968  0.5502  0.3553
   50MOL   H23020908   6.205   3.847   1.172  1.7549 -0.4330  1.0386
   50MOL   H23120909   6.660   3.578   1.385  0.3131  0.4754 -1.0001
   50MOL   H23220910   6.682   3.405   1.378  1.5150 -0.1439 -0.5260
   50MOL   C23320911   6.787   3.509   1.229  0.0110  0.0198  0.3075
   50MOL   O23420912   6.781   3.633   1.156  0.5313  0.7862  0.2537
   50MOL   C23520913   6.817   3.626   1.024  0.2583 -0.2055  0.7685
   50MOL   O23620914   6.719   3.552   0.953  0.0253 -0.0575 -0.2992
   50MOL   C23720915   6.610   3.626   0.913  0.3435  0.4132  0.4025
   50MOL   C23820916   6.545   3.577   0.793  0.3553 -0.3336  0.1115
   50MOL   C23920917   6.439   3.641   0.737  0.4970 -1.4529  0.0356
   50MOL   C24020918   6.372   3.747   0.806  0.6026 -0.1952  0.0023
   50MOL   C24120919   6.438   3.796   0.924  0.0484 -0.0005 -0.3648
   50MOL   C24220920   6.555   3.736   0.978 -0.1816  0.0078 -0.6806
   50MOL   C24320921   6.916   3.512   1.320  0.5304  0.0685 -0.3977
   50MOL   H24420922   6.784   3.417   1.171 -0.7209  0.7926 -0.8719
   50MOL   H24520923   6.917   3.582   1.030 -0.3782 -1.7275  0.3621
   50MOL   H24620924   6.812   3.724   0.977 -2.6158 -0.6403  0.1040
   50MOL   H24720925   6.593   3.505   0.728  0.9316  0.3072 -0.1719
   50MOL   H24820926   6.386   3.615   0.647  0.7216 -1.2392 -0.1618
   50MOL   H24920927   6.282   3.794   0.769  0.3314 -1.3147 -0.7747
   50MOL   H25020928   6.390   3.877   0.977  0.4570  0.3021 -0.4591
   50MOL   H25120929   6.611   3.785   1.056 -0.7972 -1.9286  1.0323
   50MOL   H25220930   6.996   3.550   1.258  0.9822  1.4844  1.0183
   50MOL   H25320931   6.913   3.593   1.393 -1.5077  0.2133 -0.5944
   50MOL   C25420932   6.964   3.374   1.373  0.3197  0.3432 -0.2497
   50MOL   O25520933   7.007   3.301   1.261  0.1284  0.1420  0.2775
   50MOL   C25620934   6.980   3.156   1.274 -0.1773  0.0914 -0.4718
   50MOL   O25720935   7.042   3.096   1.387 -0.0357 -0.1087 -0.2490
   50MOL   C25820936   7.039   2.961   1.401 -0.4370 -0.2934  0.3085
   50MOL   C25920937   7.136   2.909   1.486 -0.1012 -0.2063  0.2653
   50MOL   C26020938   7.158   2.771   1.505  0.1544 -0.7719  0.2298
   50MOL   C26120939   7.086   2.685   1.420 -0.3094 -0.0529 -0.5638
   50MOL   C26220940   6.991   2.735   1.333 -0.2681  0.4988  0.4316
   50MOL   C26320941   6.966   2.872   1.326  0.2716 -0.8265 -0.0990
   50MOL   C26420942   7.083   3.392   1.471  0.0790 -0.2935  0.3471
   50MOL   H26520943   6.888   3.321   1.430 -0.0612  1.5892  0.4286
   50MOL   H26620944   7.027   3.111   1.186  2.7000  1.5608  0.2339
   50MOL   H26720945   6.874   3.135   1.267 -0.1425 -0.7974  1.4642
   50MOL   H26820946   7.187   2.972   1.557 -1.8415 -1.0972  2.3857
   50MOL   H26920947   7.209   2.728   1.590 -1.9724 -2.0900  0.8627
   50MOL   H27020948   7.103   2.578   1.430  1.9955  0.2786 -0.7412
   50MOL   H27120949   6.935   2.661   1.277 -0.1161  0.2811  0.5668
   50MOL   H27220950   6.904   2.916   1.250  0.1611  0.0701  0.5045
   50MOL   H27320951   7.139   3.301   1.492 -0.3545 -0.6989 -0.2319
   50MOL   H27420952   7.155   3.446   1.410  0.3965 -1.0928  0.0047
   50MOL   C27520953   7.059   3.469   1.600 -0.5641  0.5527  0.3600
   50MOL   O27620954   6.974   3.388   1.676  1.0522  0.1194  0.2708
   50MOL   C27720955   6.893   3.450   1.772  0.0014 -0.5721 -0.1281
   50MOL   O27820956   6.769   3.480   1.708 -0.0509 -0.0564 -0.2234
   50MOL   C27920957   6.667   3.387   1.697 -0.4460  0.3798  0.6330
   50MOL   C28020958   6.694   3.251   1.683  0.1368 -0.8614 -0.1907
   50MOL   C28120959   6.599   3.155   1.664  0.1660  0.0898 -0.5827
   50MOL   C28220960   6.464   3.195   1.653  0.0707  0.3400  0.2356
   50MOL   C28320961   6.428   3.331   1.664 -1.0217  0.3548 -0.4535
   50MOL   C28420962   6.533   3.428   1.684 -0.0518  0.7173  0.2095
   50MOL   C28520963   7.183   3.480   1.686  0.9186 -0.3947 -0.2732
   50MOL   H28620964   7.009   3.564   1.579 -3.1047 -0.5596  1.2110
   50MOL   H28720965   6.939   3.537   1.819  4.0018 -1.1514 -2.6981
   50MOL   H28820966   6.881   3.381   1.856  2.4349 -1.6578 -0.6263
   50MOL   H28920967   6.797   3.217   1.688 -0.8221 -4.0503 -0.8002
   50MOL   H29020968   6.623   3.050   1.659  1.5220  0.4236 -1.3379
   50MOL   H29120969   6.388   3.120   1.636  0.9575 -0.3284 -0.8526
   50MOL   H29220970   6.324   3.359   1.659 -0.7514  1.5610  0.5086
   50MOL   H29320971   6.522   3.534   1.666  0.1187  1.0725  2.1058
   50MOL   H29420972   7.225   3.382   1.711 -1.4387 -1.2390  0.5101
   50MOL   H29520973   7.155   3.513   1.786 -2.1267 -0.5924 -1.0070
   50MOL   C29620974   7.295   3.574   1.628  0.5654  0.2820 -0.2609
   50MOL   O29720975   7.242   3.705   1.618 -0.0150  0.2891 -0.4353
   50MOL   C29820976   7.267   3.784   1.507 -0.1841 -0.2579  0.3120
   50MOL   O29920977   7.171   3.755   1.410 -0.4749 -0.1770 -0.4039
   50MOL   C30020978   7.150   3.839   1.313  0.7898 -0.2209  0.3433
   50MOL   C30120979   7.233   3.948   1.285 -0.8003  0.0486 -0.6212
   50MOL   C30220980   7.209   4.027   1.177 -0.1946  0.5130  0.4525
   50MOL   C30320981   7.093   4.006   1.096 -0.0525 -0.7773 -0.6712
   50MOL   C30420982   6.995   3.916   1.135 -0.7525  0.3048  0.5113
   50MOL   C30520983   7.029   3.832   1.239 -0.0459  0.4220 -0.0880
   50MOL   C30620984   7.412   3.574   1.725  0.0450  0.4254 -0.3224
   50MOL   H30720985   7.334   3.535   1.534  0.1324 -0.4443 -0.1425
   50MOL   H30820986   7.360   3.747   1.464 -1.3191 -0.4661 -2.1081
   50MOL   H30920987   7.270   3.888   1.538  0.3690 -0.1862  0.0222
   50MOL   H31020988   7.330   3.955   1.332 -1.5939 -3.0091  1.6234
   50MOL   H31120989   7.281   4.102   1.148 -1.5550  1.9303  0.6897
   50MOL   H31220990   7.083   4.072   1.011  0.9061 -1.3995 -1.2826
   50MOL   H31320991   6.903   3.902   1.082 -0.9799 -2.2394  1.5125
   50MOL   H31420992   6.950   3.764   1.269  1.8073 -2.7206 -2.0740
   50MOL   H31520993   7.433   3.469   1.745 -0.3572  0.0056 -2.0197
   50MOL   H31620994   7.385   3.616   1.822  0.4551  0.8253 -0.3785
   50MOL   C31720995   7.536   3.639   1.667  0.1436 -0.8524  0.3887
   50MOL   O31820996   7.655   3.556   1.694 -0.7683 -0.4086 -0.1995
   50MOL   C31920997   7.693   3.463   1.597  0.0033 -0.4057 -0.7611
   50MOL   O32020998   7.596   3.359   1.600 -0.0772 -0.2093  0.2443
   50MOL   C32120999   7.558   3.292   1.483 -0.2816  0.3044 -0.5156
   50MOL   C32221000   7.440   3.220   1.491 -0.3105  0.6309 -0.1502
   50MOL   C32321001   7.393   3.153   1.380 -0.1939 -0.4808  0.8562
   50MOL   C32421002   7.456   3.167   1.255 -0.1863  0.3989  0.6352
   50MOL   C32521003   7.577   3.238   1.243  0.3933  0.4025  0.2594
   50MOL   C32621004   7.621   3.302   1.358  0.4659 -0.1325  0.8282
   50MOL   C32721005   7.549   3.791   1.715  0.5587 -0.1554 -0.0817
   50MOL   H32821006   7.525   3.651   1.559 -1.6256  2.1376  0.8581
   50MOL   H32921007   7.789   3.418   1.625 -0.3183 -0.6181  0.0064
   50MOL   H33021008   7.682   3.511   1.500  0.3072 -0.4206 -0.8043
   50MOL   H33121009   7.378   3.218   1.580  0.7248 -0.5715  0.5779
   50MOL   H33221010   7.303   3.094   1.378  0.4383 -1.5144  2.1742
   50MOL   H33321011   7.420   3.105   1.175 -1.0439 -0.2038  1.4688
   50MOL   H33421012   7.637   3.249   1.153 -0.0817  0.1465 -0.0873
   50MOL   H33521013   7.710   3.362   1.346  0.2697  0.2862  1.4399
   50MOL   H33621014   7.446   3.826   1.718  0.1774 -1.2377 -0.3497
   50MOL   H33721015   7.588   3.790   1.817  0.2830  1.3957  0.0527
   50MOL   C33821016   7.640   3.892   1.633  0.0495  0.6344  0.8728
   50MOL   O33921017   7.643   4.018   1.700 -0.6391 -0.2149 -0.5218
   50MOL   C34021018   7.532   4.097   1.671  0.5796 -0.5872  0.2261
   50MOL   O34121019   7.523   4.125   1.535  0.1076 -0.9810 -0.0177
   50MOL   C34221020   7.425   4.214   1.492  0.2765  0.7612  0.1483
   50MOL   C34321021   7.330   4.277   1.580 -0.6677  0.2275 -0.5034
   50MOL   C34421022   7.229   4.354   1.523  0.3494 -0.3647 -0.7150
   50MOL   C34521023   7.223   4.386   1.388 -0.0792 -0.2904  0.8648
   50MOL   C34621024   7.326   4.347   1.304 -0.3314 -0.4551 -0.0330
   50MOL   C34721025   7.423   4.253   1.355  0.8177 -0.2423 -0.5569
   50MOL   C34821026   7.785   3.852   1.601 -0.3712  0.2377 -0.1006
   50MOL   H34921027   7.587   3.899   1.538 -0.0082 -0.9263  0.7781
   50MOL   H35021028   7.554   4.191   1.722  0.0193  0.0667 -0.7204
   50MOL   H35121029   7.437   4.054   1.703 -0.5715  0.7594 -1.2671
   50MOL   H35221030   7.332   4.249   1.684  0.3666 -0.4560 -0.7040
   50MOL   H35321031   7.157   4.403   1.587  1.4726  3.6701 -2.4021
   50MOL   H35421032   7.151   4.454   1.344  0.2548 -0.2415  0.3889
   50MOL   H35521033   7.326   4.377   1.200 -1.3526  2.5278  0.7752
   50MOL   H35621034   7.490   4.204   1.286  1.6912  0.8294 -0.4820
   50MOL   H35721035   7.789   3.747   1.572  1.7570  0.1844  0.2959
   50MOL   H35821036   7.835   3.871   1.696  0.0891  0.7164 -0.4331
   50MOL   C35921037   7.843   3.928   1.486 -0.1549 -0.2359  0.1552
   50MOL   O36021038   7.839   3.858   1.361 -0.0728 -0.2068 -0.2614
   50MOL   C36121039   7.732   3.886   1.279  0.2461  0.2015 -0.2196
   50MOL   O36221040   7.624   3.795   1.303 -0.2116  0.0205  0.3556
   50MOL   C36321041   7.532   3.771   1.203  0.0278  0.0231 -0.0038
   50MOL   C36421042   7.453   3.655   1.216 -0.6020 -0.8209 -1.0512
   50MOL   C36521043   7.349   3.630   1.121 -0.9764  0.5325  0.4086
   50MOL   C36621044   7.332   3.712   1.006 -0.1636  0.1489  0.3564
   50MOL   C36721045   7.415   3.826   0.992  0.4150  0.3117 -0.0042
   50MOL   C36821046   7.509   3.864   1.098 -0.3362 -0.5408 -0.1912
   50MOL   C36921047   0.016   3.974   1.502  0.1945  0.9401 -0.0281
   50MOL   H37021048   7.786   4.020   1.479 -0.3161 -0.3408  0.0898
   50MOL   H37121049   7.777   3.874   1.181  0.7170  1.9248 -0.2375
   50MOL   H37221050   7.689   3.986   1.271  0.6042  0.2565 -1.5787
   50MOL   H37321051   7.468   3.581   1.293  0.5755 -2.1837 -2.5451
   50MOL   H37421052   7.289   3.543   1.145  0.2860 -0.5749 -0.4017
   50MOL   H37521053   7.249   3.699   0.939  0.8836 -1.5209 -0.6300
   50MOL   H37621054   7.391   3.886   0.906 -1.2142 -0.4966 -0.1331
   50MOL   H37721055   7.571   3.952   1.100 -1.5810  0.3651 -0.8768
   50MOL   H37821056   0.040   4.040   1.585 -0.6521  3.2986 -1.6208
   50MOL   H37921057   0.048   4.038   1.420  3.1274  1.3370  1.3776
   50MOL   C38021058   0.120   3.860   1.527  0.0940 -0.0565  0.0219
   50MOL   O38121059   0.107   3.818   1.666  0.1341 -0.3992  0.2619
   50MOL   C38221060   0.152   3.688   1.693 -0.3120 -0.3197  0.5838
   50MOL   O38321061   0.067   3.594   1.632 -0.2715  0.4057 -0.0767
   50MOL   C38421062   0.126   3.482   1.562 -0.3598 -0.2709  0.4460
   50MOL   C38521063   0.237   3.415   1.614 -0.6768  0.7733  0.3127
   50MOL   C38621064   0.315   3.334   1.526  0.1928  0.1905  0.2828
   50MOL   C38721065   0.260   3.289   1.403 -0.2327 -0.0390  0.4870
   50MOL   C38821066   0.146   3.357   1.353 -0.0627  0.2555 -0.6259
   50MOL   C38921067   0.078   3.451   1.431  0.9108 -0.5719  0.2383
   50MOL   C39021068   0.262   3.922   1.511 -0.1235  0.2275 -0.1412
   50MOL   H39121069   0.096   3.775   1.463 -0.3441 -0.9999  1.4207
   50MOL   H39221070   0.254   3.670   1.658 -0.4353 -0.7843  0.4555
   50MOL   H39321071   0.156   3.665   1.799 -0.6696 -1.2626  0.3952
   50MOL   H39421072   0.267   3.435   1.715  0.9070 -2.0065  0.4635
   50MOL   H39521073   0.409   3.294   1.562 -0.4807 -0.9820  0.7903
   50MOL   H39621074   0.301   3.205   1.349  4.1837  1.9952  0.4386
   50MOL   H39721075   0.105   3.326   1.257 -0.6632 -0.9949  0.0177
   50MOL   H39821076   7.972   3.511   1.393  0.9644  0.9963  2.5155
   50MOL   H39921077   0.338   3.877   1.574  2.0146  1.2183 -1.9548
   50MOL   H40021078   0.260   4.027   1.538  0.7832  0.6878 -1.8258
   50MOL   C40121079   0.324   3.908   1.374 -0.3592 -0.1009 -0.6444
   50MOL   O40221080   0.445   3.981   1.354  0.5368 -0.3913 -0.6591
   50MOL   C40321081   0.434   4.118   1.345  0.7202  0.0626 -0.3597
   50MOL   O40421082   0.557   4.175   1.325  0.5181 -0.7941  0.5501
   50MOL   C40521083   0.652   4.172   1.419 -0.2837  0.6529  0.0090
   50MOL   C40621084   0.658   4.091   1.537  0.2198  0.9120 -0.6581
   50MOL   C40721085   0.760   4.114   1.635  0.4096 -0.3872  0.0169
   50MOL   C40821086   0.860   4.207   1.614 -0.2045 -0.1953  0.0750
   50MOL   C40921087   0.858   4.284   1.495  0.5383  0.0934  0.4400
   50MOL   C41021088   0.752   4.268   1.397  0.1216  0.3570  0.4495
   50MOL   C41121089   0.349   3.762   1.330 -0.1040  0.0552 -0.1753
   50MOL   H41221090   0.255   3.956   1.304 -1.3832 -1.0769 -0.3243
   50MOL   H41321091   0.393   4.172   1.430 -0.3321 -2.2160  0.6332
   50MOL   H41421092   0.385   4.138   1.250 -0.4411 -0.6548  0.0792
   50MOL   H41521093   0.581   4.019   1.564 -0.2658  1.4615 -0.5479
   50MOL   H41621094   0.761   4.063   1.730 -1.0175 -0.7859 -0.1747
   50MOL   H41721095   0.936   4.227   1.688 -1.3068 -0.6697  1.3538
   50MOL   H41821096   0.924   4.362   1.458 -0.9154  1.5787  0.9281
   50MOL   H41921097   0.748   4.323   1.304  0.3252 -2.2748 -1.1352
   50MOL   H42021098   0.414   3.722   1.409  0.5281 -1.4794 -1.4421
   50MOL   H42121099   0.400   3.759   1.234  1.0366 -2.7517  0.4682
   50MOL   H42221100   0.252   3.714   1.322  0.3620 -0.7831 -0.8373
   51MOL     C121101   2.894   4.200   1.504 -0.2043  0.4534 -0.3552
   51MOL     O221102   2.895   4.130   1.386 -0.1733 -0.3953  0.0457
   51MOL     C321103   2.849   4.202   1.273 -0.1223  0.0322 -0.0187
   51MOL     O421104   2.711   4.228   1.268  0.1955 -0.3938 -0.7176
   51MOL     C521105   2.623   4.125   1.276 -0.0307 -0.6185 -0.3547
   51MOL     C621106   2.655   3.988   1.304 -0.2495 -0.4809 -0.3482
   51MOL     C721107   2.556   3.895   1.314 -0.0885  0.2106  0.3906
   51MOL     C821108   2.422   3.919   1.299  0.1479 -0.5314  0.5479
   51MOL     C921109   2.386   4.055   1.276 -0.2018  0.3020 -0.0761
   51MOL    C1021110   2.483   4.153   1.268  0.0793 -0.4663  0.3850
   51MOL    C1121111   2.936   4.102   1.616  0.2477  0.4398 -0.1935
   51MOL    H1221112   2.948   4.295   1.503 -0.3022  0.5166  0.2979
   51MOL    H1321113   2.886   4.305   1.276  0.7138 -0.2875  1.0260
   51MOL    H1421114   2.877   4.147   1.184  4.0351  1.1964  0.4355
   51MOL    H1521115   2.756   3.948   1.305  0.1433  0.5068  0.1008
   51MOL    H1621116   2.579   3.789   1.321  1.2263  0.4645  0.1498
   51MOL    H1721117   2.350   3.839   1.309  2.1819 -2.4717 -0.0439
   51MOL    H1821118   2.284   4.090   1.282 -0.7797 -1.2266 -0.8827
   51MOL    H1921119   2.455   4.257   1.268 -0.3882 -0.5902 -0.1607
   51MOL    H2021120   2.893   4.006   1.588  0.3988  0.2574  0.1954
   51MOL    H2121121   2.884   4.121   1.710 -1.0994  1.7303 -1.1803
   51MOL    H2221122   2.794   4.240   1.521 -1.0675 -1.9643  0.3250
   51MOL    C2321123   3.087   4.089   1.637  0.1533  0.1387 -0.2093
   51MOL    O2421124   3.142   4.220   1.652  0.7524 -0.4625 -1.1437
   51MOL    C2521125   3.136   4.281   1.779  1.0671  0.0498 -0.4697
   51MOL    O2621126   3.028   4.361   1.789 -0.3678 -0.5416  0.2231
   51MOL    C2721127   3.003   4.409   1.914  0.2242  0.2504  0.1684
   51MOL    C2821128   2.869   4.398   1.949 -0.3586 -0.0706 -1.3363
   51MOL    C2921129   2.823   4.452   2.069 -0.4245  0.3610 -0.0984
   51MOL    C3021130   2.914   4.514   2.163  0.5368 -0.3102  0.5641
   51MOL    C3121131   3.053   4.526   2.128  0.1116 -0.1251 -0.3713
   51MOL    C3221132   3.093   4.463   2.008 -0.1707  0.4943 -0.6572
   51MOL    C3321133   3.163   4.009   1.531  0.1146 -0.0384 -0.2413
   51MOL    H3421134   3.099   4.034   1.731 -0.9148  0.8824  0.3653
   51MOL    H3521135   3.229   4.336   1.791  0.8509  0.1384  0.9142
   51MOL    H3621136   3.134   4.203   1.856 -0.0246 -0.7648 -1.3070
   51MOL    H3721137   2.796   4.350   1.885 -0.8761 -1.4895  0.3018
   51MOL    H3821138   2.719   4.473   2.090 -0.4347  0.6109 -0.3878
   51MOL    H3921139   2.871   4.560   2.250 -3.2639 -1.9552 -0.3399
   51MOL    H4021140   3.130   4.576   2.185 -1.6051  1.0144  0.9907
   51MOL    H4121141   3.199   4.449   1.993 -0.0143  1.5803 -0.5994
   51MOL    H4221142   3.268   4.012   1.562 -0.0723  3.1531  0.2268
   51MOL    H4321143   3.165   4.062   1.436  1.1140 -1.1821 -0.8760
   51MOL    C4421144   3.128   3.858   1.524  0.7599  0.1161 -0.6468
   51MOL    O4521145   3.243   3.777   1.543 -0.2297 -0.0627 -0.2857
   51MOL    C4621146   3.281   3.742   1.676  0.3162 -0.5191  0.6126
   51MOL    O4721147   3.359   3.840   1.733  0.8497 -0.7258  0.2204
   51MOL    C4821148   3.486   3.849   1.686 -0.2549  0.2723 -0.0907
   51MOL    C4921149   3.580   3.919   1.767  0.3692 -0.2401  0.5099
   51MOL    C5021150   3.718   3.937   1.723 -0.9373  0.1832  0.0612
   51MOL    C5121151   3.761   3.890   1.601 -0.3569  0.6687  0.4715
   51MOL    C5221152   3.668   3.822   1.514 -0.8451 -0.4811 -0.1783
   51MOL    C5321153   3.539   3.798   1.562 -0.1528  0.3415 -0.3650
   51MOL    C5421154   3.076   3.824   1.388  0.1105 -0.2779  0.6004
   51MOL    H5521155   3.058   3.837   1.605  1.3488 -2.1474 -0.6943
   51MOL    H5621156   3.334   3.648   1.663 -2.5497 -1.9785 -1.0868
   51MOL    H5721157   3.193   3.719   1.736  0.2085 -0.6302  0.4139
   51MOL    H5821158   3.567   3.962   1.865  4.3744  2.6634 -0.1051
   51MOL    H5921159   3.786   3.994   1.784 -1.3484 -0.7127  1.3811
   51MOL    H6021160   3.862   3.904   1.564  0.3312 -1.0297  1.6558
   51MOL    H6121161   3.708   3.783   1.422  0.8625  0.4837  0.1315
   51MOL    H6221162   3.480   3.730   1.502 -0.1416 -0.4860  0.5499
   51MOL    H6321163   3.012   3.905   1.355  0.5672  0.4679  1.4969
   51MOL    H6421164   3.164   3.831   1.323  0.5548 -1.7126  1.0201
   51MOL    C6521165   3.008   3.682   1.368 -0.4097 -0.1230 -0.0988
   51MOL    O6621166   2.890   3.687   1.440  0.1907  0.0426  0.2604
   51MOL    C6721167   2.860   3.591   1.530  0.1807  0.3089  0.1739
   51MOL    O6821168   2.910   3.620   1.655 -0.3993 -0.2182  0.5901
   51MOL    C6921169   2.848   3.711   1.738 -0.0027 -0.5896 -0.1457
   51MOL    C7021170   2.917   3.750   1.860 -0.2499  0.0262 -0.7815
   51MOL    C7121171   2.868   3.862   1.932  0.5347 -0.4389 -0.3459
   51MOL    C7221172   2.746   3.924   1.900  0.6932 -0.0320 -0.6348
   51MOL    C7321173   2.674   3.889   1.785 -0.3045  0.1746 -0.1178
   51MOL    C7421174   2.725   3.780   1.706  0.0013 -0.0097  0.7004
   51MOL    C7521175   2.971   3.655   1.217 -0.3518  0.3311  0.8440
   51MOL    H7621176   3.074   3.601   1.400  0.5452  0.2966 -0.9608
   51MOL    H7721177   2.889   3.491   1.499 -2.2890 -0.7806  1.1905
   51MOL    H7821178   2.751   3.586   1.535  0.0360  0.7500 -2.0795
   51MOL    H7921179   3.004   3.698   1.897  0.9424  1.4775 -1.4943
   51MOL    H8021180   2.910   3.896   2.026 -1.3935 -0.2228  0.4538
   51MOL    H8121181   2.719   4.009   1.961 -3.9808 -1.6091 -0.3501
   51MOL    H8221182   2.585   3.945   1.758 -1.6755 -1.8596  0.0564
   51MOL    H8321183   2.661   3.764   1.620 -0.6451 -1.1584  1.3831
   51MOL    H8421184   2.920   3.740   1.172 -0.6869 -0.4687 -0.3173
   51MOL    H8521185   3.063   3.650   1.160 -0.5138  1.4210  0.4893
   51MOL    C8621186   2.914   3.520   1.184 -0.2792 -0.6468  0.2928
   51MOL    O8721187   2.900   3.515   1.038  0.2070 -0.0116 -0.0758
   51MOL    C8821188   2.800   3.585   0.973  0.3574  0.1769 -0.2985
   51MOL    O8921189   2.712   3.494   0.916 -0.2624 -0.2552  0.0297
   51MOL    C9021190   2.757   3.423   0.803  0.0653  0.5564 -0.0527
   51MOL    C9121191   2.895   3.424   0.758 -0.5255 -0.2521 -0.2187
   51MOL    C9221192   2.929   3.353   0.643 -0.6012 -0.4569 -1.2958
   51MOL    C9321193   2.840   3.277   0.572  0.7587 -0.1942  0.0012
   51MOL    C9421194   2.710   3.266   0.619 -0.7186 -0.0606 -0.8302
   51MOL    C9521195   2.666   3.339   0.733 -0.2180  0.6273 -0.6049
   51MOL    C9621196   2.995   3.396   1.217 -0.4617  0.0216 -0.0685
   51MOL    H9721197   2.822   3.511   1.242 -2.6775 -0.0592 -3.1734
   51MOL    H9821198   2.847   3.649   0.898 -0.6124  1.9594  0.5798
   51MOL    H9921199   2.743   3.650   1.039  0.5949 -1.8523  1.9633
   51MOL   H10021200   2.963   3.491   0.810  0.0484 -0.0521 -1.2201
   51MOL   H10121201   3.026   3.360   0.596  0.4109 -2.0988  0.4590
   51MOL   H10221202   2.866   3.224   0.482  3.4556  0.5534  0.2827
   51MOL   H10321203   2.629   3.207   0.578 -1.6390  0.9244 -0.4753
   51MOL   H10421204   2.564   3.332   0.768 -0.5166  1.2408 -1.3381
   51MOL   H10521205   3.075   3.383   1.143 -1.5397 -1.0368 -1.0654
   51MOL   H10621206   3.045   3.421   1.310 -0.6094 -2.8037  0.7976
   51MOL   C10721207   2.918   3.271   1.239  0.1347  0.7072 -0.2415
   51MOL   O10821208   2.841   3.296   1.360  0.1557 -0.1170 -0.0667
   51MOL   C10921209   2.855   3.194   1.460 -0.8160  0.4258 -0.3353
   51MOL   O11021210   2.979   3.205   1.517 -0.2859 -0.6091 -0.5551
   51MOL   C11121211   3.050   3.090   1.552  0.1692 -0.1332  1.4116
   51MOL   C11221212   2.991   2.972   1.607  0.0729  0.1998  0.5176
   51MOL   C11321213   3.066   2.857   1.631 -0.3029  0.6010 -0.2476
   51MOL   C11421214   3.205   2.858   1.607 -0.4122  0.1218  0.0829
   51MOL   C11521215   3.259   2.969   1.538 -0.2605 -0.1220  0.3196
   51MOL   C11621216   3.184   3.080   1.503 -0.2672 -0.2920 -0.2175
   51MOL   C11721217   2.823   3.236   1.129  0.5599  0.8595  0.3082
   51MOL   H11821218   2.996   3.196   1.252 -0.0815  0.2216 -1.5811
   51MOL   H11921219   2.843   3.097   1.412 -2.2525  0.4785 -0.0948
   51MOL   H12021220   2.778   3.200   1.537  0.5190  0.8566  1.0079
   51MOL   H12121221   2.888   2.979   1.637  0.3575  1.0735  1.2979
   51MOL   H12221222   3.025   2.767   1.674  2.5018 -0.4889  0.2273
   51MOL   H12321223   3.262   2.769   1.630 -0.0585  0.0452 -1.0656
   51MOL   H12421224   3.365   2.969   1.516 -0.1967 -0.3954  0.6120
   51MOL   H12521225   3.226   3.154   1.437 -1.7633 -0.2032 -1.0916
   51MOL   H12621226   2.888   3.259   1.044 -1.1595  2.2894 -0.6725
   51MOL   H12721227   2.754   3.320   1.140 -0.5336 -0.0900  0.6484
   51MOL   C12821228   2.759   3.097   1.136 -0.0740 -0.4137  0.2135
   51MOL   O12921229   2.729   3.038   1.013 -0.5680 -0.0772  0.0134
   51MOL   C13021230   2.834   3.003   0.922 -0.1461  0.1570 -0.5864
   51MOL   O13121231   2.880   2.870   0.943 -0.0747  0.0664 -0.1863
   51MOL   C13221232   2.817   2.761   0.882 -0.2343  0.1897 -0.3553
   51MOL   C13321233   2.889   2.643   0.846  0.3399  0.4671 -0.3055
   51MOL   C13421234   2.819   2.550   0.767 -0.0915 -0.4666 -0.0916
   51MOL   C13521235   2.682   2.569   0.739 -0.3804 -0.1840  0.4155
   51MOL   C13621236   2.614   2.682   0.778 -1.0294 -0.1818 -0.0368
   51MOL   C13721237   2.687   2.778   0.842 -0.4448 -0.5095  0.0310
   51MOL   C13821238   2.628   3.106   1.211 -0.7760 -0.0498 -0.4495
   51MOL   H13921239   2.826   3.031   1.191 -0.7726 -1.1022  0.2410
   51MOL   H14021240   2.921   3.067   0.939 -0.1799  0.6578 -2.1994
   51MOL   H14121241   2.806   3.014   0.817 -0.0154  1.0470 -0.5360
   51MOL   H14221242   2.995   2.632   0.867  0.5346 -1.4230 -2.1436
   51MOL   H14321243   2.864   2.465   0.717  1.5517 -0.6414  1.6395
   51MOL   H14421244   2.632   2.496   0.677 -2.7929 -0.3249  2.4472
   51MOL   H14521245   2.512   2.702   0.749 -1.4247 -2.3403 -0.2375
   51MOL   H14621246   2.634   2.866   0.878  0.1774 -0.8636  1.8868
   51MOL   H14721247   2.636   3.180   1.290 -1.9960  0.7625 -1.0625
   51MOL   H14821248   2.545   3.134   1.146 -0.4582 -0.0519 -0.8590
   51MOL   C14921249   2.587   2.974   1.291  0.2789 -0.9567 -0.2192
   51MOL   O15021250   2.687   2.923   1.373  0.3894 -0.1133 -0.3303
   51MOL   C15121251   2.669   2.782   1.397  0.0081  0.3181  0.4559
   51MOL   O15221252   2.707   2.700   1.293 -0.3903 -0.1120  0.3857
   51MOL   C15321253   2.843   2.697   1.257  0.0494  0.2379 -0.5868
   51MOL   C15421254   2.951   2.785   1.304  0.5973 -0.2312 -0.2045
   51MOL   C15521255   3.079   2.782   1.255 -0.1396 -0.2918 -0.3233
   51MOL   C15621256   3.116   2.674   1.166 -0.6447  0.4383 -0.3780
   51MOL   C15721257   3.024   2.581   1.125  0.4466 -0.2937 -0.1355
   51MOL   C15821258   2.886   2.590   1.174  0.6803 -0.4256  0.2861
   51MOL   C15921259   2.461   2.996   1.377 -0.4896  0.6590 -0.4802
   51MOL   H16021260   2.554   2.898   1.220 -1.2592 -0.4850 -0.0215
   51MOL   H16121261   2.739   2.754   1.475  0.1061  0.6287  0.4786
   51MOL   H16221262   2.569   2.758   1.432  0.4517  0.4082  1.7864
   51MOL   H16321263   2.935   2.870   1.369  1.1175 -0.2092 -0.0998
   51MOL   H16421264   3.150   2.856   1.288 -0.4543  0.3353 -1.0389
   51MOL   H16521265   3.219   2.674   1.133  0.0730 -1.7177  1.7373
   51MOL   H16621266   3.058   2.502   1.061  0.6319 -0.1552 -0.2103
   51MOL   H16721267   2.815   2.512   1.148 -0.4964 -0.2395  2.7930
   51MOL   H16821268   2.424   2.900   1.412  1.0278  0.4662  0.6236
   51MOL   H16921269   2.387   3.046   1.313  0.2971 -1.0384 -2.7857
   51MOL   C17021270   2.479   3.086   1.498  0.2335 -0.8377  0.9280
   51MOL   O17121271   2.359   3.161   1.516 -0.1725  0.5850 -0.1529
   51MOL   C17221272   2.377   3.280   1.584 -0.4285  0.1784 -0.0024
   51MOL   O17321273   2.463   3.372   1.509 -0.2553  0.0577 -0.1422
   51MOL   C17421274   2.426   3.404   1.382  0.1742  0.7807  0.4703
   51MOL   C17521275   2.523   3.452   1.292 -0.4512 -0.1004  0.8088
   51MOL   C17621276   2.498   3.478   1.151 -0.1705  0.4674  0.3428
   51MOL   C17721277   2.367   3.453   1.101 -1.0231 -0.6691  0.6850
   51MOL   C17821278   2.268   3.398   1.193  0.8003  0.6143  0.0019
   51MOL   C17921279   2.301   3.377   1.329 -0.2123  0.0074 -0.2991
   51MOL   C18021280   2.510   3.009   1.632  0.5216  0.2820 -0.0330
   51MOL   H18121281   2.563   3.153   1.479 -0.2896 -0.6522 -0.9224
   51MOL   H18221282   2.414   3.271   1.686  2.2450  0.6730 -0.9115
   51MOL   H18321283   2.278   3.324   1.596 -0.8289 -0.4713 -0.8713
   51MOL   H18421284   2.625   3.452   1.328 -0.2376 -1.7478  0.2573
   51MOL   H18521285   2.568   3.527   1.085 -0.8428  1.1029  0.0994
   51MOL   H18621286   2.337   3.471   0.999 -2.6595 -2.2095  0.8615
   51MOL   H18721287   2.171   3.360   1.165  1.1401  1.1156 -1.9532
   51MOL   H18821288   2.214   3.352   1.389  1.1264 -0.0007  1.6886
   51MOL   H18921289   2.596   2.942   1.628 -0.5869 -1.2753  1.2403
   51MOL   H19021290   2.533   3.081   1.710 -1.0243  0.7354  0.0251
   51MOL   C19121291   2.387   2.932   1.692 -0.4113  0.9773  0.4745
   51MOL   O19221292   2.352   2.987   1.820  0.0418 -0.3224 -0.2851
   51MOL   C19321293   2.230   3.052   1.816  0.8394 -0.3474 -0.0987
   51MOL   O19421294   2.240   3.170   1.889  0.0091  0.3296  0.2653
   51MOL   C19521295   2.130   3.250   1.909  0.5781 -0.2965  0.1625
   51MOL   C19621296   1.998   3.215   1.865  0.5558  0.1871 -0.0216
   51MOL   C19721297   1.891   3.301   1.893  0.1455 -1.4541 -0.1275
   51MOL   C19821298   1.917   3.424   1.949 -0.2293 -0.0990  0.2523
   51MOL   C19921299   2.040   3.457   2.000 -0.2615  0.4566  0.7436
   51MOL   C20021300   2.149   3.371   1.984  0.1550 -1.0633 -0.1309
   51MOL   C20121301   2.408   2.784   1.699 -0.0931 -0.3323  0.4353
   51MOL   H20221302   2.306   2.934   1.619 -1.9419 -0.5394  2.1109
   51MOL   H20321303   2.163   2.986   1.872  0.5841  0.5674  0.6994
   51MOL   H20421304   2.188   3.086   1.721 -0.4135  0.5774  0.7568
   51MOL   H20521305   1.979   3.129   1.804 -1.2220  0.4311  0.1786
   51MOL   H20621306   1.789   3.278   1.866 -0.2727  2.6390 -2.3328
   51MOL   H20721307   1.834   3.493   1.947 -0.0685  0.1366  1.4981
   51MOL   H20821308   2.043   3.559   2.033 -1.9917  1.7019 -2.6758
   51MOL   H20921309   2.239   3.403   2.035 -0.8162  1.3386  0.1137
   51MOL   H21021310   2.450   2.746   1.606  0.9293 -1.0556  1.1775
   51MOL   H21121311   2.476   2.770   1.782 -0.5640 -1.4519  0.6494
   51MOL   C21221312   2.284   2.692   1.734 -0.1326 -0.1472  0.3360
   51MOL   O21321313   2.229   2.733   1.858  0.0276  0.1769  0.8668
   51MOL   C21421314   2.159   2.640   1.938 -0.0253 -0.4949 -0.3367
   51MOL   O21521315   2.246   2.542   1.986  0.9050  0.4861 -0.8560
   51MOL   C21621316   2.330   2.576   2.087  0.0874 -0.4366  0.2960
   51MOL   C21721317   2.380   2.466   2.162 -0.8152  0.1284  0.5015
   51MOL   C21821318   2.484   2.501   2.251 -0.1612  0.0968 -0.0193
   51MOL   C21921319   2.524   2.633   2.275  0.1604 -0.8185 -1.1932
   51MOL   C22021320   2.467   2.739   2.206  0.4332 -0.6814 -0.2906
   51MOL   C22121321   2.370   2.715   2.110  0.4334  0.2299  0.1352
   51MOL   C22221322   2.169   2.689   1.631  0.4257 -0.2536  0.1632
   51MOL   H22321323   2.326   2.592   1.746  0.2236  0.0264  0.5423
   51MOL   H22421324   2.087   2.592   1.873 -2.8899  1.3843  1.3333
   51MOL   H22521325   2.110   2.702   2.013  0.6992 -1.6972  1.1606
   51MOL   H22621326   2.346   2.365   2.149 -2.3817  0.6677  0.3347
   51MOL   H22721327   2.527   2.432   2.322 -0.9139  0.7995  1.1424
   51MOL   H22821328   2.596   2.654   2.353  0.5847 -0.5698 -1.6458
   51MOL   H22921329   2.491   2.841   2.233 -0.6523 -0.1205 -1.3829
   51MOL   H23021330   2.329   2.793   2.047 -0.6437 -0.1117  0.3986
   51MOL   H23121331   2.080   2.639   1.669 -0.3841 -0.2911 -1.7094
   51MOL   H23221332   2.133   2.791   1.621 -0.6299 -0.5219  1.1906
   51MOL   C23321333   2.208   2.636   1.492 -0.1731 -0.0210 -0.1679
   51MOL   O23421334   2.266   2.506   1.519 -0.3563  0.2332  0.4454
   51MOL   C23521335   2.302   2.430   1.409 -0.5877 -0.4389  0.7598
   51MOL   O23621336   2.314   2.294   1.445  0.2703 -0.0540 -0.1728
   51MOL   C23721337   2.202   2.223   1.489  0.3381  0.2150  0.2240
   51MOL   C23821338   2.075   2.274   1.462  0.1820  0.0001 -0.7294
   51MOL   C23921339   1.964   2.203   1.505 -0.2170  0.6785 -0.1060
   51MOL   C24021340   1.977   2.093   1.594  0.2157 -0.0201 -0.3794
   51MOL   C24121341   2.105   2.044   1.616  0.1963  0.0280 -0.0523
   51MOL   C24221342   2.220   2.101   1.557  0.5596  0.0598  0.4226
   51MOL   C24321343   2.075   2.632   1.407 -0.8345  0.5601  0.4558
   51MOL   H24421344   2.287   2.697   1.447  0.3788 -1.1765 -0.7867
   51MOL   H24521345   2.405   2.458   1.385 -1.2285  1.5478  0.2480
   51MOL   H24621346   2.250   2.443   1.314 -1.4089 -0.1843  1.2420
   51MOL   H24721347   2.063   2.367   1.410 -0.4411  0.2234 -0.1911
   51MOL   H24821348   1.867   2.250   1.500 -0.0952  0.8616 -0.8621
   51MOL   H24921349   1.892   2.044   1.639 -0.2533  1.1492  0.0232
   51MOL   H25021350   2.109   1.950   1.668  1.6174 -0.1586 -0.4830
   51MOL   H25121351   2.319   2.059   1.569  0.6293 -0.1889 -0.9914
   51MOL   H25221352   2.103   2.578   1.317  0.5775 -1.1294  1.8731
   51MOL   H25321353   1.995   2.570   1.447  0.2172  0.6393  2.7506
   51MOL   C25421354   2.010   2.768   1.363  0.4366  0.0945 -0.0130
   51MOL   O25521355   2.111   2.868   1.354 -0.3468  0.4138 -0.3528
   51MOL   C25621356   2.077   2.997   1.334 -0.0818  0.1051 -0.4848
   51MOL   O25721357   1.963   3.037   1.414  0.3984  0.0591 -0.6788
   51MOL   C25821358   1.914   3.164   1.398 -1.0110  1.0466 -0.0780
   51MOL   C25921359   1.938   3.235   1.276  0.2664  0.8909  0.0795
   51MOL   C26021360   1.896   3.365   1.279 -0.0116 -0.0427 -0.0292
   51MOL   C26121361   1.830   3.426   1.384 -0.3994 -0.3877 -0.0783
   51MOL   C26221362   1.805   3.357   1.502 -0.1646  0.5919  0.1424
   51MOL   C26321363   1.851   3.225   1.511  0.6351 -0.7755 -0.3997
   51MOL   C26421364   1.922   2.770   1.234 -0.6451  0.3040  0.4342
   51MOL   H26521365   1.944   2.796   1.446  0.1878  0.3850 -0.3035
   51MOL   H26621366   2.054   3.010   1.228 -1.9236  0.7734 -0.0250
   51MOL   H26721367   2.160   3.057   1.371  0.3867  0.0060 -1.3549
   51MOL   H26821368   1.970   3.196   1.180 -1.6975 -1.6679  0.4196
   51MOL   H26921369   1.898   3.423   1.188 -2.8199  0.6028  0.2861
   51MOL   H27021370   1.776   3.519   1.373 -1.3085 -1.0884 -1.6391
   51MOL   H27121371   1.756   3.404   1.587  0.6543 -1.2490  1.6809
   51MOL   H27221372   1.849   3.165   1.600 -1.6509 -1.8751 -1.1660
   51MOL   H27321373   1.880   2.870   1.220  0.9413  0.9919  0.3992
   51MOL   H27421374   1.989   2.757   1.149 -1.3547 -0.7496  0.0248
   51MOL   C27521375   1.801   2.675   1.243 -0.8777 -0.0470 -0.2816
   51MOL   O27621376   1.705   2.729   1.335 -0.0708  0.2645  0.4216
   51MOL   C27721377   1.662   2.644   1.435 -0.3423  0.3683  0.6916
   51MOL   O27821378   1.755   2.640   1.541 -0.3458  0.5476 -0.2962
   51MOL   C27921379   1.746   2.740   1.634 -0.0553  0.8376  0.5881
   51MOL   C28021380   1.664   2.859   1.616 -0.8475  0.1102 -0.6284
   51MOL   C28121381   1.674   2.961   1.714  0.0318  0.2488  0.2310
   51MOL   C28221382   1.748   2.944   1.840 -0.6508  0.1650 -0.0173
   51MOL   C28321383   1.814   2.823   1.855 -0.8553 -0.6371  0.2607
   51MOL   C28421384   1.815   2.722   1.752 -0.4060 -0.4798  0.7482
   51MOL   C28521385   1.730   2.640   1.104 -0.3799 -0.1120  0.0646
   51MOL   H28621386   1.844   2.584   1.284 -1.5264 -0.1765  0.1148
   51MOL   H28721387   1.660   2.540   1.404  2.8575  1.3046 -3.0765
   51MOL   H28821388   1.567   2.690   1.465 -0.2748  1.8671 -1.2555
   51MOL   H28921389   1.615   2.882   1.522 -2.0455 -0.6509 -0.2001
   51MOL   H29021390   1.620   3.053   1.697 -1.6058 -0.2163  2.6474
   51MOL   H29121391   1.747   3.018   1.919  0.7909 -0.3863  0.5269
   51MOL   H29221392   1.873   2.817   1.946  1.5570 -0.9185 -1.2701
   51MOL   H29321393   1.871   2.633   1.773  0.1635 -0.0558  1.0422
   51MOL   H29421394   1.807   2.618   1.030  0.2198  1.2506  0.2658
   51MOL   H29521395   1.684   2.733   1.069 -0.7375  0.3118  1.6149
   51MOL   C29621396   1.643   2.509   1.102  0.2204  0.2938  0.0307
   51MOL   O29721397   1.569   2.506   0.982  0.0607 -0.1157  0.3881
   51MOL   C29821398   1.457   2.591   0.993  0.3392  0.3748 -0.4421
   51MOL   O29921399   1.337   2.522   1.014 -0.3917  0.3286  0.4647
   51MOL   C30021400   1.224   2.598   1.030  0.2196  0.1518 -0.6721
   51MOL   C30121401   1.218   2.741   1.006 -0.0202  0.1382 -0.1936
   51MOL   C30221402   1.102   2.821   1.016  0.0396  0.5023 -0.3554
   51MOL   C30321403   0.984   2.757   1.050 -0.6643 -0.4060  0.1218
   51MOL   C30421404   0.988   2.617   1.069  0.9498  0.2429  0.2319
   51MOL   C30521405   1.101   2.537   1.061  0.7109  0.4618 -0.4033
   51MOL   C30621406   1.725   2.377   1.114  0.1692 -0.3315  0.7196
   51MOL   H30721407   1.584   2.521   1.194 -2.3126 -0.5649 -1.4165
   51MOL   H30821408   1.438   2.636   0.896  1.0946  2.4807  0.3679
   51MOL   H30921409   1.475   2.672   1.063 -1.9726 -0.2324  0.9207
   51MOL   H31021410   1.305   2.799   0.981 -0.4155  1.3838  1.2522
   51MOL   H31121411   1.095   2.926   0.994  0.2243  0.3792 -1.0136
   51MOL   H31221412   0.895   2.819   1.054 -0.3986 -0.1029  1.4332
   51MOL   H31321413   0.896   2.566   1.094  1.9043 -1.3906  0.4635
   51MOL   H31421414   1.097   2.430   1.073 -0.3272  0.3126 -1.9012
   51MOL   H31521415   1.811   2.394   1.178  0.6328  1.2645 -0.3150
   51MOL   H31621416   1.769   2.355   1.016  1.1149  0.2529  1.0089
   51MOL   C31721417   1.659   2.248   1.162  1.0520 -0.3664  0.1402
   51MOL   O31821418   1.610   2.292   1.293 -1.0549 -0.2224  0.5825
   51MOL   C31921419   1.475   2.266   1.303 -0.6715 -0.0120 -0.4412
   51MOL   O32021420   1.430   2.301   1.427  0.5693  0.1055  0.0303
   51MOL   C32121421   1.437   2.205   1.526  0.3636  0.0822  0.1572
   51MOL   C32221422   1.536   2.100   1.532  1.3713  0.1206 -0.1081
   51MOL   C32321423   1.540   2.018   1.645  0.4555 -0.3761  0.2931
   51MOL   C32421424   1.450   2.044   1.751  0.3186 -0.4258 -0.3225
   51MOL   C32521425   1.346   2.131   1.738 -0.8545  0.0181  0.6105
   51MOL   C32621426   1.338   2.218   1.628  0.3972 -0.4045 -0.3433
   51MOL   C32721427   1.763   2.134   1.192  0.6845  0.0090  0.2428
   51MOL   H32821428   1.581   2.207   1.099  0.8086  1.8815 -1.0726
   51MOL   H32921429   1.447   2.163   1.283 -1.7152  0.1870 -0.0423
   51MOL   H33021430   1.417   2.323   1.231  0.1687  1.6677  0.1704
   51MOL   H33121431   1.624   2.091   1.470  1.5204  1.2931 -0.0798
   51MOL   H33221432   1.624   1.953   1.665 -0.2061 -1.0158  0.9998
   51MOL   H33321433   1.451   1.980   1.838 -0.9446 -0.3611 -0.2549
   51MOL   H33421434   1.274   2.137   1.818  0.0305 -1.0369  1.5077
   51MOL   H33521435   1.269   2.301   1.635  2.0220  0.9565  0.0165
   51MOL   H33621436   1.829   2.140   1.105 -0.5559 -0.5983 -0.7530
   51MOL   H33721437   1.816   2.159   1.284 -0.3939  0.1151  0.8451
   51MOL   C33821438   1.709   1.987   1.183 -0.6977 -0.1691  0.4593
   51MOL   O33921439   1.675   1.951   1.044  0.2624 -0.2784  0.2882
   51MOL   C34021440   1.584   1.845   1.032 -0.1951 -0.3527  0.5683
   51MOL   O34121441   1.463   1.889   1.078 -0.0692  0.0303 -0.7185
   51MOL   C34221442   1.400   1.995   1.019  0.2989 -0.3293 -0.0714
   51MOL   C34321443   1.452   2.068   0.906  0.3984 -0.7029 -1.0307
   51MOL   C34421444   1.368   2.172   0.855  0.5644  0.9221  0.3982
   51MOL   C34521445   1.243   2.197   0.919 -0.1940  0.1857  0.1965
   51MOL   C34621446   1.193   2.123   1.026  0.2894 -0.2153  0.0193
   51MOL   C34721447   1.271   2.020   1.073  0.0297 -0.1901 -0.4173
   51MOL   C34821448   1.818   1.892   1.243  0.0443 -0.5961 -0.4297
   51MOL   H34921449   1.619   1.981   1.243 -0.2125  0.6956  1.2949
   51MOL   H35021450   1.610   1.747   1.073  0.3430 -1.6660 -2.7493
   51MOL   H35121451   1.578   1.830   0.924  0.8178 -0.3876  0.5075
   51MOL   H35221452   1.548   2.048   0.862  2.3712  1.2195  2.2126
   51MOL   H35321453   1.393   2.229   0.767 -1.2680 -0.4860 -1.0826
   51MOL   H35421454   1.176   2.270   0.877 -1.1551 -0.2054  1.0348
   51MOL   H35521455   1.096   2.146   1.067 -0.1852  0.6900 -1.5489
   51MOL   H35621456   1.240   1.951   1.151  1.5935  1.0009  1.2970
   51MOL   H35721457   1.772   1.798   1.271 -1.1926 -0.1828 -1.0492
   51MOL   H35821458   1.870   1.930   1.331  0.0258 -1.2848 -0.1220
   51MOL   C35921459   1.923   1.851   1.141 -0.3866  0.1292 -0.4059
   51MOL   O36021460   1.971   1.732   1.199 -0.3619 -0.3927 -0.1098
   51MOL   C36121461   1.969   1.615   1.127  0.6340 -0.3813 -0.5829
   51MOL   O36221462   1.840   1.573   1.098  0.2895 -0.5863 -0.0463
   51MOL   C36321463   1.819   1.441   1.117 -0.5594 -0.2703 -0.0014
   51MOL   C36421464   1.865   1.349   1.023 -0.3149  0.3509 -0.3486
   51MOL   C36521465   1.841   1.212   1.044  0.3227  0.4110 -0.9732
   51MOL   C36621466   1.773   1.175   1.159  0.2523 -0.4610  0.1933
   51MOL   C36721467   1.723   1.266   1.253 -0.2384 -0.0423 -0.2797
   51MOL   C36821468   1.747   1.404   1.226 -0.0571 -0.2144  0.2989
   51MOL   C36921469   2.041   1.952   1.132 -0.4410  0.1402  0.4570
   51MOL   H37021470   1.888   1.828   1.040  2.6385  0.1853 -1.5021
   51MOL   H37121471   2.025   1.543   1.187 -0.9564 -1.9461 -0.9306
   51MOL   H37221472   2.020   1.624   1.031  0.3714 -1.4491 -0.8370
   51MOL   H37321473   1.904   1.377   0.927  0.0356  1.3685  0.0891
   51MOL   H37421474   1.869   1.135   0.974  0.2812 -0.0590 -0.4763
   51MOL   H37521475   1.751   1.073   1.187 -2.6943  0.2674  0.7388
   51MOL   H37621476   1.664   1.248   1.342 -1.6948  1.1817 -1.0024
   51MOL   H37721477   1.712   1.482   1.292  1.8800  1.4437 -0.5529
   51MOL   H37821478   2.074   1.965   1.235 -0.1811 -0.2667  0.4283
   51MOL   H37921479   2.010   2.053   1.108  2.2727  0.9864  0.3294
   51MOL   C38021480   2.162   1.916   1.047 -0.9789  0.3961  0.2135
   51MOL   O38121481   2.269   2.006   1.069  0.2188  0.0323 -0.1165
   51MOL   C38221482   2.361   1.973   1.165  0.7718  0.2397 -0.4531
   51MOL   O38321483   2.452   2.078   1.181  0.0993  0.2196 -0.1169
   51MOL   C38421484   2.545   2.067   1.284 -0.4543 -0.2682 -0.2159
   51MOL   C38521485   2.550   1.950   1.372 -0.8533 -0.1675 -0.7638
   51MOL   C38621486   2.645   1.939   1.476  0.3426  0.6195  0.0326
   51MOL   C38721487   2.738   2.041   1.493 -0.3753  1.1320  0.5182
   51MOL   C38821488   2.742   2.154   1.408  0.0008 -0.6026  0.4009
   51MOL   C38921489   2.645   2.168   1.306 -0.4794 -0.0246 -0.3873
   51MOL   C39021490   2.133   1.927   0.899 -0.5185 -0.0536  0.3287
   51MOL   H39121491   2.202   1.818   1.076 -2.9070 -0.5605 -0.2640
   51MOL   H39221492   2.302   1.957   1.256  1.8323 -2.1494 -0.1458
   51MOL   H39321493   2.412   1.879   1.143  1.6646  0.4375  0.7085
   51MOL   H39421494   2.479   1.869   1.362 -1.5563  0.3077  0.2179
   51MOL   H39521495   2.655   1.851   1.537  0.2868  1.1618  0.8352
   51MOL   H39621496   2.812   2.047   1.571 -0.0796  0.6973  0.2715
   51MOL   H39721497   2.817   2.230   1.426 -1.1209  0.6353 -0.0617
   51MOL   H39821498   2.636   2.258   1.248 -0.1667  2.1094  2.7810
   51MOL   H39921499   2.150   2.027   0.858  0.3755 -0.5977 -0.6469
   51MOL   H40021500   2.036   1.884   0.871 -0.5542 -0.4843  1.0965
   51MOL   C40121501   2.238   1.847   0.819  0.1932  0.4118  0.3150
   51MOL   O40221502   2.226   1.713   0.854  0.6624  0.2717  0.6370
   51MOL   C40321503   2.329   1.637   0.804  0.1678 -0.9717 -0.6520
   51MOL   O40421504   2.422   1.622   0.907 -0.0720 -0.0885 -0.2690
   51MOL   C40521505   2.515   1.519   0.908  0.2965  0.9066 -0.6783
   51MOL   C40621506   2.593   1.496   1.021  0.5501  0.0604 -0.1592
   51MOL   C40721507   2.688   1.393   1.022 -0.4732  0.0619  0.4488
   51MOL   C40821508   2.715   1.316   0.905  0.1139  0.1104 -0.1384
   51MOL   C40921509   2.643   1.348   0.785  0.2123  0.8800 -0.3738
   51MOL   C41021510   2.536   1.438   0.795  0.0432 -0.4323 -0.9702
   51MOL   C41121511   2.216   1.863   0.664  0.3069  0.2735 -0.4333
   51MOL   H41221512   2.338   1.880   0.846  0.6853 -0.0213 -0.9375
   51MOL   H41321513   2.380   1.658   0.710  0.8258 -0.6499 -0.2294
   51MOL   H41421514   2.272   1.548   0.781 -1.2723 -0.7011  1.7397
   51MOL   H41521515   2.569   1.552   1.110 -0.5945  1.8953 -1.6016
   51MOL   H41621516   2.752   1.375   1.108  0.5320 -1.1712 -0.5374
   51MOL   H41721517   2.804   1.253   0.905  0.2440  0.2756 -2.0490
   51MOL   H41821518   2.667   1.296   0.693 -0.7008  0.0165 -0.1222
   51MOL   H41921519   2.477   1.445   0.704 -0.8312 -1.0136 -0.4546
   51MOL   H42021520   2.109   1.844   0.655  0.8396 -2.9691 -0.4505
   51MOL   H42121521   2.275   1.796   0.602  1.0487 -1.3210  1.9125
   51MOL   H42221522   2.230   1.959   0.614 -0.5619  0.1706 -0.8812
   52MOL     C121523   4.059   4.754   6.445  0.3527  0.9216 -0.8503
   52MOL     O221524   4.140   4.858   6.484 -0.1749 -0.6178 -0.6620
   52MOL     C321525   4.226   4.828   6.592  0.6908  0.4541  0.1536
   52MOL     O421526   4.345   4.762   6.554  0.7199 -0.1244 -0.1924
   52MOL     C521527   4.447   4.748   6.651 -1.0697  1.0414 -0.4472
   52MOL     C621528   4.572   4.694   6.607  0.1865  0.2699 -0.6073
   52MOL     C721529   4.693   4.690   6.681 -0.4805 -0.8058  0.6352
   52MOL     C821530   4.680   4.720   6.814 -0.1838 -0.5878 -0.1191
   52MOL     C921531   4.558   4.757   6.870  0.1762 -0.1751 -0.0501
   52MOL    C1021532   4.443   4.777   6.789 -0.0449 -0.2002  0.2862
   52MOL    C1121533   4.036   4.753   6.295  0.0272  0.1739 -0.3650
   52MOL    H1221534   4.098   4.655   6.471 -2.9719 -0.6174 -1.5059
   52MOL    H1321535   4.254   4.922   6.638  1.3697 -0.5512  1.8662
   52MOL    H1421536   4.170   4.773   6.668  3.9468  0.3992  2.6280
   52MOL    H1521537   4.577   4.651   6.508  1.3388 -3.1255  0.8520
   52MOL    H1621538   4.785   4.651   6.639  0.4286  1.8431  0.0832
   52MOL    H1721539   4.771   4.703   6.871 -0.9574 -2.4054  0.6156
   52MOL    H1821540   4.548   4.754   6.977  4.0911 -0.7454  0.3841
   52MOL    H1921541   4.343   4.791   6.828  0.3362 -3.1285  2.4535
   52MOL    H2021542   4.126   4.763   6.234  0.4031 -1.6907 -0.1722
   52MOL    H2121543   3.967   4.831   6.265 -0.6733 -0.4288 -0.3460
   52MOL    H2221544   3.968   4.756   6.505  1.1136  0.5532  0.3464
   52MOL    C2321545   3.972   4.617   6.257 -0.3400  0.0701  0.0671
   52MOL    O2421546   4.066   4.511   6.281  0.1912 -0.3192 -0.3373
   52MOL    C2521547   4.023   4.388   6.333  0.2314  0.1636 -0.0101
   52MOL    O2621548   3.957   4.406   6.456  0.7946 -0.0258 -0.0896
   52MOL    C2721549   3.896   4.300   6.514 -0.1988 -0.2855  0.2719
   52MOL    C2821550   3.861   4.324   6.644  0.1032 -0.1509 -0.1549
   52MOL    C2921551   3.817   4.226   6.729 -0.6619  0.1205 -0.2178
   52MOL    C3021552   3.807   4.094   6.676  0.7374  0.6340 -0.6640
   52MOL    C3121553   3.845   4.066   6.541  0.5430  0.2578 -0.0689
   52MOL    C3221554   3.887   4.171   6.461  0.9768 -0.1079  0.5630
   52MOL    C3321555   3.929   4.607   6.110 -0.3912  0.2719  0.2633
   52MOL    H3421556   3.891   4.594   6.326  1.1877 -0.3892  1.7639
   52MOL    H3521557   4.095   4.307   6.343  0.3792  0.4305  1.1570
   52MOL    H3621558   3.956   4.346   6.258  0.8954 -1.7374  0.4338
   52MOL    H3721559   3.864   4.424   6.685  0.4744 -0.4707  0.6065
   52MOL    H3821560   3.795   4.247   6.833 -2.3901  1.7174 -0.8761
   52MOL    H3921561   3.768   4.015   6.738 -0.9692  2.3435  0.5477
   52MOL    H4021562   3.826   3.972   6.491  0.5625 -0.6044  1.5305
   52MOL    H4121563   3.894   4.149   6.355  0.4380  0.6888  0.3526
   52MOL    H4221564   3.893   4.509   6.078  0.2537  0.3023 -0.5614
   52MOL    H4321565   3.998   4.642   6.033  0.4795 -0.6194  0.6275
   52MOL    C4421566   3.807   4.704   6.083 -0.8234  0.6680 -0.4600
   52MOL    O4521567   3.704   4.685   6.186  0.1221  0.0620  0.4733
   52MOL    C4621568   3.660   4.793   6.258 -0.2759 -0.3718  0.8586
   52MOL    O4721569   3.703   4.790   6.390 -0.4677  0.8693 -0.5240
   52MOL    C4821570   3.657   4.696   6.474 -0.2516  0.2838 -0.0393
   52MOL    C4921571   3.701   4.711   6.606 -0.4326  0.2659 -0.1101
   52MOL    C5021572   3.656   4.617   6.701  1.1217 -0.0179  0.5716
   52MOL    C5121573   3.571   4.509   6.665  0.1057 -0.4354 -0.1721
   52MOL    C5221574   3.529   4.496   6.528 -0.1041 -0.8946  0.1867
   52MOL    C5321575   3.578   4.586   6.437 -0.0011  0.1244  0.2869
   52MOL    C5421576   3.737   4.680   5.945  0.1719 -0.6197  0.3894
   52MOL    H5521577   3.847   4.805   6.083 -0.2634  0.4538  0.0590
   52MOL    H5621578   3.552   4.791   6.243 -0.3505  0.3774  1.2216
   52MOL    H5721579   3.701   4.891   6.232 -2.7794  0.7587  0.9827
   52MOL    H5821580   3.770   4.792   6.625  0.8735 -0.7267 -0.6033
   52MOL    H5921581   3.688   4.633   6.802  1.0856  1.4489  0.3543
   52MOL    H6021582   3.537   4.441   6.741 -1.8957  0.4938 -0.2044
   52MOL    H6121583   3.459   4.419   6.500  0.4293 -0.9154 -1.1260
   52MOL    H6221584   3.547   4.566   6.335  1.7057  0.8419 -0.3935
   52MOL    H6321585   3.737   4.573   5.921 -1.1560 -0.4880 -0.1901
   52MOL    H6421586   3.632   4.707   5.957  0.1366 -0.1739 -0.8521
   52MOL    C6521587   3.798   4.768   5.829  0.3418  0.0624  0.1428
   52MOL    O6621588   3.929   4.710   5.818  0.1587  0.6386  0.5981
   52MOL    C6721589   4.028   4.809   5.784  0.7363 -0.3539 -0.4845
   52MOL    O6821590   4.070   4.871   5.904 -0.1918  0.2750  0.4122
   52MOL    C6921591   4.022   4.992   5.942 -0.4921  0.5284 -0.5679
   52MOL    C7021592   4.070   5.042   6.067 -0.0138  0.1073  0.8338
   52MOL    C7121593   4.031   5.171   6.116 -0.1415 -0.5526  0.6857
   52MOL    C7221594   3.954   5.254   6.031  0.2173  0.2510  0.9576
   52MOL    C7321595   3.923   5.211   5.900  0.6222  0.4789 -0.0240
   52MOL    C7421596   3.953   5.078   5.855 -0.9118 -0.3526 -0.0683
   52MOL    C7521597   3.726   4.744   5.689 -0.7030 -0.0676 -0.3910
   52MOL    H7621598   3.791   4.874   5.853 -0.9425  0.0415 -0.0745
   52MOL    H7721599   3.989   4.877   5.708  0.8189 -1.1741 -1.2675
   52MOL    H7821600   4.121   4.772   5.743  0.9279  1.2579 -1.5534
   52MOL    H7921601   4.135   4.982   6.129  2.7304  1.8952 -0.2288
   52MOL    H8021602   4.068   5.206   6.211 -0.2783 -1.5213  1.1084
   52MOL    H8121603   3.933   5.358   6.051 -1.3078  0.3514 -1.0425
   52MOL    H8221604   3.886   5.283   5.828  2.4389  1.9259  0.4821
   52MOL    H8321605   3.924   5.052   5.755  0.0051 -0.2078 -0.3765
   52MOL    H8421606   3.805   4.714   5.619  0.5308 -1.5481  1.5618
   52MOL    H8521607   3.664   4.656   5.675 -0.7688 -0.0524 -0.1778
   52MOL    C8621608   3.663   4.870   5.629  0.6845  0.0219  0.1253
   52MOL    O8721609   3.757   4.961   5.571 -0.0261  0.2406  0.4280
   52MOL    C8821610   3.716   5.095   5.575 -0.6626 -0.5258 -0.2601
   52MOL    O8921611   3.834   5.163   5.549 -0.7942  0.6517  0.4482
   52MOL    C9021612   3.837   5.302   5.539 -0.2232  0.5111 -0.4714
   52MOL    C9121613   3.717   5.378   5.529  0.4277 -0.3777 -0.4024
   52MOL    C9221614   3.726   5.514   5.542  1.0534  0.2174  0.1019
   52MOL    C9321615   3.853   5.582   5.540  0.5481 -0.2891  0.2134
   52MOL    C9421616   3.966   5.508   5.551 -0.0939 -0.0312  0.2892
   52MOL    C9521617   3.961   5.366   5.543  0.1215 -0.2036 -0.0702
   52MOL    C9621618   3.561   4.837   5.520 -0.8667  0.6077  0.3180
   52MOL    H9721619   3.616   4.935   5.704  0.8187  2.0939 -1.5325
   52MOL    H9821620   3.686   5.128   5.675  0.5554  1.4082 -0.5089
   52MOL    H9921621   3.628   5.115   5.512  0.0956 -1.5706 -1.6716
   52MOL   H10021622   3.617   5.339   5.542  1.3853 -3.0684 -0.7130
   52MOL   H10121623   3.640   5.579   5.546 -0.2157 -1.4465  0.3443
   52MOL   H10221624   3.853   5.689   5.555  0.0585 -0.3420  0.6031
   52MOL   H10321625   4.061   5.559   5.553 -0.2266  0.1810  1.8230
   52MOL   H10421626   4.052   5.309   5.535  1.1946  1.3394  0.8747
   52MOL   H10521627   3.542   4.928   5.462  1.2981  1.4335  0.8600
   52MOL   H10621628   3.602   4.763   5.451 -2.0302  1.4077 -1.2763
   52MOL   C10721629   3.423   4.785   5.567  0.0602 -0.5283 -0.4429
   52MOL   O10821630   3.372   4.910   5.611  0.2477  0.0858 -0.3438
   52MOL   C10921631   3.302   4.919   5.723  0.7947  0.1537  0.5174
   52MOL   O11021632   3.382   4.913   5.836 -0.5101 -0.1661 -0.2910
   52MOL   C11121633   3.447   5.029   5.874 -0.1148  0.5107  0.0786
   52MOL   C11221634   3.536   5.021   5.984  0.9448  0.1762  0.8073
   52MOL   C11321635   3.605   5.133   6.025 -0.8101  0.3208 -0.0282
   52MOL   C11421636   3.587   5.255   5.965  0.7849 -0.1281 -0.0053
   52MOL   C11521637   3.506   5.258   5.847  0.0144 -0.0070 -0.2214
   52MOL   C11621638   3.429   5.153   5.810  0.0389 -1.0258 -0.1428
   52MOL   C11721639   3.340   4.740   5.445  0.0082 -0.2290  0.1224
   52MOL   H11821640   3.436   4.702   5.636 -1.4624 -1.7439 -1.5637
   52MOL   H11921641   3.222   4.846   5.735  0.9869  0.3084  3.0737
   52MOL   H12021642   3.246   5.013   5.716 -0.4936 -0.6661 -0.4272
   52MOL   H12121643   3.540   4.926   6.036  1.4578 -0.5368 -0.5187
   52MOL   H12221644   3.663   5.131   6.117  0.3645 -1.9695 -0.7832
   52MOL   H12321645   3.649   5.337   5.998  0.4615 -0.1660  0.7074
   52MOL   H12421646   3.504   5.343   5.781 -1.0276  1.4473  1.6280
   52MOL   H12521647   3.374   5.170   5.719 -0.4008  0.6729  0.4252
   52MOL   H12621648   3.378   4.652   5.392  2.3367  1.1591 -0.5984
   52MOL   H12721649   3.344   4.811   5.362 -0.1716  2.4734  2.3748
   52MOL   C12821650   3.203   4.687   5.453 -0.2477 -0.1101 -0.3029
   52MOL   O12921651   3.168   4.589   5.348  0.5536 -0.4341  0.0715
   52MOL   C13021652   3.126   4.458   5.401 -0.1206 -0.1509 -0.1343
   52MOL   O13121653   3.233   4.365   5.411  0.4713  0.3329 -0.2459
   52MOL   C13221654   3.284   4.358   5.535 -0.6372  0.6069 -0.9003
   52MOL   C13321655   3.210   4.301   5.643 -0.2891 -0.7808 -0.2123
   52MOL   C13421656   3.275   4.296   5.773 -0.0153  0.7879  0.3217
   52MOL   C13521657   3.402   4.340   5.790  0.0296 -0.8646 -0.0067
   52MOL   C13621658   3.474   4.393   5.684  0.1109 -0.1019 -0.2436
   52MOL   C13721659   3.413   4.404   5.557 -0.2379  0.2954 -0.0865
   52MOL   C13821660   3.089   4.791   5.420  0.3278 -0.1592 -0.3484
   52MOL   H13921661   3.194   4.645   5.553  2.3295 -0.3988 -0.1781
   52MOL   H14021662   3.058   4.418   5.326 -3.9281  4.4985  0.5865
   52MOL   H14121663   3.072   4.469   5.495 -0.5833  0.2927 -0.4472
   52MOL   H14221664   3.108   4.275   5.617 -0.2737 -1.0486 -0.0023
   52MOL   H14321665   3.224   4.257   5.859 -2.4444  1.4279 -0.8024
   52MOL   H14421666   3.444   4.334   5.890 -1.6312  1.7982  0.8981
   52MOL   H14521667   3.581   4.408   5.694  0.0219  1.2923 -1.2712
   52MOL   H14621668   3.474   4.430   5.471 -0.3993  0.5147 -0.1349
   52MOL   H14721669   3.092   4.886   5.473 -1.5476 -1.0841  1.4498
   52MOL   H14821670   3.116   4.829   5.321 -0.4582  1.0341 -0.1235
   52MOL   C14921671   2.934   4.746   5.436  0.4641 -0.2101 -0.4512
   52MOL   O15021672   2.896   4.774   5.571  0.0929 -0.2045  0.1347
   52MOL   C15121673   2.814   4.684   5.632  0.2927  0.4454  0.4991
   52MOL   O15221674   2.892   4.571   5.675 -0.2443  0.3983  0.0069
   52MOL   C15321675   2.821   4.466   5.725 -0.5342 -0.0069 -0.2439
   52MOL   C15421676   2.889   4.373   5.808  0.4266  0.2560  0.7130
   52MOL   C15521677   2.820   4.263   5.863 -0.1080 -0.7349 -0.1347
   52MOL   C15621678   2.678   4.261   5.850 -0.7755  0.4183  0.0530
   52MOL   C15721679   2.611   4.348   5.769  0.0701  0.1111 -0.3209
   52MOL   C15821680   2.681   4.453   5.708  0.2672 -0.0580  0.9222
   52MOL   C15921681   2.829   4.817   5.344  0.1431  0.1957  0.4943
   52MOL   H16021682   2.927   4.640   5.413 -1.3697 -0.6238  1.8101
   52MOL   H16121683   2.768   4.727   5.721  3.0137  0.4628  1.9580
   52MOL   H16221684   2.738   4.663   5.556  0.8535  0.0847  0.0317
   52MOL   H16321685   2.994   4.390   5.829  0.0004  2.1490  1.3831
   52MOL   H16421686   2.863   4.194   5.934  0.4547  0.7171  0.9681
   52MOL   H16521687   2.628   4.196   5.920  0.4591  1.5502  2.0276
   52MOL   H16621688   2.504   4.345   5.754 -0.4131  0.3816  2.8258
   52MOL   H16721689   2.619   4.519   5.650 -0.2798 -0.0292  1.5371
   52MOL   H16821690   2.843   4.924   5.358  0.0021  0.1827  0.7313
   52MOL   H16921691   2.728   4.795   5.380  0.3240 -0.9749  0.3188
   52MOL   C17021692   2.830   4.768   5.205 -0.6660  0.1440  0.2078
   52MOL   O17121693   2.778   4.636   5.195  1.2084 -0.0857 -0.0309
   52MOL   C17221694   2.870   4.539   5.145 -0.1596  0.4301  0.1840
   52MOL   O17321695   2.842   4.408   5.191  0.0151 -0.2625 -0.0298
   52MOL   C17421696   2.894   4.305   5.114  0.5407  0.1694 -0.2180
   52MOL   C17521697   3.008   4.326   5.033 -0.5004 -0.3965  0.1734
   52MOL   C17621698   3.070   4.224   4.962  0.6528  0.0332  0.1147
   52MOL   C17721699   3.031   4.091   4.989 -0.6855  0.3886 -0.5242
   52MOL   C17821700   2.930   4.066   5.081  0.6411 -0.0540 -0.2775
   52MOL   C17921701   2.850   4.169   5.136  0.9013  0.1051  0.1642
   52MOL   C18021702   2.724   4.844   5.121 -0.2380  0.0717 -0.2713
   52MOL   H18121703   2.929   4.784   5.163 -0.0816 -1.8530  0.7990
   52MOL   H18221704   2.973   4.553   5.176  1.0157 -1.6981 -2.4528
   52MOL   H18321705   2.873   4.549   5.036 -0.4417  1.4347  0.2707
   52MOL   H18421706   3.038   4.424   4.997  2.8500 -1.7667 -0.9879
   52MOL   H18521707   3.154   4.251   4.900  1.1982 -2.2730 -0.1977
   52MOL   H18621708   3.089   4.006   4.956 -2.2500 -0.7499 -0.4116
   52MOL   H18721709   2.907   3.961   5.092 -1.1735  0.1255 -2.1248
   52MOL   H18821710   2.766   4.141   5.197 -0.8595  1.5623 -1.5412
   52MOL   H18921711   2.695   4.783   5.035  0.3931 -0.2831 -0.2340
   52MOL   H19021712   2.639   4.869   5.184 -1.4491  1.0298 -2.2176
   52MOL   C19121713   2.773   4.978   5.064 -0.7441  0.2593  0.2286
   52MOL   O19221714   2.842   5.049   5.170 -0.0443 -0.2365  0.3974
   52MOL   C19321715   2.950   5.125   5.142  0.6630  0.0003  0.9474
   52MOL   O19421716   3.053   5.043   5.092  0.7918 -1.1709  0.2014
   52MOL   C19521717   3.169   5.102   5.053 -0.3188  0.1591  0.0481
   52MOL   C19621718   3.262   5.020   4.989  0.1299 -0.7035  0.2436
   52MOL   C19721719   3.384   5.068   4.942 -0.2566 -0.3381 -0.3683
   52MOL   C19821720   3.419   5.202   4.968  0.1173 -0.3472  0.1865
   52MOL   C19921721   3.330   5.290   5.035 -0.6502  0.3873 -0.2989
   52MOL   C20021722   3.209   5.240   5.084 -0.5098  0.3334  0.0369
   52MOL   C20121723   2.668   5.066   4.997  0.7658  0.2765  0.1091
   52MOL   H20221724   2.851   4.947   4.994  0.1745 -1.2393  1.8504
   52MOL   H20321725   2.982   5.181   5.229  1.8557  0.2474  0.3593
   52MOL   H20421726   2.923   5.201   5.069 -0.7231 -0.5580  0.8560
   52MOL   H20521727   3.247   4.915   4.968  1.0624 -0.4861 -1.6365
   52MOL   H20621728   3.446   4.998   4.887 -0.9841 -3.2177  2.3845
   52MOL   H20721729   3.521   5.235   4.953 -0.4811  0.6481 -1.8917
   52MOL   H20821730   3.364   5.385   5.073  0.5984 -0.4113  0.6108
   52MOL   H20921731   3.149   5.304   5.146 -2.5117  1.1279 -2.6153
   52MOL   H21021732   2.587   5.102   5.061  0.1381 -2.7074  1.0593
   52MOL   H21121733   2.722   5.161   4.990  0.1996  0.5443 -0.7499
   52MOL   C21221734   2.601   5.010   4.870 -0.5655 -0.9064 -0.2689
   52MOL   O21321735   2.527   4.891   4.906  0.0638 -0.1591  0.3474
   52MOL   C21421736   2.509   4.794   4.808 -0.2323 -0.0294  0.5897
   52MOL   O21521737   2.421   4.826   4.707 -0.2290 -0.2764 -0.6603
   52MOL   C21621738   2.290   4.790   4.737  0.3273 -0.3082  0.7290
   52MOL   C21721739   2.208   4.772   4.622  0.4666 -0.3145 -0.0456
   52MOL   C21821740   2.079   4.714   4.629  0.2391  0.6378  0.6595
   52MOL   C21921741   2.020   4.688   4.759  0.1345  1.1929  0.3732
   52MOL   C22021742   2.101   4.705   4.875  0.1569  0.4229  0.2575
   52MOL   C22121743   2.230   4.760   4.864  0.3387 -0.1439  0.2625
   52MOL   C22221744   2.506   5.113   4.799  0.0724  0.0911 -0.0970
   52MOL   H22321745   2.673   4.957   4.808  1.2640  1.5735 -0.3319
   52MOL   H22421746   2.468   4.709   4.863  1.8932 -0.9768  0.7593
   52MOL   H22521747   2.602   4.759   4.763 -0.5201 -0.0840  0.0332
   52MOL   H22621748   2.252   4.805   4.530 -1.7092  0.1228 -0.9776
   52MOL   H22721749   2.024   4.690   4.539 -0.0942 -1.8954  1.5105
   52MOL   H22821750   1.918   4.660   4.779  0.5544 -1.5081 -1.0126
   52MOL   H22921751   2.057   4.702   4.974 -0.9803 -0.6061 -0.2722
   52MOL   H23021752   2.283   4.786   4.955 -1.3875 -1.4983  1.6970
   52MOL   H23121753   2.442   5.083   4.716 -0.0375  0.9230 -0.3192
   52MOL   H23221754   2.446   5.148   4.883  1.1584 -0.8803  1.0932
   52MOL   C23321755   2.573   5.239   4.737  0.0501  0.4543  0.9701
   52MOL   O23421756   2.643   5.206   4.618  0.0427 -0.3797 -0.4925
   52MOL   C23521757   2.784   5.185   4.640  0.7796  0.5273  0.0491
   52MOL   O23621758   2.847   5.300   4.687  0.0739  0.1621  0.3567
   52MOL   C23721759   2.984   5.289   4.693 -0.2065 -0.5099 -0.9451
   52MOL   C23821760   3.054   5.165   4.685 -0.3244 -0.5438  0.8809
   52MOL   C23921761   3.198   5.177   4.678 -0.0180 -0.5567 -0.2283
   52MOL   C24021762   3.266   5.299   4.690 -0.3264 -0.3923 -0.7709
   52MOL   C24121763   3.191   5.414   4.693 -0.3178  0.1593  0.2902
   52MOL   C24221764   3.055   5.414   4.693  0.2417  0.6494 -0.2183
   52MOL   C24321765   2.466   5.335   4.700  0.8283 -0.0242  0.3915
   52MOL   H24421766   2.629   5.285   4.818 -0.6965  2.3927  0.4034
   52MOL   H24521767   2.817   5.175   4.536 -0.2115 -0.9487 -0.1401
   52MOL   H24621768   2.811   5.102   4.705 -0.3280  1.0953  1.2442
   52MOL   H24721769   3.008   5.068   4.676 -1.9286  0.3049 -0.1058
   52MOL   H24821770   3.268   5.095   4.674  3.2250  2.1694 -2.1929
   52MOL   H24921771   3.373   5.299   4.704 -0.4927 -0.8640  0.5754
   52MOL   H25021772   3.226   5.516   4.695  1.4966 -0.4357 -0.2417
   52MOL   H25121773   2.996   5.504   4.704  0.3887  0.6438  0.6777
   52MOL   H25221774   2.395   5.285   4.634  1.1113 -1.2033  0.9783
   52MOL   H25321775   2.410   5.364   4.789 -0.2755 -0.3589 -0.1937
   52MOL   C25421776   2.510   5.467   4.640 -0.5501 -0.2182 -0.8757
   52MOL   O25521777   2.395   5.556   4.616  0.4558 -0.2190 -0.4736
   52MOL   C25621778   2.353   5.547   4.484 -0.3657  0.5469 -1.0226
   52MOL   O25721779   2.436   5.610   4.399 -0.1371 -0.1570 -0.0970
   52MOL   C25821780   2.397   5.605   4.267  0.6652 -0.8358  0.3896
   52MOL   C25921781   2.499   5.599   4.171 -0.2937  0.1311  0.4863
   52MOL   C26021782   2.475   5.593   4.028 -0.0013  0.2922  0.0224
   52MOL   C26121783   2.345   5.603   3.984 -0.0264  0.5213 -0.8697
   52MOL   C26221784   2.242   5.628   4.072 -0.7538  0.5656 -0.1249
   52MOL   C26321785   2.264   5.627   4.213 -0.2333  0.1518 -0.6954
   52MOL   C26421786   2.594   5.548   4.735 -0.0129  0.2010  0.5157
   52MOL   H26521787   2.581   5.448   4.559  3.2891  1.6117  1.9310
   52MOL   H26621788   2.258   5.599   4.481 -0.9413 -0.5461 -2.8882
   52MOL   H26721789   2.343   5.443   4.451  1.0912  0.5558 -1.5308
   52MOL   H26821790   2.601   5.607   4.204 -0.4732 -0.7657  1.2598
   52MOL   H26921791   2.565   5.576   3.970  2.1707  0.7432  3.1265
   52MOL   H27021792   2.314   5.606   3.880 -0.1723  0.4366 -0.8289
   52MOL   H27121793   2.149   5.653   4.023 -0.5320  2.3024  0.2916
   52MOL   H27221794   2.179   5.648   4.276  0.8034  1.1379  0.4041
   52MOL   H27321795   2.544   5.567   4.830  1.2306 -0.5159  1.3312
   52MOL   H27421796   2.684   5.498   4.770  1.2105  1.1202 -1.2522
   52MOL   C27521797   2.646   5.689   4.696 -0.2235  0.5438 -0.3414
   52MOL   O27621798   2.722   5.745   4.806  0.2067  0.3797  0.5741
   52MOL   C27721799   2.663   5.863   4.854 -0.5600 -0.3124  0.7269
   52MOL   O27821800   2.550   5.853   4.926  0.4322  0.2806 -0.6798
   52MOL   C27921801   2.557   5.803   5.053 -0.2615  0.6290 -0.8976
   52MOL   C28021802   2.432   5.784   5.118  0.3949  0.3673 -0.0629
   52MOL   C28121803   2.430   5.745   5.257  0.1801  0.8917 -0.5685
   52MOL   C28221804   2.553   5.720   5.321  0.1126 -0.8755  0.4700
   52MOL   C28321805   2.671   5.728   5.245 -0.8092 -0.1521  0.3518
   52MOL   C28421806   2.679   5.767   5.111  0.2074 -0.5836  0.3268
   52MOL   C28521807   2.738   5.688   4.573  0.5729  0.0431 -0.2680
   52MOL   H28621808   2.554   5.743   4.673 -1.5978 -1.6820 -0.2322
   52MOL   H28721809   2.619   5.924   4.775 -1.7268 -2.2098 -0.1196
   52MOL   H28821810   2.735   5.920   4.912 -0.5513 -0.2520  0.6555
   52MOL   H28921811   2.338   5.797   5.068 -1.1300 -0.8806  2.3569
   52MOL   H29021812   2.331   5.718   5.293 -0.7706  2.1429 -2.1716
   52MOL   H29121813   2.548   5.679   5.421  0.0097 -1.9558  0.0292
   52MOL   H29221814   2.767   5.698   5.285 -0.2366 -0.2922 -1.1145
   52MOL   H29321815   2.776   5.780   5.067  0.7825  1.1030  1.9924
   52MOL   H29421816   2.690   5.621   4.503  0.3180 -0.9800  0.8636
   52MOL   H29521817   2.821   5.624   4.603 -0.6378 -1.4353 -0.0074
   52MOL   C29621818   2.778   5.823   4.513 -0.1403 -0.1032  0.3643
   52MOL   O29721819   2.887   5.819   4.420  0.3492  0.7695  0.7162
   52MOL   C29821820   3.008   5.771   4.472  0.0160  0.7080  0.1646
   52MOL   O29921821   3.126   5.810   4.400  0.5437  0.0227  0.3217
   52MOL   C30021822   3.243   5.743   4.421  0.3144  0.3719 -0.4215
   52MOL   C30121823   3.255   5.603   4.432 -0.0054  0.5189  0.7442
   52MOL   C30221824   3.383   5.557   4.463 -0.6947  0.1565 -0.5574
   52MOL   C30321825   3.494   5.647   4.484 -0.2283 -0.4979  0.0323
   52MOL   C30421826   3.479   5.787   4.471  0.4926  0.5019 -0.0265
   52MOL   C30521827   3.348   5.835   4.446  0.1188 -0.5078 -0.6128
   52MOL   C30621828   2.658   5.869   4.430  0.1184  1.0209  0.3459
   52MOL   H30721829   2.786   5.897   4.592 -1.7343 -0.4637  0.8693
   52MOL   H30821830   3.012   5.664   4.488  0.3861  0.8907  1.3239
   52MOL   H30921831   3.030   5.814   4.570 -0.3545  0.8636  0.1800
   52MOL   H31021832   3.183   5.529   4.400  2.1718 -1.5557  0.5453
   52MOL   H31121833   3.391   5.449   4.465  0.1950  0.2384  0.3094
   52MOL   H31221834   3.594   5.606   4.494 -1.4998 -3.4514  1.1154
   52MOL   H31321835   3.561   5.856   4.488 -0.1310  0.8085  1.8608
   52MOL   H31421836   3.335   5.942   4.441  1.1863 -0.4223 -1.7235
   52MOL   H31521837   2.562   5.841   4.474  0.0777 -0.3700 -0.5799
   52MOL   H31621838   2.669   5.819   4.334 -0.6806  0.5009  0.5180
   52MOL   C31721839   2.663   6.019   4.405 -0.0957  0.0485  0.5456
   52MOL   O31821840   2.607   6.082   4.524  0.5165 -0.1999  0.9728
   52MOL   C31921841   2.679   6.180   4.590 -0.7544 -0.8208  0.0129
   52MOL   O32021842   2.803   6.129   4.637  0.5821 -0.7775 -0.4256
   52MOL   C32121843   2.880   6.201   4.717  0.0534  0.1186 -1.0337
   52MOL   C32221844   2.844   6.332   4.764  0.1214 -0.7391 -0.1373
   52MOL   C32321845   2.938   6.406   4.848 -0.1649  0.9556  0.7954
   52MOL   C32421846   3.055   6.336   4.889  0.2230  0.0847  0.0878
   52MOL   C32521847   3.092   6.207   4.843  0.1040 -0.0850  0.3229
   52MOL   C32621848   3.002   6.141   4.759 -0.4312 -0.0940  0.0730
   52MOL   C32721849   2.574   6.060   4.288 -0.5648 -0.6583  0.4679
   52MOL   H32821850   2.762   6.062   4.391  0.5262 -0.3847  3.3898
   52MOL   H32921851   2.622   6.209   4.678  0.6020  1.3605  0.2110
   52MOL   H33021852   2.683   6.273   4.534  1.1173  1.1628  3.3089
   52MOL   H33121853   2.749   6.370   4.730  0.5096 -0.8498 -1.3781
   52MOL   H33221854   2.914   6.501   4.894  1.4688  1.3548  0.8467
   52MOL   H33321855   3.123   6.385   4.957  0.7134 -0.6150  0.1095
   52MOL   H33421856   3.182   6.153   4.870 -1.6131 -3.3005 -0.1744
   52MOL   H33521857   3.014   6.043   4.717 -3.8902 -0.3937 -0.3818
   52MOL   H33621858   2.470   6.033   4.307 -0.8697 -0.5014 -0.9139
   52MOL   H33721859   2.569   6.169   4.286 -0.8648 -0.6883 -0.9579
   52MOL   C33821860   2.604   6.025   4.143 -0.3799  0.0529  0.7895
   52MOL   O33921861   2.495   6.073   4.060  0.1524  0.7709  0.0231
   52MOL   C34021862   2.387   5.984   4.053  0.5804  0.2009 -0.1838
   52MOL   O34121863   2.290   5.998   4.155  0.0386  0.0592 -0.6814
   52MOL   C34221864   2.212   6.115   4.154 -0.2055  0.0816 -0.3938
   52MOL   C34321865   2.110   6.119   4.257  0.3966  0.0389 -0.6182
   52MOL   C34421866   2.014   6.218   4.261  0.5249  0.3712  0.7335
   52MOL   C34521867   2.026   6.325   4.169 -0.3017 -0.0581 -0.1739
   52MOL   C34621868   2.139   6.331   4.080 -0.1672  0.0835 -0.2833
   52MOL   C34721869   2.224   6.224   4.068 -1.3933  0.8189  0.3908
   52MOL   C34821870   2.729   6.097   4.091  0.2405 -0.2825  0.8309
   52MOL   H34921871   2.610   5.917   4.130  0.6523  0.2946 -0.8219
   52MOL   H35021872   2.409   5.878   4.041  0.4653  0.2306 -0.7144
   52MOL   H35121873   2.341   5.991   3.954  0.5508 -0.1939 -0.1959
   52MOL   H35221874   2.098   6.032   4.321 -2.0743 -0.0715 -1.1874
   52MOL   H35321875   1.931   6.208   4.329  1.5622 -0.0482  1.9606
   52MOL   H35421876   1.955   6.406   4.169  0.8788  0.9934 -0.2931
   52MOL   H35521877   2.148   6.417   4.015 -0.6409  1.0264  0.8738
   52MOL   H35621878   2.309   6.224   4.001 -1.9781 -0.9431 -0.3869
   52MOL   H35721879   2.739   6.200   4.125 -0.3251  0.0766 -0.0500
   52MOL   H35821880   2.724   6.130   3.987  1.4166 -0.0386  0.8415
   52MOL   C35921881   2.854   6.024   4.106  0.1685  0.2082  0.4803
   52MOL   O36021882   2.959   6.114   4.107  0.2173 -0.9469  0.3879
   52MOL   C36121883   3.025   6.125   4.229 -0.2265  0.1371 -0.6283
   52MOL   O36221884   3.128   6.217   4.220  0.1740  0.6402  0.0131
   52MOL   C36321885   3.220   6.213   4.319  0.1163  0.8496 -0.2355
   52MOL   C36421886   3.356   6.247   4.284 -0.9274 -0.2620  0.0193
   52MOL   C36521887   3.457   6.237   4.384  0.0386 -0.4576 -0.6090
   52MOL   C36621888   3.421   6.197   4.515  0.4649  0.5336 -0.1922
   52MOL   C36721889   3.286   6.167   4.551  0.0265  0.6880 -1.0845
   52MOL   C36821890   3.190   6.173   4.450  0.2679 -0.5014 -0.1838
   52MOL   C36921891   2.873   5.935   3.979 -0.1991  0.2080  0.5092
   52MOL   H37021892   2.851   5.966   4.198 -1.2052  1.6166  1.3412
   52MOL   H37121893   3.065   6.029   4.261  2.2144  1.5083  0.5363
   52MOL   H37221894   2.954   6.150   4.308  0.8300  0.4936  0.2173
   52MOL   H37321895   3.386   6.261   4.181 -0.5796  4.7454  0.6939
   52MOL   H37421896   3.562   6.255   4.364 -0.8798  1.9119 -3.6852
   52MOL   H37521897   3.499   6.188   4.590  0.5457  0.8736 -0.2350
   52MOL   H37621898   3.267   6.126   4.649 -0.8190 -0.9912 -1.9478
   52MOL   H37721899   3.089   6.143   4.474  0.9395 -1.4738  1.5343
   52MOL   H37821900   2.928   5.997   3.910  1.0073 -1.4641 -0.0549
   52MOL   H37921901   2.784   5.907   3.922  0.5722 -0.7259 -0.2420
   52MOL   C38021902   2.952   5.804   4.007 -0.4200 -0.3328  0.3071
   52MOL   O38121903   3.004   5.771   3.873  1.0119 -0.0873 -0.4107
   52MOL   C38221904   3.116   5.845   3.824  0.8335  0.6385  0.2472
   52MOL   O38321905   3.212   5.877   3.919 -0.2795 -0.0891 -0.4719
   52MOL   C38421906   3.307   5.785   3.958  0.5874  0.3894  0.4683
   52MOL   C38521907   3.394   5.825   4.066  0.2514  0.2572 -0.6263
   52MOL   C38621908   3.496   5.742   4.112 -1.8276 -0.1508  0.5243
   52MOL   C38721909   3.510   5.613   4.047  0.2294 -0.4189 -0.7302
   52MOL   C38821910   3.430   5.582   3.937  0.0880 -0.5349 -0.4101
   52MOL   C38921911   3.324   5.661   3.894 -0.4650  0.0833  0.1819
   52MOL   C39021912   2.852   5.694   4.056 -0.4655  0.3818  0.2726
   52MOL   H39121913   3.033   5.829   4.076  0.7046 -1.4233 -0.5946
   52MOL   H39221914   3.161   5.803   3.734 -1.0924  1.1202 -0.9443
   52MOL   H39321915   3.079   5.940   3.788 -0.4590 -0.3773 -1.1796
   52MOL   H39421916   3.373   5.917   4.119  0.2826 -0.1944  0.1782
   52MOL   H39521917   3.557   5.764   4.199 -1.0578 -1.9029  0.4636
   52MOL   H39621918   3.581   5.541   4.084  1.0647  1.0268  0.5347
   52MOL   H39721919   3.435   5.488   3.884  0.3382  0.3883 -2.0573
   52MOL   H39821920   3.250   5.625   3.824 -1.9722 -0.3044  1.9424
   52MOL   H39921921   2.789   5.666   3.971 -1.5892  1.3742  0.7629
   52MOL   H40021922   2.789   5.737   4.134  0.4212  2.2007  0.0192
   52MOL   C40121923   2.931   5.575   4.119  0.8586 -0.3245  0.2386
   52MOL   O40221924   2.840   5.479   4.165 -0.6307  0.4219  0.1175
   52MOL   C40321925   2.841   5.466   4.300  0.4916  0.8203 -0.4386
   52MOL   O40421926   2.960   5.401   4.334  0.2836 -0.6046  0.2953
   52MOL   C40521927   2.970   5.269   4.301 -0.1755 -0.6750  0.0304
   52MOL   C40621928   3.087   5.201   4.339  0.3691  0.0403  0.1683
   52MOL   C40721929   3.102   5.064   4.322 -0.1395 -0.1332 -0.2419
   52MOL   C40821930   3.000   4.998   4.254 -0.7456  0.3107 -0.0114
   52MOL   C40921931   2.884   5.060   4.212  0.8780  0.4873  0.1340
   52MOL   C41021932   2.870   5.195   4.235 -0.2435  0.2289 -0.2225
   52MOL   C41121933   3.024   5.492   4.033  0.0272  0.1543 -0.0174
   52MOL   H41221934   2.992   5.616   4.199 -0.0984 -1.7265  1.7045
   52MOL   H41321935   2.758   5.404   4.334  2.7006 -1.8193  0.3130
   52MOL   H41421936   2.820   5.557   4.356  1.7462  0.3479  0.8060
   52MOL   H41521937   3.157   5.258   4.399  1.6227 -0.4074 -0.8537
   52MOL   H41621938   3.190   5.018   4.363 -0.2711 -0.8508 -0.7524
   52MOL   H41721939   3.000   4.890   4.248  1.0006  0.2814  0.3353
   52MOL   H41821940   2.801   5.000   4.177  1.8143 -0.7572 -0.0023
   52MOL   H41921941   2.776   5.236   4.200 -0.4345  0.4808  0.5742
   52MOL   H42021942   2.966   5.455   3.949 -1.1512 -2.1961  1.7914
   52MOL   H42121943   3.069   5.412   4.093 -1.0228  1.0059  1.9503
   52MOL   H42221944   3.101   5.557   3.991 -1.7105  3.1434  1.2349
   53MOL     C121945   6.147   5.131   3.879 -0.2171  0.4861 -0.1798
   53MOL     O221946   6.057   5.022   3.870  0.2459  0.1411 -0.4875
   53MOL     C321947   5.982   5.004   3.989 -0.4505 -0.0151 -0.5175
   53MOL     O421948   6.056   4.943   4.091 -0.4671 -0.4960  0.5157
   53MOL     C521949   6.119   4.823   4.075 -0.2553 -0.1535  0.1628
   53MOL     C621950   6.111   4.747   3.954 -0.7784 -0.5189  1.1552
   53MOL     C721951   6.200   4.638   3.932 -0.4117  0.4231 -0.3160
   53MOL     C821952   6.292   4.597   4.033  0.0632 -0.1557 -0.9901
   53MOL     C921953   6.288   4.666   4.155  0.2508 -0.3692  0.3707
   53MOL    C1021954   6.208   4.783   4.177 -0.0804  0.3328  0.0094
   53MOL    C1121955   6.252   5.116   3.766 -0.1997 -0.6142  0.1361
   53MOL    H1221956   6.094   5.223   3.856  0.5523  0.7527 -0.8901
   53MOL    H1321957   5.940   5.097   4.027 -0.7206 -0.9898  1.6252
   53MOL    H1421958   5.895   4.945   3.960 -0.5927 -0.7039  1.2535
   53MOL    H1521959   6.045   4.764   3.870 -1.0912 -1.8596  1.1179
   53MOL    H1621960   6.192   4.590   3.836 -0.8344  0.6101 -0.3760
   53MOL    H1721961   6.348   4.506   4.014 -0.1749 -0.3997 -0.5508
   53MOL    H1821962   6.355   4.643   4.237  2.5061  1.8734 -0.7645
   53MOL    H1921963   6.215   4.839   4.269  2.6240 -0.3710  0.2676
   53MOL    H2021964   6.299   5.208   3.730 -1.9929 -0.6022 -2.3104
   53MOL    H2121965   6.198   5.076   3.680 -2.2131  1.0205  0.6144
   53MOL    H2221966   6.200   5.138   3.975  0.9071 -2.1576 -0.5619
   53MOL    C2321967   6.371   5.022   3.815 -0.0397  0.3311  0.5474
   53MOL    O2421968   6.437   5.090   3.925  0.1031 -0.0764  0.0797
   53MOL    C2521969   6.489   5.008   4.026 -0.2880  0.8858  0.2178
   53MOL    O2621970   6.608   4.945   3.985 -0.1101  0.5690  0.6766
   53MOL    C2721971   6.726   5.015   4.007  0.5103 -0.4428  0.3351
   53MOL    C2821972   6.845   4.945   4.021 -0.1853 -0.1318 -0.0900
   53MOL    C2921973   6.969   5.013   4.024  0.0459 -0.0913 -0.5257
   53MOL    C3021974   6.978   5.151   4.011 -0.0055  0.0755 -0.6041
   53MOL    C3121975   6.858   5.225   4.008 -0.1616  0.0011 -0.2174
   53MOL    C3221976   6.732   5.159   4.009  0.4048  1.0215  0.2929
   53MOL    C3321977   6.480   4.990   3.707  0.0672 -0.2647  0.0675
   53MOL    H3421978   6.317   4.930   3.836 -0.7089  0.2863 -1.2743
   53MOL    H3521979   6.409   4.936   4.038  0.7330 -0.8364 -2.7396
   53MOL    H3621980   6.517   5.052   4.122 -0.1624 -0.4776  0.8107
   53MOL    H3721981   6.832   4.838   4.020 -1.0976 -0.0883  2.1921
   53MOL    H3821982   7.064   4.963   4.041  0.5138  1.4018  1.5516
   53MOL    H3921983   7.074   5.200   4.002  1.4195 -2.7750 -1.2683
   53MOL    H4021984   6.866   5.332   4.007 -0.4975  0.0464  0.7373
   53MOL    H4121985   6.640   5.215   4.006 -0.8852 -1.0958 -2.2870
   53MOL    H4221986   6.571   5.027   3.754  0.6752 -0.2294 -1.1306
   53MOL    H4321987   6.458   5.047   3.617  3.5915  0.7809 -0.2109
   53MOL    C4421988   6.500   4.842   3.675  0.6013 -0.7094  0.3664
   53MOL    O4521989   6.613   4.829   3.588 -0.0454  0.1002  0.0183
   53MOL    C4621990   6.744   4.859   3.626  0.2451  0.0285  0.2404
   53MOL    O4721991   6.780   4.769   3.728 -0.1990 -0.1298  0.5573
   53MOL    C4821992   6.854   4.664   3.681  0.0162 -0.4598  0.4010
   53MOL    C4921993   6.976   4.631   3.750 -0.6819 -0.0282  0.6006
   53MOL    C5021994   7.057   4.519   3.716 -0.6833 -0.1236  0.6818
   53MOL    C5121995   7.021   4.449   3.597  0.1088 -0.1285 -0.3745
   53MOL    C5221996   6.908   4.492   3.516  0.3762  0.0966  0.1774
   53MOL    C5321997   6.824   4.597   3.560 -0.6121 -0.5599  0.1366
   53MOL    C5421998   6.384   4.784   3.603 -0.1394 -0.4344  0.3813
   53MOL    H5521999   6.526   4.781   3.761 -0.5365 -0.7336  0.6992
   53MOL    H5622000   6.750   4.959   3.667 -0.6611 -0.3073  1.2177
   53MOL    H5722001   6.816   4.852   3.545  0.7123 -1.3832  0.7564
   53MOL    H5822002   7.008   4.682   3.840  1.5552  0.4755 -0.4643
   53MOL    H5922003   7.139   4.486   3.778 -1.3599 -1.2831  0.9716
   53MOL    H6022004   7.081   4.365   3.565 -0.6188 -0.6704 -0.3121
   53MOL    H6122005   6.882   4.448   3.421  0.7738 -1.7374  0.8793
   53MOL    H6222006   6.738   4.608   3.497 -0.1805 -1.2450 -0.5781
   53MOL    H6322007   6.291   4.804   3.656  1.2054 -0.5419  2.8302
   53MOL    H6422008   6.365   4.847   3.515  0.5648 -0.8100 -0.0426
   53MOL    C6522009   6.376   4.629   3.569  0.3385 -0.3878 -0.1140
   53MOL    O6622010   6.377   4.559   3.686  0.5088  0.3878  0.1018
   53MOL    C6722011   6.498   4.508   3.721  0.0388  0.2303 -0.7497
   53MOL    O6822012   6.522   4.395   3.648  0.5814  0.4098  0.2212
   53MOL    C6922013   6.455   4.273   3.679 -0.5605 -0.1313  0.0420
   53MOL    C7022014   6.354   4.269   3.777 -0.0318  0.4287  0.4140
   53MOL    C7122015   6.283   4.147   3.789  0.2149  0.0904  0.3066
   53MOL    C7222016   6.310   4.034   3.710  0.2704  0.0417 -0.0270
   53MOL    C7322017   6.422   4.038   3.632 -0.3823 -0.2055 -0.5866
   53MOL    C7422018   6.491   4.158   3.607 -1.2403  1.4911 -0.3028
   53MOL    C7522019   6.240   4.611   3.494 -0.3452 -0.0897  0.1438
   53MOL    H7622020   6.453   4.591   3.502 -0.7292 -0.6970 -1.2007
   53MOL    H7722021   6.493   4.478   3.826 -0.5280  2.1245 -0.2175
   53MOL    H7822022   6.581   4.575   3.703  0.4044  0.3079  1.0788
   53MOL    H7922023   6.332   4.357   3.836  1.5704  1.3783 -0.3894
   53MOL    H8022024   6.193   4.135   3.847 -0.0344 -0.2189 -0.1423
   53MOL    H8122025   6.256   3.942   3.727 -2.3353  1.4930 -0.0248
   53MOL    H8222026   6.459   3.950   3.582  0.8584 -0.1357  0.1788
   53MOL    H8322027   6.577   4.157   3.542 -0.2582  1.9908  0.9692
   53MOL    H8422028   6.196   4.513   3.508 -4.0900  1.5825  0.4869
   53MOL    H8522029   6.162   4.668   3.543 -0.4779 -2.4429  2.7770
   53MOL    C8622030   6.265   4.630   3.339  0.3899  0.5621  0.3862
   53MOL    O8722031   6.271   4.508   3.275  0.6318  0.2194  0.2534
   53MOL    C8822032   6.394   4.443   3.261 -0.1104 -0.0027 -0.8625
   53MOL    O8922033   6.490   4.524   3.201  0.1012  0.0375 -0.4911
   53MOL    C9022034   6.606   4.469   3.150 -0.3762  0.4619  0.6045
   53MOL    C9122035   6.637   4.330   3.138 -0.1141 -0.5262  0.0286
   53MOL    C9222036   6.769   4.295   3.093  0.0214 -0.2761  0.4000
   53MOL    C9322037   6.865   4.394   3.049 -0.1745 -0.2624  0.3796
   53MOL    C9422038   6.833   4.526   3.068  0.3447 -0.5216 -0.1751
   53MOL    C9522039   6.710   4.559   3.123  0.1405 -0.2838 -0.0412
   53MOL    C9622040   6.140   4.688   3.286  0.6642 -0.3899  0.2592
   53MOL    H9722041   6.358   4.687   3.328  0.3358 -0.0821 -4.1212
   53MOL    H9822042   6.368   4.357   3.200  0.2484 -0.8175  0.1270
   53MOL    H9922043   6.421   4.403   3.359 -0.3813  0.7629 -0.4676
   53MOL   H10022044   6.573   4.250   3.172 -1.9008  0.0676 -1.8767
   53MOL   H10122045   6.802   4.192   3.086 -0.0200 -0.2944  0.4697
   53MOL   H10222046   6.960   4.367   3.005 -0.9740 -0.6272 -1.1734
   53MOL   H10322047   6.900   4.602   3.031 -1.8102  1.0075 -1.0220
   53MOL   H10422048   6.688   4.665   3.122  3.2104  0.3945 -1.0922
   53MOL   H10522049   6.056   4.623   3.311 -1.3009  1.5556 -1.0715
   53MOL   H10622050   6.118   4.782   3.337 -0.9224  0.2804 -1.5692
   53MOL   C10722051   6.126   4.714   3.135  0.0014  0.6068  0.4330
   53MOL   O10822052   5.987   4.765   3.124 -0.3556  0.2069 -0.6177
   53MOL   C10922053   5.909   4.683   3.039  0.2826  0.7631 -0.1671
   53MOL   O11022054   5.897   4.552   3.084 -0.3380  0.5746 -0.6999
   53MOL   C11122055   5.836   4.458   3.002 -0.4455  0.2169  0.5660
   53MOL   C11222056   5.737   4.493   2.906 -0.6664  0.1004  0.3821
   53MOL   C11322057   5.672   4.394   2.838  0.0474  0.3874 -0.6072
   53MOL   C11422058   5.693   4.257   2.865  0.2653  0.2864 -0.2988
   53MOL   C11522059   5.799   4.221   2.949 -0.1976 -0.7098  0.1968
   53MOL   C11622060   5.863   4.322   3.024 -0.7845  0.1814  0.1092
   53MOL   C11722061   6.205   4.836   3.085 -0.3232  0.4110 -0.4092
   53MOL   H11822062   6.139   4.621   3.080 -0.4914  1.4602 -1.1552
   53MOL   H11922063   5.957   4.679   2.941  0.3898  0.7285 -0.1134
   53MOL   H12022064   5.812   4.731   3.026 -0.7350 -1.4311 -0.9868
   53MOL   H12122065   5.706   4.596   2.893 -1.7778 -0.3672 -0.7377
   53MOL   H12222066   5.601   4.429   2.764  0.2865  0.4084 -0.8246
   53MOL   H12322067   5.651   4.182   2.799  0.6962 -0.4430  0.2454
   53MOL   H12422068   5.830   4.118   2.946  0.5325 -0.5903  2.6367
   53MOL   H12522069   5.930   4.300   3.106  0.5918  0.0764 -1.0332
   53MOL   H12622070   6.207   4.913   3.163 -0.9492 -0.2868  0.3054
   53MOL   H12722071   6.147   4.884   3.006 -2.5143 -0.6795  0.4716
   53MOL   C12822072   6.348   4.816   3.025  1.0986  0.7824  0.0430
   53MOL   O12922073   6.426   4.934   3.044  0.3499 -0.0275  0.4063
   53MOL   C13022074   6.369   5.058   3.006  0.5507 -0.2614  0.5535
   53MOL   O13122075   6.306   5.109   3.107 -0.0315  0.1176 -0.0096
   53MOL   C13222076   6.369   5.161   3.211 -0.2766 -1.0457 -0.2425
   53MOL   C13322077   6.510   5.172   3.230 -0.4384  0.3721 -0.1007
   53MOL   C13422078   6.572   5.217   3.350 -0.0376 -0.1145 -0.5606
   53MOL   C13522079   6.485   5.270   3.452  0.7386 -0.2182 -0.1073
   53MOL   C13622080   6.345   5.267   3.436 -0.1938  0.0120 -0.3043
   53MOL   C13722081   6.290   5.218   3.310 -0.4285 -0.3397  0.2029
   53MOL   C13822082   6.354   4.772   2.880  0.3831 -0.3177  0.0844
   53MOL   H13922083   6.391   4.740   3.090 -0.8617 -0.6736 -0.3079
   53MOL   H14022084   6.293   5.047   2.929  0.3266  1.5229  0.5121
   53MOL   H14122085   6.447   5.123   2.965  0.9680 -0.2817  1.2942
   53MOL   H14222086   6.572   5.126   3.155  0.7301  1.7125  0.0333
   53MOL   H14322087   6.679   5.215   3.365 -0.0658  3.0526  0.3660
   53MOL   H14422088   6.516   5.305   3.550 -2.1830  0.1915  0.7092
   53MOL   H14522089   6.284   5.306   3.516  2.5014  3.2266  0.2789
   53MOL   H14622090   6.183   5.224   3.302 -0.3866  1.0327  0.6455
   53MOL   H14722091   6.274   4.813   2.818  0.1018 -1.2574 -0.1968
   53MOL   H14822092   6.441   4.826   2.842 -1.6279  2.2746 -0.9401
   53MOL   C14922093   6.373   4.624   2.851  0.2215 -0.9586 -0.3095
   53MOL   O15022094   6.246   4.561   2.878  0.5014 -0.3109 -0.3860
   53MOL   C15122095   6.257   4.422   2.923  0.2531 -0.0965 -0.4296
   53MOL   O15222096   6.296   4.344   2.815  0.3967 -0.3519  0.3593
   53MOL   C15322097   6.201   4.302   2.727 -0.0686  0.5176  0.4905
   53MOL   C15422098   6.254   4.219   2.626 -0.1679 -0.0235  0.5167
   53MOL   C15522099   6.165   4.161   2.528  0.3611 -0.1886  1.0427
   53MOL   C15622100   6.034   4.206   2.511  0.6794 -0.6155  0.5067
   53MOL   C15722101   5.981   4.293   2.612 -0.9850  0.3129 -0.7837
   53MOL   C15822102   6.061   4.334   2.720 -0.4384  0.0720  1.1631
   53MOL   C15922103   6.416   4.605   2.705  0.5479  0.0626 -0.5297
   53MOL   H16022104   6.452   4.589   2.917 -0.7596  1.3980  2.1840
   53MOL   H16122105   6.342   4.415   2.992 -1.2686 -1.5194  1.3632
   53MOL   H16222106   6.178   4.365   2.971  0.1834 -0.1799 -0.6452
   53MOL   H16322107   6.358   4.191   2.631 -0.1920 -0.0662  0.7641
   53MOL   H16422108   6.198   4.085   2.458  1.7686  1.7419 -0.4506
   53MOL   H16522109   5.964   4.166   2.438 -0.9486  0.7346  1.2830
   53MOL   H16622110   5.882   4.335   2.610 -0.2686  1.9705 -2.5882
   53MOL   H16722111   6.016   4.399   2.794 -1.5407  1.2775 -0.5290
   53MOL   H16822112   6.336   4.635   2.638  1.5649  0.5178 -1.5458
   53MOL   H16922113   6.429   4.499   2.688  1.1547  0.2819 -1.4261
   53MOL   C17022114   6.540   4.675   2.653  0.6688 -0.2737  0.0095
   53MOL   O17122115   6.529   4.815   2.627 -0.6052 -0.3803 -0.2326
   53MOL   C17222116   6.451   4.872   2.525  0.2033  0.0002  0.1934
   53MOL   O17322117   6.312   4.880   2.553  0.5671  0.0153  0.7037
   53MOL   C17422118   6.264   4.991   2.617 -0.4287 -0.0001 -0.4130
   53MOL   C17522119   6.322   5.122   2.629 -0.7033 -0.1006 -0.3162
   53MOL   C17622120   6.256   5.227   2.692  0.0636 -0.6212  0.4188
   53MOL   C17722121   6.136   5.201   2.769 -0.5339  0.0344  0.4629
   53MOL   C17822122   6.080   5.074   2.758  0.5887  0.0806 -0.5136
   53MOL   C17922123   6.139   4.975   2.682  0.8456  0.1619  0.2093
   53MOL   C18022124   6.659   4.653   2.744  0.4036 -0.3829 -0.6658
   53MOL   H18122125   6.569   4.638   2.555 -0.6662 -1.2566 -0.0339
   53MOL   H18222126   6.466   4.812   2.436 -2.9898 -1.3865  0.5084
   53MOL   H18322127   6.495   4.970   2.504 -2.0244  1.1154  0.5274
   53MOL   H18422128   6.418   5.146   2.584  0.7583 -2.0537  1.7070
   53MOL   H18522129   6.302   5.325   2.689 -1.2575  0.0429  1.1847
   53MOL   H18622130   6.101   5.280   2.833  0.0964  0.8218 -0.1574
   53MOL   H18722131   5.999   5.041   2.821  0.7890 -0.6972 -0.6553
   53MOL   H18822132   6.074   4.889   2.673  0.4076  0.3298  1.7525
   53MOL   H18922133   6.642   4.706   2.838  1.6316  1.2212 -1.3266
   53MOL   H19022134   6.683   4.547   2.750 -1.0646 -0.6591  0.4325
   53MOL   C19122135   6.785   4.711   2.672 -0.3535 -0.4156  0.5529
   53MOL   O19222136   6.798   4.634   2.556  0.0286 -0.0460 -0.6923
   53MOL   C19322137   6.795   4.709   2.432 -0.3668  0.0190  0.5040
   53MOL   O19422138   6.904   4.799   2.424  0.0143 -0.4498  0.0810
   53MOL   C19522139   6.927   4.860   2.305 -0.6332  0.3595 -0.0509
   53MOL   C19622140   7.047   4.932   2.292 -0.6974  0.3386 -0.0908
   53MOL   C19722141   7.083   5.007   2.178 -0.3322 -0.1747 -0.1731
   53MOL   C19822142   7.000   4.993   2.062  0.8492 -0.2743  0.7500
   53MOL   C19922143   6.884   4.920   2.072  0.1978  0.0630  0.1668
   53MOL   C20022144   6.843   4.851   2.190 -0.7171 -0.0228  0.0729
   53MOL   C20122145   6.916   4.709   2.748  0.4670  0.0433  0.0842
   53MOL   H20222146   6.772   4.819   2.658  1.8388 -0.0312  1.1931
   53MOL   H20322147   6.695   4.751   2.419 -0.5852 -1.1868 -2.1454
   53MOL   H20422148   6.791   4.634   2.353 -0.3988  2.3730 -1.8367
   53MOL   H20522149   7.123   4.937   2.368  0.2390  0.4734 -1.0310
   53MOL   H20622150   7.176   5.060   2.165 -0.0301 -0.7705 -0.4272
   53MOL   H20722151   7.027   5.040   1.968 -0.9014  1.0031  0.8680
   53MOL   H20822152   6.814   4.905   1.991 -0.6438  1.3409  0.6355
   53MOL   H20922153   6.752   4.794   2.196  0.6653 -2.2935  0.2937
   53MOL   H21022154   6.924   4.617   2.804 -2.0349 -0.3261 -0.0893
   53MOL   H21122155   7.001   4.702   2.680  0.3839  1.2752 -0.1686
   53MOL   C21222156   6.937   4.829   2.845 -0.6869  0.1303  0.0074
   53MOL   O21322157   6.837   4.827   2.948  0.4712  0.7026 -0.2301
   53MOL   C21422158   6.761   4.944   2.965  1.0191  0.2673  0.0747
   53MOL   O21522159   6.831   5.065   2.981 -0.6989  0.9413  0.1654
   53MOL   C21622160   6.884   5.089   3.107 -0.3329 -0.1930 -1.0814
   53MOL   C21722161   6.922   5.216   3.150 -0.1354 -0.7424 -0.5897
   53MOL   C21822162   6.975   5.235   3.280  0.3989 -0.8141  1.2606
   53MOL   C21922163   6.995   5.125   3.365  0.4177  0.3191  0.0224
   53MOL   C22022164   6.963   5.000   3.331  0.1350  0.4313 -0.4291
   53MOL   C22122165   6.906   4.981   3.203 -0.0301 -0.0395  0.2252
   53MOL   C22222166   7.078   4.830   2.913 -0.2028 -0.3799  0.3408
   53MOL   H22322167   6.936   4.928   2.799 -0.0386 -0.1598 -0.6526
   53MOL   H22422168   6.698   4.938   3.053  2.2316  1.2645  1.0246
   53MOL   H22522169   6.685   4.953   2.888 -1.3881  0.1961  2.3895
   53MOL   H22622170   6.901   5.304   3.091 -1.1548 -0.2992  0.4117
   53MOL   H22722171   6.992   5.330   3.328 -0.8930  0.7697 -1.3389
   53MOL   H22822172   7.034   5.140   3.465  1.0496  1.5421 -0.3941
   53MOL   H22922173   6.991   4.918   3.396 -2.8972 -0.1913  0.1956
   53MOL   H23022174   6.877   4.882   3.172  1.6366 -1.0882  1.8821
   53MOL   H23122175   7.088   4.889   3.005 -0.2197 -1.5391  1.1031
   53MOL   H23222176   7.107   4.728   2.938  0.8985  0.5521  3.0700
   53MOL   C23322177   7.191   4.880   2.811 -0.5930 -0.5152 -0.1189
   53MOL   O23422178   7.171   5.018   2.787  0.8164  0.0234 -0.3695
   53MOL   C23522179   7.133   5.041   2.648 -0.5402  0.9086 -0.2704
   53MOL   O23622180   7.240   5.032   2.560  0.4655 -0.0136  0.2517
   53MOL   C23722181   7.340   5.123   2.554 -0.3690  0.4574  0.4640
   53MOL   C23822182   7.375   5.210   2.666 -0.3788 -0.9432  0.3585
   53MOL   C23922183   7.482   5.302   2.654 -0.6354  0.0718 -0.1474
   53MOL   C24022184   7.557   5.298   2.536 -0.2534 -0.2755  0.2437
   53MOL   C24122185   7.526   5.211   2.430 -0.0311 -0.7230 -1.0741
   53MOL   C24222186   7.417   5.124   2.439 -0.3156  0.3774  0.8327
   53MOL   C24322187   7.338   4.872   2.853  0.2277  0.5847 -0.3119
   53MOL   H24422188   7.201   4.824   2.718 -1.1725 -0.1600 -0.4003
   53MOL   H24522189   7.093   5.141   2.628  0.5413  1.4614  0.2850
   53MOL   H24622190   7.054   4.977   2.610  2.1096 -2.0697 -0.9307
   53MOL   H24722191   7.322   5.215   2.760 -0.6809  1.0154  0.0926
   53MOL   H24822192   7.513   5.378   2.725 -0.7338  1.0969 -1.1823
   53MOL   H24922193   7.647   5.355   2.521  0.1811 -0.9419  0.3023
   53MOL   H25022194   7.590   5.203   2.344 -0.3842 -2.7942 -1.1694
   53MOL   H25122195   7.398   5.061   2.353 -0.1968  1.6126 -0.1190
   53MOL   H25222196   7.389   4.968   2.841 -0.7204  1.0381 -0.6800
   53MOL   H25322197   7.340   4.865   2.962  2.0304  3.5265 -0.0821
   53MOL   C25422198   7.434   4.756   2.796  0.1348 -0.0283  0.2026
   53MOL   O25522199   7.367   4.635   2.834  0.3755  0.1217 -0.0706
   53MOL   C25622200   7.404   4.571   2.951  0.9026 -0.4063 -0.6756
   53MOL   O25722201   7.353   4.639   3.058  0.0679 -0.4864  0.0383
   53MOL   C25822202   7.349   4.583   3.182 -0.3038  0.1651  0.3132
   53MOL   C25922203   7.417   4.468   3.219 -0.8872 -0.0489  0.1015
   53MOL   C26022204   7.419   4.420   3.349 -0.1052  0.1096 -0.2458
   53MOL   C26122205   7.335   4.481   3.442 -0.4606 -0.2635  0.1440
   53MOL   C26222206   7.250   4.583   3.399 -0.3248 -0.2819 -0.2014
   53MOL   C26322207   7.261   4.639   3.272  0.0559  0.1550 -0.5655
   53MOL   C26422208   7.458   4.772   2.643 -0.2018  0.2463 -0.1518
   53MOL   H26522209   7.524   4.764   2.857 -0.2033  0.4440  0.6466
   53MOL   H26622210   7.511   4.553   2.963  0.9166 -0.1529 -0.4136
   53MOL   H26722211   7.357   4.473   2.944 -0.4168 -0.0356  2.1405
   53MOL   H26822212   7.489   4.429   3.148  1.1946  2.7675  0.5817
   53MOL   H26922213   7.490   4.345   3.380 -0.3545  1.3741  3.5534
   53MOL   H27022214   7.335   4.442   3.543  1.9487  0.1365  0.3273
   53MOL   H27122215   7.177   4.622   3.468  0.4995  1.8408 -0.5033
   53MOL   H27222216   7.214   4.733   3.247 -1.1993  0.4394  2.5391
   53MOL   H27322217   7.358   4.748   2.606 -0.7230 -1.5998  2.2897
   53MOL   H27422218   7.461   4.877   2.615 -1.7782  0.0368 -1.1933
   53MOL   C27522219   7.582   4.694   2.582  0.2368 -0.3946  0.0583
   53MOL   O27622220   7.554   4.649   2.453  0.1514  0.4846  0.4596
   53MOL   C27722221   7.532   4.513   2.444 -0.9722  0.2095 -0.1276
   53MOL   O27822222   7.407   4.466   2.489 -0.1756 -0.5391  0.0073
   53MOL   C27922223   7.299   4.468   2.398 -0.1228 -0.5288  0.2582
   53MOL   C28022224   7.204   4.362   2.386  0.0442 -0.0479  0.1693
   53MOL   C28122225   7.093   4.363   2.294  0.0537  0.3048 -0.8115
   53MOL   C28222226   7.062   4.479   2.222 -0.2866 -0.3904  0.3244
   53MOL   C28322227   7.165   4.579   2.223  0.5281 -0.0462 -0.2947
   53MOL   C28422228   7.274   4.580   2.312 -0.2710  0.2666 -1.0341
   53MOL   C28522229   7.715   4.776   2.584 -0.4388  0.5780 -0.3408
   53MOL   H28622230   7.582   4.609   2.651 -0.6099 -0.1559  0.3476
   53MOL   H28722231   7.612   4.455   2.488  0.4687  0.5823 -2.1755
   53MOL   H28822232   7.541   4.489   2.338  2.7305  2.3294 -0.3626
   53MOL   H28922233   7.211   4.276   2.451 -1.6310 -0.7235 -0.5292
   53MOL   H29022234   7.030   4.275   2.299  0.4199  0.1696  2.0888
   53MOL   H29122235   6.988   4.479   2.143 -1.0928  0.2806  1.0649
   53MOL   H29222236   7.168   4.660   2.152  0.2959  0.2898  0.0778
   53MOL   H29322237   7.342   4.663   2.315  0.2746 -0.2050  0.6903
   53MOL   H29422238   7.710   4.793   2.692 -2.2510  0.2126 -0.3484
   53MOL   H29522239   7.702   4.877   2.543 -2.0333 -0.0305 -1.3970
   53MOL   C29622240   7.845   4.706   2.533  0.0241 -0.6006  0.6875
   53MOL   O29722241   7.827   4.570   2.567  0.1337  1.1183  0.0392
   53MOL   C29822242   7.903   4.528   2.674 -0.7998 -0.4854 -0.1328
   53MOL   O29922243   7.869   4.599   2.790 -0.0911  0.4231 -0.6044
   53MOL   C30022244   0.004   4.642   2.864  0.8460 -0.3212 -0.3637
   53MOL   C30122245   7.953   4.655   3.003  0.9887  0.7072  0.5441
   53MOL   C30222246   0.076   4.686   3.090  0.2531 -0.2373 -0.0956
   53MOL   C30322247   0.204   4.722   3.050  0.0482  0.2982  0.2366
   53MOL   C30422248   0.236   4.708   2.915 -0.2165 -0.1307  0.4613
   53MOL   C30522249   0.138   4.670   2.819  0.1351 -0.5981 -0.1998
   53MOL   C30622250   7.848   4.734   2.378 -1.1571 -0.4440 -0.4256
   53MOL   H30722251   7.940   4.749   2.567  0.3498 -1.3823  0.7723
   53MOL   H30822252   0.031   4.516   2.642 -0.9086 -0.2509 -0.5800
   53MOL   H30922253   7.882   4.424   2.701 -3.5915  0.9705  3.6360
   53MOL   H31022254   7.861   4.636   3.056  0.8001 -0.9757 -0.3849
   53MOL   H31122255   0.048   4.693   3.194 -0.3698  0.0171 -0.2762
   53MOL   H31222256   0.267   4.770   3.123 -0.4311 -1.7486  2.0470
   53MOL   H31322257   0.334   4.734   2.878 -0.0326 -0.2364  0.8731
   53MOL   H31422258   0.157   4.658   2.713  2.2764 -1.6669  0.2827
   53MOL   H31522259   7.868   4.838   2.352  2.3276 -0.3661  2.1511
   53MOL   H31622260   7.755   4.706   2.329 -2.0156  0.5522  0.6297
   53MOL   C31722261   7.968   4.657   2.315  0.4585 -0.0817 -0.7783
   53MOL   O31822262   0.050   4.726   2.203  0.0036  0.2044  0.0448
   53MOL   C31922263   0.125   4.839   2.234 -0.0212 -0.4390  0.0984
   53MOL   O32022264   0.257   4.811   2.278 -0.2316  0.6236 -0.1070
   53MOL   C32122265   0.345   4.911   2.311 -0.6666 -0.6814  0.3040
   53MOL   C32222266   0.467   4.859   2.368  0.7294  0.2648 -0.3567
   53MOL   C32322267   0.567   4.942   2.418  1.0574 -0.4451  0.7777
   53MOL   C32422268   0.543   5.080   2.411  0.5280  0.2056  0.7983
   53MOL   C32522269   0.425   5.128   2.352  0.1988  0.1567  0.2838
   53MOL   C32622270   0.328   5.050   2.293  0.0778  0.3970 -0.9691
   53MOL   C32722271   7.928   4.523   2.255 -0.1257 -0.0873  0.3613
   53MOL   H32822272   0.081   4.644   2.377 -0.5820 -0.6657  0.6307
   53MOL   H32922273   0.087   4.910   2.307  0.7010  0.3230 -0.2496
   53MOL   H33022274   0.126   4.904   2.146  0.5187  0.0649  0.4653
   53MOL   H33122275   0.479   4.755   2.396 -2.4632  0.5735  2.4866
   53MOL   H33222276   0.661   4.904   2.457  0.3478 -2.4718  0.5908
   53MOL   H33322277   0.618   5.144   2.454  0.5158  1.3504 -0.8767
   53MOL   H33422278   0.412   5.235   2.346 -1.8289 -0.1540 -1.4581
   53MOL   H33522279   0.236   5.080   2.246 -1.1214 -0.6826  0.6144
   53MOL   H33622280   7.883   4.469   2.337  0.9696  2.3260  2.6148
   53MOL   H33722281   7.858   4.546   2.174 -1.3249 -0.6032  1.2332
   53MOL   C33822282   0.068   4.445   2.187  0.3178  0.8159 -0.5478
   53MOL   O33922283   0.173   4.426   2.282 -0.0911 -0.7064  0.0156
   53MOL   C34022284   0.301   4.405   2.229 -0.1099 -0.1559  0.4937
   53MOL   O34122285   0.378   4.335   2.323 -0.1938  0.3235 -1.1842
   53MOL   C34222286   0.397   4.395   2.449  0.2983  0.7305  0.2205
   53MOL   C34322287   0.487   4.319   2.520 -0.5419 -0.1664  0.1888
   53MOL   C34422288   0.531   4.358   2.652  0.3092  0.1712 -0.7468
   53MOL   C34522289   0.487   4.482   2.703 -0.0751 -0.0149  0.2832
   53MOL   C34622290   0.405   4.563   2.623  0.5170 -0.4740  0.3912
   53MOL   C34722291   0.353   4.522   2.497 -0.1164 -0.5554  0.3903
   53MOL   C34822292   0.022   4.302   2.145 -0.3144 -0.4647 -0.3328
   53MOL   H34922293   0.116   4.492   2.101  0.0084 -0.5681 -1.4889
   53MOL   H35022294   0.350   4.500   2.210 -0.0850  0.0248  1.4570
   53MOL   H35122295   0.292   4.347   2.137 -1.8323  0.2443  0.3841
   53MOL   H35222296   0.521   4.224   2.482 -4.0564 -1.2023 -0.6323
   53MOL   H35322297   0.603   4.296   2.703 -1.3255 -0.0430  1.3882
   53MOL   H35422298   0.524   4.497   2.804  2.4294  2.6257 -0.9590
   53MOL   H35522299   0.367   4.658   2.659  0.0097 -1.1934  1.7789
   53MOL   H35622300   0.288   4.586   2.439  0.0672  0.7636  1.6227
   53MOL   H35722301   7.961   4.248   2.232 -0.9451 -1.4270 -1.1939
   53MOL   H35822302   0.105   4.248   2.099  0.7675 -1.8036  3.0138
   53MOL   C35922303   7.879   4.294   2.042 -1.0437  0.7510  0.6445
   53MOL   O36022304   7.835   4.156   2.033 -0.1175  0.6476  0.0698
   53MOL   C36122305   7.698   4.135   2.009 -0.8330 -0.1681 -0.4109
   53MOL   O36222306   7.615   4.185   2.109  0.2861  0.2612 -0.2391
   53MOL   C36322307   7.632   4.124   2.237 -0.3074 -0.6784  0.3540
   53MOL   C36422308   7.734   4.036   2.279 -0.5071  0.0201  0.1562
   53MOL   C36522309   7.746   3.979   2.408 -0.2584 -0.3847  0.3519
   53MOL   C36622310   7.647   4.011   2.502 -0.7517 -0.1751  0.4642
   53MOL   C36722311   7.550   4.114   2.466 -0.1371  0.2920  0.1593
   53MOL   C36822312   7.546   4.167   2.334  0.1971  0.5779 -0.5542
   53MOL   C36922313   7.889   4.360   1.902  0.1412 -0.1637 -0.2265
   53MOL   H37022314   7.804   4.355   2.094 -3.0671  1.4912 -2.9855
   53MOL   H37122315   7.678   4.029   1.990  1.0380 -0.8681  1.3417
   53MOL   H37222316   7.672   4.191   1.919  0.6858 -0.5823 -1.1338
   53MOL   H37322317   7.807   4.002   2.207  0.4495  1.1579  0.5649
   53MOL   H37422318   7.831   3.917   2.429 -1.6361 -1.8024  1.8361
   53MOL   H37522319   7.654   3.968   2.601 -2.7153 -1.3526  0.1138
   53MOL   H37622320   7.477   4.146   2.538 -2.8422  0.1597 -2.4404
   53MOL   H37722321   7.473   4.245   2.320  0.0416  0.5710  0.1909
   53MOL   H37822322   7.945   4.453   1.909  1.4095 -1.0225  1.2486
   53MOL   H37922323   7.789   4.385   1.866  0.1439  2.8558  1.6508
   53MOL   C38022324   7.970   4.284   1.791  0.0692  0.1014 -0.2471
   53MOL   O38122325   0.125   4.257   1.846 -0.4864 -0.5760 -0.1816
   53MOL   C38222326   0.152   4.122   1.853 -0.1344  0.2181 -0.1152
   53MOL   O38322327   0.268   4.079   1.924  0.4072 -0.6596  0.0901
   53MOL   C38422328   0.383   4.150   1.913  0.3368 -0.5536  0.2580
   53MOL   C38522329   0.466   4.148   2.029  0.4691  0.2566 -0.3882
   53MOL   C38622330   0.596   4.211   2.033 -0.1487 -0.1684 -0.1104
   53MOL   C38722331   0.635   4.292   1.925  0.4795  0.7163 -0.4706
   53MOL   C38822332   0.554   4.307   1.817 -0.4571 -0.0464  0.5892
   53MOL   C38922333   0.425   4.234   1.812  0.3190  0.6765 -0.1377
   53MOL   C39022334   0.013   4.360   1.666  0.7176 -0.3923  0.5039
   53MOL   H39122335   7.913   4.192   1.774  0.5337 -0.0696 -0.9242
   53MOL   H39222336   0.072   4.060   1.893  2.1272 -2.4943  0.3215
   53MOL   H39322337   0.164   4.084   1.751  1.5267  1.2226 -0.2998
   53MOL   H39422338   0.444   4.081   2.111  0.0443  0.6152 -0.2097
   53MOL   H39522339   0.656   4.214   2.123  0.4865  0.3111 -0.5460
   53MOL   H39622340   0.721   4.357   1.921  2.0405 -1.0200  2.8866
   53MOL   H39722341   0.576   4.363   1.727 -0.4769  2.2520  1.9725
   53MOL   H39822342   0.355   4.243   1.731  1.2150 -3.7164 -1.4967
   53MOL   H39922343   0.077   4.320   1.588  0.1791 -0.0120 -0.1481
   53MOL   H40022344   0.062   4.457   1.675 -0.6038  0.6374 -2.5172
   53MOL   C40122345   7.848   4.376   1.590 -1.0438 -0.1959  0.0812
   53MOL   O40222346   7.797   4.507   1.607 -0.0281  0.7427  0.5351
   53MOL   C40322347   7.663   4.511   1.584 -0.4635  0.1516  0.8107
   53MOL   O40422348   7.588   4.450   1.684 -0.5185  0.8390  0.1198
   53MOL   C40522349   7.585   4.506   1.806  0.2864  0.5707  0.3330
   53MOL   C40622350   7.489   4.454   1.893 -0.3031  0.4801 -0.3939
   53MOL   C40722351   7.481   4.500   2.024 -0.4135  0.0345 -0.4701
   53MOL   C40822352   7.562   4.607   2.074  0.0671 -0.7266  0.1950
   53MOL   C40922353   7.654   4.658   1.981 -0.1791 -0.4152 -0.2379
   53MOL   C41022354   7.668   4.609   1.850  0.0260 -0.3170  0.4285
   53MOL   C41122355   7.872   4.347   1.441  0.2053  0.2541 -0.4630
   53MOL   H41222356   7.792   4.295   1.636 -0.7519  0.5851  1.8237
   53MOL   H41322357   7.626   4.459   1.496 -1.1372  1.7005  0.1555
   53MOL   H41422358   7.637   4.616   1.569 -1.4804 -0.3156 -0.7541
   53MOL   H41522359   7.431   4.366   1.870  0.4076 -0.1029  0.0401
   53MOL   H41622360   7.401   4.465   2.087 -0.0762 -0.1189 -0.1223
   53MOL   H41722361   7.551   4.653   2.171 -1.8117 -0.7371  0.0023
   53MOL   H41822362   7.713   4.741   2.016 -0.8720 -0.2593  0.5700
   53MOL   H41922363   7.748   4.645   1.788  1.9304 -2.0563  1.8056
   53MOL   H42022364   7.780   4.353   1.384 -0.0520 -1.4401 -0.2685
   53MOL   H42122365   7.909   4.245   1.428 -0.8980 -0.7320  3.4336
   53MOL   H42222366   7.941   4.413   1.389  0.2494 -0.4682 -1.3353
   54MOL     C122367   2.715   0.569   2.795  0.3873 -0.0218  0.3440
   54MOL     O222368   2.712   0.623   2.927  0.2247  0.0522  0.6241
   54MOL     C322369   2.795   0.731   2.957  0.0473  0.0814 -0.1734
   54MOL     O422370   2.764   0.846   2.882  0.2871  0.4310  0.0300
   54MOL     C522371   2.658   0.920   2.931 -0.4458  0.4417  0.5434
   54MOL     C622372   2.635   1.050   2.882 -0.1831 -0.5560  0.2823
   54MOL     C722373   2.528   1.126   2.927 -0.2430  0.2871 -0.6227
   54MOL     C822374   2.445   1.082   3.032 -0.1265 -0.0048 -0.0461
   54MOL     C922375   2.468   0.957   3.086  0.2620  0.3907 -0.3747
   54MOL    C1022376   2.575   0.879   3.040 -0.5313  0.2550  0.1679
   54MOL    C1122377   2.579   0.510   2.764  0.4104 -0.7008 -0.8771
   54MOL    H1222378   2.749   0.648   2.728 -0.2237  1.0762  1.3270
   54MOL    H1322379   2.789   0.744   3.065  0.0195 -2.3582  0.1385
   54MOL    H1422380   2.901   0.715   2.938  0.4597 -1.3830  3.0875
   54MOL    H1522381   2.685   1.093   2.796 -0.0847 -1.5732 -0.1786
   54MOL    H1622382   2.504   1.222   2.883  0.9569 -0.1740 -2.2997
   54MOL    H1722383   2.356   1.131   3.071  0.4121 -0.2328  1.5223
   54MOL    H1822384   2.406   0.922   3.167 -2.5981  2.0774 -1.7605
   54MOL    H1922385   2.588   0.783   3.087  0.8654  1.0624  1.4927
   54MOL    H2022386   2.495   0.561   2.810  2.2494  1.1359  0.5487
   54MOL    H2122387   2.569   0.413   2.812  1.5704  0.9207  2.7794
   54MOL    H2222388   2.796   0.497   2.782  0.2124  0.1378 -1.8168
   54MOL    C2322389   2.571   0.488   2.608  0.4671 -0.1039  0.4212
   54MOL    O2422390   2.571   0.616   2.545 -0.0596 -0.1168 -0.3186
   54MOL    C2522391   2.605   0.601   2.413 -0.1031 -0.1444  0.5349
   54MOL    O2622392   2.740   0.572   2.396 -0.4695  0.1783  0.1998
   54MOL    C2722393   2.830   0.661   2.445 -0.1818 -0.4894  0.4381
   54MOL    C2822394   2.797   0.792   2.489  0.6508  0.0447  0.7696
   54MOL    C2922395   2.898   0.872   2.545 -0.4584 -0.5245  0.2427
   54MOL    C3022396   3.033   0.837   2.543  0.2241 -0.2350  0.2848
   54MOL    C3122397   3.068   0.707   2.488 -0.6352  0.0857  0.0036
   54MOL    C3222398   2.967   0.620   2.445  0.1692  0.2436 -0.3162
   54MOL    C3322399   2.437   0.418   2.582  0.4499 -0.1488  0.1145
   54MOL    H3422400   2.656   0.428   2.576 -0.0494 -0.0845 -1.0275
   54MOL    H3522401   2.591   0.689   2.351  1.2816  0.1743  0.6555
   54MOL    H3622402   2.548   0.523   2.363 -0.5412 -0.4292  1.4541
   54MOL    H3722403   2.695   0.827   2.491  0.1847 -1.2200 -0.0050
   54MOL    H3822404   2.883   0.969   2.590  2.5956 -0.1782  0.6199
   54MOL    H3922405   3.111   0.907   2.569  0.3634 -1.1093  2.3462
   54MOL    H4022406   3.169   0.669   2.483 -0.0061  1.5745  1.2576
   54MOL    H4122407   2.988   0.520   2.410 -0.9728 -0.7811  1.7879
   54MOL    H4222408   2.373   0.484   2.523 -0.1642  0.1835  1.1413
   54MOL    H4322409   2.380   0.398   2.673 -0.5988  1.4908 -0.1581
   54MOL    C4422410   2.457   0.273   2.514  0.3569 -0.1278  0.1067
   54MOL    O4522411   2.549   0.301   2.408  0.6082 -0.8312 -0.0557
   54MOL    C4622412   2.642   0.203   2.388  0.0502  0.5690 -0.2540
   54MOL    O4722413   2.744   0.208   2.484  0.5466  0.1135  0.4322
   54MOL    C4822414   2.860   0.145   2.442 -0.2749  0.1471  0.5035
   54MOL    C4922415   2.864   0.042   2.342  0.0251  0.4498  0.3691
   54MOL    C5022416   2.979   7.970   2.278  0.4055 -0.5540 -0.0318
   54MOL    C5122417   3.096   0.046   2.327 -0.3397 -0.2769 -0.3927
   54MOL    C5222418   3.096   0.138   2.432 -0.0794  0.5205 -0.2720
   54MOL    C5322419   2.982   0.184   2.494 -0.3156  0.2770 -0.2234
   54MOL    C5422420   2.322   0.236   2.455  0.9537 -0.1975 -0.0106
   54MOL    H5522421   2.488   0.199   2.588  0.0780 -0.6284 -0.2839
   54MOL    H5622422   2.679   0.232   2.290 -0.0190  0.0629 -0.4340
   54MOL    H5722423   2.593   0.106   2.382 -2.8875  1.8829  1.4191
   54MOL    H5822424   2.773   7.969   2.310  1.9016 -1.6523 -1.9376
   54MOL    H5922425   2.984   7.894   2.202  0.6388 -0.2464 -0.3245
   54MOL    H6022426   3.193   0.018   2.288  0.3277 -0.1186  1.1188
   54MOL    H6122427   3.190   0.176   2.471 -0.4402  1.1246  0.0128
   54MOL    H6222428   2.974   0.258   2.572  0.9854  0.1168  0.0689
   54MOL    H6322429   2.241   0.268   2.519  2.0283  1.2267  0.6548
   54MOL    H6422430   2.320   0.297   2.365 -2.0093 -0.1619  0.0328
   54MOL    C6522431   2.313   0.080   2.431 -0.2783 -0.3102 -0.2844
   54MOL    O6622432   2.327   0.024   2.555 -0.3935 -0.2238 -0.2696
   54MOL    C6722433   2.390   7.879   2.548  0.1657  0.4157 -0.0318
   54MOL    O6822434   2.523   7.890   2.546  0.1870  0.0037 -0.1211
   54MOL    C6922435   2.587   7.916   2.674  0.5732 -0.1589 -0.2826
   54MOL    C7022436   2.727   7.906   2.673  0.4628 -0.3919 -0.2538
   54MOL    C7122437   2.802   7.941   2.786  0.1661 -0.0524 -0.1828
   54MOL    C7222438   2.729   0.027   2.894  0.1302 -0.4060  0.2795
   54MOL    C7322439   2.588   0.031   2.893  0.3586  0.2611 -0.1476
   54MOL    C7422440   2.516   7.965   2.785 -0.1264  0.3751  0.1081
   54MOL    C7522441   2.170   0.044   2.380  0.6292  0.1978 -0.1751
   54MOL    H7622442   2.392   0.052   2.361  1.3775 -1.6624  2.0767
   54MOL    H7722443   2.359   7.823   2.460  0.6759 -0.3332  0.2510
   54MOL    H7822444   2.357   7.815   2.630  1.9284 -1.9411 -1.0930
   54MOL    H7922445   2.773   7.865   2.585 -0.9219  0.5133 -1.4197
   54MOL    H8022446   2.909   7.939   2.779  0.2427 -0.6199  1.0400
   54MOL    H8122447   2.775   0.065   2.985  0.8455  0.3948 -0.4050
   54MOL    H8222448   2.522   0.083   2.960  0.2851  1.4980 -1.1545
   54MOL    H8322449   2.409   7.974   2.778 -0.1582 -0.1281 -0.0837
   54MOL    H8422450   2.137   7.920   2.409 -2.1357  1.7430  2.4159
   54MOL    H8522451   2.100   0.110   2.432  0.9492  1.2463 -1.0427
   54MOL    C8622452   2.154   0.062   2.228  0.4101 -1.2025 -0.3358
   54MOL    O8722453   2.220   7.924   2.149 -0.3657 -0.0429 -0.2056
   54MOL    C8822454   2.273   7.967   2.020 -0.0678  0.3364  0.7361
   54MOL    O8922455   2.416   0.015   2.028 -0.2447 -0.1175 -0.0427
   54MOL    C9022456   2.499   7.884   2.041  0.9682  0.6644 -0.0564
   54MOL    C9122457   2.468   7.748   2.031 -0.2637  0.4892  0.3926
   54MOL    C9222458   2.571   7.650   2.029  0.0855 -0.0112 -0.5048
   54MOL    C9322459   2.704   7.685   2.044  0.6683  0.2357  0.1879
   54MOL    C9422460   2.730   7.818   2.047  0.7506 -0.7271 -0.9201
   54MOL    C9522461   2.633   7.917   2.051  0.2133 -0.0472 -0.5198
   54MOL    C9622462   2.012   0.075   2.174 -0.8074  0.4184  0.2112
   54MOL    H9722463   2.211   0.148   2.192 -0.8012 -0.2721 -0.0453
   54MOL    H9822464   2.218   0.084   2.001  1.7877  1.7282  1.9656
   54MOL    H9922465   2.252   7.893   1.943  2.4596  0.5691 -0.2088
   54MOL   H10022466   2.365   7.719   2.018 -0.3582  0.7656  0.5387
   54MOL   H10122467   2.543   7.546   2.017  0.9798 -0.2705 -0.3697
   54MOL   H10222468   2.781   7.614   2.019  2.1506  0.9549  2.5972
   54MOL   H10322469   2.835   7.843   2.043  1.3141 -2.4482  2.0207
   54MOL   H10422470   2.665   0.044   2.052 -1.5204  0.5229  1.5572
   54MOL   H10522471   2.013   0.050   2.068  1.5475  0.2934  0.2444
   54MOL   H10622472   1.950   7.973   2.220 -1.4637  1.0626  0.4370
   54MOL   C10722473   1.961   0.223   2.187 -0.2127  0.4293  0.1242
   54MOL   O10822474   1.877   0.263   2.081  0.1209  0.2549 -0.4107
   54MOL   C10922475   1.923   0.375   2.022 -0.0945  0.2735 -0.5408
   54MOL   O11022476   2.041   0.350   1.950  0.2815 -0.3977  1.0614
   54MOL   C11122477   2.045   0.263   1.845 -0.4275 -0.4342  0.0907
   54MOL   C11222478   1.933   0.184   1.807  0.1992 -0.2814  0.8379
   54MOL   C11322479   1.954   0.082   1.713 -0.0271  0.3938 -0.3409
   54MOL   C11422480   2.076   0.061   1.649 -0.2339  0.3224 -0.2989
   54MOL   C11522481   2.186   0.141   1.686  0.6703  0.4120  0.1400
   54MOL   C11622482   2.173   0.241   1.784 -0.2984  1.1917  0.6800
   54MOL   C11722483   1.860   0.226   2.306 -0.3689  0.9926 -0.2533
   54MOL   H11822484   2.042   0.293   2.206  0.2482  0.2803 -1.2329
   54MOL   H11922485   1.941   0.465   2.081 -0.6909  1.0081 -1.4460
   54MOL   H12022486   1.848   0.402   1.947  0.2643  0.8080 -0.7123
   54MOL   H12122487   1.832   0.198   1.842 -0.1764 -4.3234  1.6570
   54MOL   H12222488   1.878   0.008   1.696  1.6118 -1.2459 -0.6546
   54MOL   H12322489   2.090   7.952   1.583  0.7155 -0.5289  0.9609
   54MOL   H12422490   2.284   0.122   1.643  0.9112 -2.7681  1.9389
   54MOL   H12522491   2.258   0.299   1.818  1.0106  0.4361 -1.1684
   54MOL   H12622492   1.906   0.166   2.384 -0.5174  0.7052 -0.3813
   54MOL   H12722493   1.761   0.187   2.282  0.6069 -0.4724 -2.0819
   54MOL   C12822494   1.857   0.362   2.380 -1.0816  0.0598 -0.7704
   54MOL   O12922495   1.970   0.364   2.464 -0.3679 -0.8833 -0.1982
   54MOL   C13022496   2.047   0.482   2.447 -0.3304 -0.5251  0.3941
   54MOL   O13122497   2.115   0.474   2.330 -0.3580  0.2878  0.5310
   54MOL   C13222498   2.197   0.580   2.291  0.1659  0.4864  0.2495
   54MOL   C13322499   2.254   0.579   2.161 -0.0175  0.2223 -0.2961
   54MOL   C13422500   2.336   0.686   2.124 -0.0296 -0.5046 -0.4915
   54MOL   C13522501   2.378   0.782   2.219 -0.5719  0.0838 -0.6711
   54MOL   C13622502   2.330   0.772   2.353  0.0403  0.1979  0.1967
   54MOL   C13722503   2.228   0.684   2.384 -0.6058 -0.0247  0.0282
   54MOL   C13822504   1.741   0.368   2.481 -0.6820 -0.2256  0.1633
   54MOL   H13922505   1.847   0.435   2.299  0.5365  0.8833 -0.2389
   54MOL   H14022506   2.123   0.468   2.525 -0.6673 -1.5979  0.5363
   54MOL   H14122507   1.989   0.572   2.466  0.8866  0.2594  0.4365
   54MOL   H14222508   2.225   0.504   2.089  1.2256 -0.7015  0.1406
   54MOL   H14322509   2.372   0.697   2.023 -0.2804 -2.9884 -0.8765
   54MOL   H14422510   2.458   0.848   2.190 -0.3878  0.6169  0.9644
   54MOL   H14522511   2.362   0.840   2.431  0.2003 -1.5183  1.6447
   54MOL   H14622512   2.197   0.677   2.487  2.1077  2.0106  1.0484
   54MOL   H14722513   1.657   0.321   2.430  0.3067 -0.4159 -1.3159
   54MOL   H14822514   1.758   0.319   2.577 -2.9072  0.5112  0.9585
   54MOL   C14922515   1.704   0.508   2.510  0.1571 -0.3925  0.2487
   54MOL   O15022516   1.636   0.566   2.396  0.3909 -0.5788  0.9453
   54MOL   C15122517   1.638   0.706   2.397 -0.0643  0.9430  0.3710
   54MOL   O15222518   1.771   0.744   2.374  0.0583 -0.0858  0.0032
   54MOL   C15322519   1.815   0.756   2.245 -0.2754  0.4070  1.3073
   54MOL   C15422520   1.748   0.696   2.134 -0.0629  0.0652  0.6621
   54MOL   C15522521   1.816   0.691   2.014  0.2076 -0.6898  0.2186
   54MOL   C15622522   1.932   0.765   1.986  0.6609 -1.5079  0.0003
   54MOL   C15722523   1.998   0.828   2.102  0.2517  0.4352 -0.2969
   54MOL   C15822524   1.939   0.818   2.227  0.1774  0.0420  0.4557
   54MOL   C15922525   1.598   0.505   2.630 -0.3711 -0.0656 -0.1390
   54MOL   H16022526   1.793   0.569   2.520 -0.5053  1.1195 -2.4000
   54MOL   H16122527   1.562   0.732   2.324  1.7279 -0.1172 -1.9329
   54MOL   H16222528   1.615   0.747   2.496 -2.3634 -0.0232  0.2566
   54MOL   H16322529   1.662   0.632   2.145  0.4806 -0.9705 -1.0110
   54MOL   H16422530   1.774   0.630   1.936 -1.9750  1.2623 -0.2139
   54MOL   H16522531   1.990   0.777   1.896 -1.7628 -1.3559 -1.5753
   54MOL   H16622532   2.093   0.876   2.085  0.6879 -0.5253 -0.6101
   54MOL   H16722533   1.997   0.840   2.315  1.0443 -0.6793  0.0702
   54MOL   H16822534   1.549   0.408   2.631  1.2078 -0.8800  2.6859
   54MOL   H16922535   1.525   0.584   2.614 -0.1224  0.0355 -0.8097
   54MOL   C17022536   1.653   0.517   2.772 -0.4704 -0.2878  0.1861
   54MOL   O17122537   1.694   0.655   2.802 -0.5646  0.1907  0.4495
   54MOL   C17222538   1.832   0.681   2.819 -0.5978  0.5569  0.8130
   54MOL   O17322539   1.893   0.725   2.702 -0.5225 -0.0897  0.0732
   54MOL   C17422540   2.015   0.782   2.710 -1.1468 -0.5543 -0.2958
   54MOL   C17522541   2.038   0.895   2.624 -0.4996 -0.0947 -0.0138
   54MOL   C17622542   2.169   0.953   2.630  0.1110  0.1928 -0.4520
   54MOL   C17722543   2.270   0.897   2.706 -0.5307 -0.5716 -0.2120
   54MOL   C17822544   2.252   0.783   2.782  0.6886 -0.2948 -0.0403
   54MOL   C17922545   2.119   0.731   2.785 -0.0217  0.2558 -0.1491
   54MOL   C18022546   1.542   0.477   2.873 -0.0465  0.1251  0.6167
   54MOL   H18122547   1.734   0.444   2.770 -1.1840 -1.2397  3.4779
   54MOL   H18222548   1.869   0.584   2.855 -1.7555  0.0975  0.7929
   54MOL   H18322549   1.841   0.756   2.898 -1.2421  0.7061  0.7414
   54MOL   H18422550   1.956   0.934   2.566 -0.0065 -0.5524 -1.0179
   54MOL   H18522551   2.199   1.045   2.582 -0.5846 -0.0025 -1.2733
   54MOL   H18622552   2.369   0.940   2.704 -1.3010  1.4282  1.9730
   54MOL   H18722553   2.331   0.740   2.843  2.5571 -0.8567 -2.7654
   54MOL   H18822554   2.094   0.646   2.846  0.1388 -0.5084 -1.1287
   54MOL   H18922555   1.464   0.552   2.884 -2.4411 -2.3346  0.8549
   54MOL   H19022556   1.488   0.390   2.837  0.7215 -1.5058  3.2176
   54MOL   C19122557   1.590   0.437   3.016  0.0007  0.0206  0.6295
   54MOL   O19222558   1.484   0.356   3.066 -0.0554 -0.0849 -0.4967
   54MOL   C19322559   1.506   0.299   3.186  0.3152 -0.4020  0.5093
   54MOL   O19422560   1.608   0.195   3.180  0.4309  0.6462 -0.1777
   54MOL   C19522561   1.629   0.119   3.296  0.9032 -0.0225  0.4748
   54MOL   C19622562   1.585   0.160   3.427 -0.2548 -1.1554  0.1010
   54MOL   C19722563   1.626   0.097   3.544 -0.3610  0.1789 -1.7398
   54MOL   C19822564   1.710   7.962   3.532  0.1163  0.4934  0.2215
   54MOL   C19922565   1.743   7.915   3.406 -0.2268 -0.4144  0.5193
   54MOL   C20022566   1.702   0.001   3.286 -0.1504  0.1232 -0.8691
   54MOL   C20122567   1.617   0.561   3.105  0.0021 -0.3397 -0.0407
   54MOL   H20222568   1.677   0.373   3.001 -0.0265  0.7217 -2.9769
   54MOL   H20322569   1.409   0.251   3.201  0.8154 -0.8147  2.6417
   54MOL   H20422570   1.516   0.369   3.269 -0.3473 -0.2571  0.4718
   54MOL   H20522571   1.531   0.252   3.441 -0.1799 -0.9580 -0.8601
   54MOL   H20622572   1.605   0.145   3.638 -1.7490 -0.4661 -1.7110
   54MOL   H20722573   1.753   7.920   3.621 -0.0401  0.4140  0.2600
   54MOL   H20822574   1.807   7.832   3.380  0.9376  0.6707 -0.1475
   54MOL   H20922575   1.731   7.939   3.189  1.8945  1.7796 -0.9315
   54MOL   H21022576   1.634   0.650   3.045  2.1194  0.3298  1.4603
   54MOL   H21122577   1.529   0.593   3.160 -0.4756  1.4801 -1.8048
   54MOL   C21222578   1.744   0.556   3.194  0.2714 -0.0931 -0.0443
   54MOL   O21322579   1.861   0.558   3.110  0.1247 -0.1171  0.1652
   54MOL   C21422580   1.976   0.485   3.150  0.0453 -0.1770 -0.1580
   54MOL   O21522581   2.070   0.480   3.045  0.3650  0.0072 -0.2070
   54MOL   C21622582   2.073   0.369   2.965 -0.2515  0.7973 -0.0740
   54MOL   C21722583   1.963   0.287   2.935 -0.8595  0.4863  0.9176
   54MOL   C21822584   1.979   0.178   2.846  0.4312 -0.3142  0.6915
   54MOL   C21922585   2.107   0.141   2.799  0.6361 -0.1839 -0.0475
   54MOL   C22022586   2.211   0.227   2.828  0.6367  0.8881 -0.9728
   54MOL   C22122587   2.195   0.337   2.908 -0.4283 -0.6111  0.1168
   54MOL   C22222588   1.749   0.666   3.299 -0.2949 -0.4804 -0.5868
   54MOL   H22322589   1.736   0.462   3.249 -2.6551 -0.1493 -0.4844
   54MOL   H22422590   1.953   0.388   3.193 -0.0517 -0.3434 -0.5783
   54MOL   H22522591   2.022   0.541   3.231 -1.2387 -0.9392  1.1249
   54MOL   H22622592   1.862   0.306   2.970 -1.1134  1.2699 -0.2064
   54MOL   H22722593   1.893   0.116   2.825  0.3197 -0.3693  1.2745
   54MOL   H22822594   2.124   0.058   2.732  0.6835  0.6578 -1.0864
   54MOL   H22922595   2.301   0.209   2.771  2.5904  3.6421  1.1697
   54MOL   H23022596   2.283   0.397   2.921 -1.4700  0.7802  0.8916
   54MOL   H23122597   1.849   0.709   3.309  1.1876 -3.3854 -2.3447
   54MOL   H23222598   1.689   0.746   3.256  1.6887  1.0968 -0.4789
   54MOL   C23322599   1.662   0.647   3.427  0.3012 -0.0877  0.4400
   54MOL   O23422600   1.730   0.541   3.503 -0.0999 -0.2384 -0.5681
   54MOL   C23522601   1.666   0.474   3.605  0.5217 -0.0397  0.5551
   54MOL   O23622602   1.762   0.424   3.690  0.1021 -0.0010  0.0248
   54MOL   C23722603   1.868   0.349   3.641  0.0228  0.7680  0.2344
   54MOL   C23822604   1.947   0.288   3.741  1.0007 -0.2770 -0.0229
   54MOL   C23922605   2.057   0.207   3.717  0.3188  0.0842 -0.0636
   54MOL   C24022606   2.080   0.175   3.584  0.5147  0.4099  0.2825
   54MOL   C24122607   2.001   0.222   3.475 -0.5818 -0.2154 -0.3385
   54MOL   C24222608   1.897   0.311   3.509 -0.3061 -0.0601 -0.5219
   54MOL   C24322609   1.644   0.770   3.521 -0.4122  0.0221 -0.2110
   54MOL   H24422610   1.566   0.605   3.397  0.2544 -0.3414  0.9384
   54MOL   H24522611   1.612   0.398   3.548  1.3514 -0.0158 -0.2684
   54MOL   H24622612   1.583   0.534   3.644 -0.7044 -0.3703 -1.4901
   54MOL   H24722613   1.908   0.308   3.840  0.9126  0.6244 -0.2409
   54MOL   H24822614   2.125   0.171   3.793 -0.8312 -1.5760  0.2110
   54MOL   H24922615   2.174   0.124   3.564  1.1060  1.1914  1.0488
   54MOL   H25022616   2.034   0.211   3.373  1.0753  2.4265 -0.1230
   54MOL   H25122617   1.840   0.356   3.429 -1.6578 -0.0649  0.4291
   54MOL   H25222618   1.658   0.757   3.628 -1.0605 -1.7547 -0.3262
   54MOL   H25322619   1.735   0.825   3.498 -0.4381  0.6224  1.0674
   54MOL   C25422620   1.520   0.857   3.520 -0.0898  0.3567  0.3854
   54MOL   O25522621   1.426   0.790   3.597 -0.2801  0.5605  0.0238
   54MOL   C25622622   1.294   0.812   3.550 -0.3774  0.1519 -0.1288
   54MOL   O25722623   1.269   0.755   3.422 -0.3362 -0.2062  0.0283
   54MOL   C25822624   1.247   0.622   3.412 -0.1983 -0.5941  0.1040
   54MOL   C25922625   1.284   0.530   3.514 -0.1994  0.3947 -0.0225
   54MOL   C26022626   1.272   0.393   3.507 -0.2863 -0.3208  0.1381
   54MOL   C26122627   1.216   0.343   3.390  0.6698  0.1232 -0.4681
   54MOL   C26222628   1.170   0.426   3.288 -0.2339  0.8000  0.3800
   54MOL   C26322629   1.187   0.566   3.300 -1.2157  0.6314 -0.2548
   54MOL   C26422630   1.545   0.985   3.606  0.9048 -0.4422  0.0615
   54MOL   H26522631   1.490   0.879   3.418  0.0924  0.1452  0.2862
   54MOL   H26622632   1.277   0.920   3.547  0.6522  0.2815 -2.4604
   54MOL   H26722633   1.240   0.763   3.630  0.5698 -1.6715 -0.5839
   54MOL   H26822634   1.321   0.565   3.609  0.5713 -0.2280 -0.0887
   54MOL   H26922635   1.303   0.331   3.590  1.7653  1.1161  0.4654
   54MOL   H27022636   1.212   0.237   3.372  1.2899  0.4956 -2.9661
   54MOL   H27122637   1.130   0.376   3.201  1.3293 -2.4389  1.4485
   54MOL   H27222638   1.167   0.631   3.215 -0.0815  0.5166 -0.6239
   54MOL   H27322639   1.455   1.035   3.641 -0.0827 -0.6567 -2.1178
   54MOL   H27422640   1.608   0.970   3.694 -0.2398 -1.5123  0.7095
   54MOL   C27522641   1.602   1.100   3.520  0.3189  0.4872  0.2702
   54MOL   O27622642   1.500   1.144   3.430 -0.2481  0.1095 -0.4888
   54MOL   C27722643   1.538   1.184   3.297  0.1433 -0.7573  0.2648
   54MOL   O27822644   1.574   1.071   3.220 -0.8577 -0.4977 -0.2438
   54MOL   C27922645   1.476   0.992   3.163  1.0993 -0.8340 -0.5877
   54MOL   C28022646   1.340   1.012   3.196 -0.1833 -1.3268 -0.0139
   54MOL   C28122647   1.249   0.917   3.148 -0.0427 -0.7345  0.9679
   54MOL   C28222648   1.282   0.823   3.040  1.0743 -0.4035  0.6723
   54MOL   C28322649   1.417   0.815   2.999  0.5116 -0.1429 -0.7750
   54MOL   C28422650   1.513   0.897   3.064  0.2262  0.2530 -0.0504
   54MOL   C28522651   1.658   1.219   3.604  1.0472 -1.0436  0.0474
   54MOL   H28622652   1.684   1.058   3.463  1.0998 -0.3632  1.9814
   54MOL   H28722653   1.623   1.251   3.311  0.4313 -0.6238 -1.9174
   54MOL   H28822654   1.471   1.244   3.235 -0.0778 -0.9791  0.2888
   54MOL   H28922655   1.304   1.084   3.268  2.1411 -1.2159  1.0699
   54MOL   H29022656   1.146   0.934   3.174  0.0468  3.7136 -1.0966
   54MOL   H29122657   1.207   0.751   3.009  1.0718 -1.2271  2.5195
   54MOL   H29222658   1.435   0.763   2.906 -2.4957 -2.6132 -0.0444
   54MOL   H29322659   1.613   0.878   3.026 -0.0692  0.6647 -1.0535
   54MOL   H29422660   1.579   1.254   3.670  1.7823 -0.8578  0.8315
   54MOL   H29522661   1.684   1.304   3.539  1.2261 -0.5318  0.7817
   54MOL   C29622662   1.797   1.189   3.664  0.6048 -0.0183 -0.0538
   54MOL   O29722663   1.873   1.132   3.555  0.3462  0.4289 -0.4894
   54MOL   C29822664   1.944   1.016   3.591 -0.6062  0.1264  0.0910
   54MOL   O29922665   2.053   0.991   3.512 -0.1982  0.5747 -0.1612
   54MOL   C30022666   2.035   0.953   3.381 -0.1467 -0.3379 -0.4449
   54MOL   C30122667   1.938   1.010   3.295 -0.6332 -0.0636 -0.6534
   54MOL   C30222668   1.917   0.964   3.162  0.4256  0.4760  0.4222
   54MOL   C30322669   2.013   0.879   3.114  0.0689  1.0884 -0.1018
   54MOL   C30422670   2.122   0.837   3.191  0.0939 -0.1952  0.1648
   54MOL   C30522671   2.126   0.863   3.325 -1.0680 -0.4914  0.2463
   54MOL   C30622672   1.866   1.312   3.724  0.2654 -0.2346 -0.4312
   54MOL   H30722673   1.771   1.110   3.735 -0.7825  1.3034  0.9681
   54MOL   H30822674   1.886   0.925   3.579  1.1119 -0.8609 -0.9344
   54MOL   H30922675   1.982   1.025   3.693  1.0619 -0.0520 -0.5133
   54MOL   H31022676   1.866   1.084   3.323 -1.1046 -1.4370  1.8988
   54MOL   H31122677   1.842   1.012   3.101  0.7921  3.0979  1.9257
   54MOL   H31222678   2.005   0.856   3.009 -1.8671 -0.3601  0.3522
   54MOL   H31322679   2.199   0.776   3.146 -1.0627  0.6307 -3.1098
   54MOL   H31422680   2.213   0.837   3.384 -0.2787 -1.2413 -1.2241
   54MOL   H31522681   1.806   1.385   3.778  2.3260 -0.9530  3.0043
   54MOL   H31622682   1.887   1.358   3.628 -3.4527 -1.3954 -1.8822
   54MOL   C31722683   1.978   1.276   3.822  0.5453  0.2354 -0.2292
   54MOL   O31822684   1.917   1.216   3.939 -0.2854  0.3473  0.4021
   54MOL   C31922685   2.008   1.139   4.017  0.3317 -1.0363 -0.1078
   54MOL   O32022686   2.044   1.011   3.953 -0.0207 -0.2031  0.0889
   54MOL   C32122687   1.943   0.921   3.928 -0.5038 -0.2598 -0.5989
   54MOL   C32222688   1.976   0.809   3.849  0.1574 -0.0129 -0.8874
   54MOL   C32322689   1.884   0.705   3.829  0.5861  0.1987  0.2320
   54MOL   C32422690   1.750   0.719   3.881 -0.3573 -0.4646  0.4025
   54MOL   C32522691   1.715   0.839   3.945  0.2155  0.6487  0.1017
   54MOL   C32622692   1.810   0.938   3.969 -0.1148 -0.0234  0.1026
   54MOL   C32722693   2.069   1.394   3.857  0.0069  0.1687 -0.4498
   54MOL   H32822694   2.047   1.203   3.781  1.4432  0.1744  1.3756
   54MOL   H32922695   1.982   1.104   4.117  1.8660 -0.4806  0.5092
   54MOL   H33022696   2.096   1.197   4.045  0.0817  1.2862 -3.7655
   54MOL   H33122697   2.078   0.793   3.818  0.8021  1.4140  0.4595
   54MOL   H33222698   1.912   0.624   3.764 -1.6238  0.9803 -1.7899
   54MOL   H33322699   1.679   0.638   3.871  0.3652 -1.3189  2.0598
   54MOL   H33422700   1.618   0.844   3.991 -0.0575 -1.7640 -0.1407
   54MOL   H33522701   1.780   1.026   4.024 -2.0776 -0.2995 -0.5078
   54MOL   H33622702   2.012   1.452   3.929  0.8238  0.1680  0.2027
   54MOL   H33722703   2.151   1.350   3.913 -0.2022  0.6451  0.2350
   54MOL   C33822704   2.109   1.486   3.745 -0.8523 -0.2766 -0.7924
   54MOL   O33922705   2.157   1.597   3.811 -0.6264 -0.3606 -0.4190
   54MOL   C34022706   2.074   1.694   3.844  0.3896 -0.0736  0.5027
   54MOL   O34122707   2.064   1.782   3.738  0.3196 -0.2243  0.4055
   54MOL   C34222708   2.015   1.904   3.761  0.1185 -0.8494 -0.5147
   54MOL   C34322709   1.944   1.944   3.874  0.1186 -0.2430 -0.4992
   54MOL   C34422710   1.873   2.066   3.870 -0.1253  0.4392  0.1873
   54MOL   C34522711   1.885   2.150   3.754  0.2792  0.0384 -0.1753
   54MOL   C34622712   1.953   2.105   3.639  0.2821  0.2091 -0.7423
   54MOL   C34722713   2.032   1.989   3.648 -0.5303  0.1728 -0.2122
   54MOL   C34822714   2.222   1.426   3.654 -0.0280 -0.6049  0.1305
   54MOL   H34922715   2.025   1.520   3.684 -0.9008  0.8642 -0.0952
   54MOL   H35022716   2.120   1.740   3.932 -0.1566  2.0783 -0.3056
   54MOL   H35122717   1.973   1.672   3.879 -0.6803  0.7690 -1.9417
   54MOL   H35222718   1.928   1.887   3.964  1.9778  0.3549  0.2357
   54MOL   H35322719   1.807   2.087   3.952  0.2642  2.1855  0.0797
   54MOL   H35422720   1.829   2.242   3.757 -2.3730 -1.5515  0.7510
   54MOL   H35522721   1.951   2.167   3.551 -1.8774 -0.5932 -1.3098
   54MOL   H35622722   2.094   1.956   3.566  1.6687  1.1585  1.0095
   54MOL   H35722723   2.193   1.329   3.614  0.3881 -1.0923  0.9943
   54MOL   H35822724   2.312   1.410   3.713 -0.0189 -1.8216 -0.2030
   54MOL   C35922725   2.255   1.508   3.525  0.4042 -0.6595  0.4118
   54MOL   O36022726   2.329   1.428   3.434 -0.4127  0.0056  0.1403
   54MOL   C36122727   2.253   1.362   3.333 -0.0362  0.2253 -0.4752
   54MOL   O36222728   2.261   1.438   3.215 -0.7925 -0.3245 -0.0005
   54MOL   C36322729   2.229   1.372   3.092 -0.0413 -0.7578  0.3673
   54MOL   C36422730   2.149   1.251   3.080 -0.8023  0.3046  0.6455
   54MOL   C36522731   2.124   1.194   2.951 -0.3051  0.2180 -0.6565
   54MOL   C36622732   2.164   1.270   2.842  1.0041 -0.2858  0.8309
   54MOL   C36722733   2.247   1.381   2.849 -0.6170  0.3899 -0.1652
   54MOL   C36822734   2.274   1.434   2.975 -0.6136  0.0814  0.0538
   54MOL   C36922735   2.340   1.638   3.552 -0.4360 -0.3354  0.2276
   54MOL   H37022736   2.158   1.533   3.481  0.2845  0.7009  1.3937
   54MOL   H37122737   2.151   1.341   3.366 -0.0203  0.6294 -0.1709
   54MOL   H37222738   2.299   1.264   3.313  0.1565  0.2831 -0.3163
   54MOL   H37322739   2.112   1.203   3.169  0.3438 -1.3253  0.2635
   54MOL   H37422740   2.057   1.110   2.937 -1.5144  0.3476  3.7279
   54MOL   H37522741   2.134   1.231   2.746 -0.5444  1.6990  0.4884
   54MOL   H37622742   2.286   1.438   2.767 -0.5679 -2.7343 -2.4171
   54MOL   H37722743   2.352   1.505   2.992  0.2848 -0.9251  0.2078
   54MOL   H37822744   2.433   1.608   3.600  0.4853 -0.7795 -1.7984
   54MOL   H37922745   2.280   1.696   3.622 -1.7335 -2.3638  0.8366
   54MOL   C38022746   2.393   1.726   3.443 -0.2982  0.2893  0.4322
   54MOL   O38122747   2.474   1.826   3.502 -0.0052  0.2465 -0.3305
   54MOL   C38222748   2.608   1.811   3.518  0.2691  0.0973  0.4686
   54MOL   O38322749   2.663   1.815   3.388  0.5624 -0.2285  0.1707
   54MOL   C38422750   2.699   1.934   3.336  0.3756 -0.0400 -0.3436
   54MOL   C38522751   2.775   1.927   3.216  0.6264 -0.0504 -0.2085
   54MOL   C38622752   2.816   2.051   3.155 -0.2373 -0.1805 -0.5314
   54MOL   C38722753   2.774   2.177   3.205  0.1636  0.0976  0.3955
   54MOL   C38822754   2.686   2.173   3.314 -0.2886  0.0133  0.0631
   54MOL   C38922755   2.647   2.056   3.379 -0.2734  0.4136  0.0676
   54MOL   C39022756   2.270   1.785   3.363 -0.3235 -0.4852 -0.3348
   54MOL   H39122757   2.458   1.666   3.379 -0.1134 -1.5841  2.2962
   54MOL   H39222758   2.649   1.885   3.587  0.3597 -1.0820  1.6842
   54MOL   H39322759   2.634   1.710   3.548 -1.5785 -0.5267  0.0071
   54MOL   H39422760   2.804   1.831   3.176 -1.2311 -1.6121  2.0601
   54MOL   H39522761   2.876   2.048   3.064  0.7594 -0.1759  0.1147
   54MOL   H39622762   2.807   2.269   3.158 -0.5894  1.3328  2.2172
   54MOL   H39722763   2.646   2.268   3.346 -0.2612  0.6152 -1.6530
   54MOL   H39822764   2.580   2.062   3.464 -2.5436 -2.0930 -1.4468
   54MOL   H39922765   2.204   1.819   3.443 -0.8421  1.3883 -1.5404
   54MOL   H40022766   2.223   1.712   3.297 -2.1351 -0.3727  0.7984
   54MOL   C40122767   2.311   1.900   3.274 -0.6811  0.1398 -0.0271
   54MOL   O40222768   2.309   1.859   3.136 -0.8687  0.1968  0.2988
   54MOL   C40322769   2.428   1.801   3.093  0.1275 -0.0051 -0.1634
   54MOL   O40422770   2.411   1.740   2.968  0.0789 -0.5109 -0.5730
   54MOL   C40522771   2.528   1.698   2.911 -0.2460  0.3218  0.1147
   54MOL   C40622772   2.653   1.687   2.977 -0.7282  0.6358  0.2510
   54MOL   C40722773   2.764   1.637   2.903 -0.1678 -0.7819  0.8602
   54MOL   C40822774   2.753   1.601   2.765  0.0786 -0.2185  0.0817
   54MOL   C40922775   2.626   1.622   2.700 -1.0721 -0.5101 -0.5927
   54MOL   C41022776   2.522   1.673   2.773 -0.3568  0.9152  0.9288
   54MOL   C41122777   2.220   2.026   3.283 -0.4509  0.0054  0.3227
   54MOL   H41222778   2.411   1.937   3.297 -1.2072  0.1195  2.4115
   54MOL   H41322779   2.458   1.714   3.151  0.9374 -0.4710 -1.2618
   54MOL   H41422780   2.510   1.871   3.078  0.3612 -0.3347 -0.4629
   54MOL   H41522781   2.662   1.700   3.083 -1.2326 -0.4683  0.4396
   54MOL   H41622782   2.862   1.616   2.944  0.4792  1.8972  0.7394
   54MOL   H41722783   2.837   1.555   2.715 -1.8086 -0.3899 -3.0741
   54MOL   H41822784   2.607   1.598   2.596  0.0504  1.1303 -1.2127
   54MOL   H41922785   2.428   1.677   2.719  0.0561  0.6783  0.1764
   54MOL   H42022786   2.275   2.107   3.235 -0.1081  0.9795  2.3160
   54MOL   H42122787   2.204   2.061   3.385  0.0875  1.0820  0.0557
   54MOL   H42222788   2.115   2.025   3.252 -1.4674 -1.6510  3.6247
   55MOL     C122789   4.408   6.104   2.780  0.2192 -0.5435  0.4849
   55MOL     O222790   4.313   6.219   2.772 -0.4615 -0.0967 -0.2004
   55MOL     C322791   4.177   6.184   2.789 -0.1285 -0.2266 -0.0474
   55MOL     O422792   4.106   6.175   2.665 -0.3287  0.1830  0.3754
   55MOL     C522793   3.971   6.173   2.673  0.3077  0.0620  0.1452
   55MOL     C622794   3.895   6.144   2.556  0.1605 -0.8108 -0.4572
   55MOL     C722795   3.757   6.141   2.557 -0.3628 -0.3842  0.0217
   55MOL     C822796   3.681   6.168   2.676 -0.5040 -0.0470  0.0165
   55MOL     C922797   3.755   6.204   2.790  0.0784 -0.1732 -0.3253
   55MOL    C1022798   3.893   6.190   2.795 -0.1798  0.1071 -0.0029
   55MOL    C1122799   4.545   6.156   2.812  0.4832 -0.2106 -0.1866
   55MOL    H1222800   4.376   6.040   2.862 -1.8183 -1.2207 -0.8042
   55MOL    H1322801   4.166   6.090   2.843 -2.2427  1.7284  3.0526
   55MOL    H1422802   4.142   6.264   2.854 -1.6062 -0.1046 -0.9729
   55MOL    H1522803   3.947   6.128   2.463 -0.1220 -1.1276 -0.5616
   55MOL    H1622804   3.706   6.125   2.464 -1.4837  2.4133  0.1173
   55MOL    H1722805   3.573   6.159   2.673 -0.6015  1.1424 -0.1876
   55MOL    H1822806   3.699   6.211   2.882  0.7469  0.0311  0.0740
   55MOL    H1922807   3.947   6.199   2.888  0.1549 -4.0935  0.2874
   55MOL    H2022808   4.543   6.185   2.917 -0.7611 -0.6762 -0.0706
   55MOL    H2122809   4.580   6.243   2.757 -0.4998 -0.5861 -1.4554
   55MOL    H2222810   4.390   6.057   2.683  0.0922  0.2119  0.1364
   55MOL    C2322811   4.652   6.045   2.804 -0.1681  0.4627  0.3902
   55MOL    O2422812   4.646   5.990   2.672 -0.2667 -0.0757  0.2450
   55MOL    C2522813   4.761   6.007   2.587  0.3486  0.3159 -0.1720
   55MOL    O2622814   4.871   5.937   2.634  0.3268 -0.1368  0.1400
   55MOL    C2722815   4.989   5.929   2.554 -0.0407  0.0211 -0.4762
   55MOL    C2822816   5.024   6.008   2.439 -0.1004  0.1430 -0.6636
   55MOL    C2922817   5.145   5.987   2.375 -0.3468  0.0194 -0.3070
   55MOL    C3022818   5.241   5.895   2.432 -0.5252  0.2795 -0.1695
   55MOL    C3122819   5.208   5.816   2.540  0.4465 -0.2301  0.8512
   55MOL    C3222820   5.083   5.833   2.598 -0.2377  0.5556  0.4646
   55MOL    C3322821   4.624   5.933   2.902 -0.1160 -0.0119 -0.5018
   55MOL    H3422822   4.751   6.087   2.822 -0.0117  0.5334 -0.6527
   55MOL    H3522823   4.786   6.112   2.574  0.1360  0.7945  2.8597
   55MOL    H3622824   4.735   5.964   2.490  4.4402 -1.2902 -0.6655
   55MOL    H3722825   4.948   6.077   2.406 -0.8725  0.4292  1.6201
   55MOL    H3822826   5.178   6.035   2.284 -1.4553  0.4225 -0.4998
   55MOL    H3922827   5.332   5.887   2.375 -0.3022 -0.1056  0.2380
   55MOL    H4022828   5.274   5.745   2.588  0.8746 -0.8920 -0.6996
   55MOL    H4122829   5.055   5.776   2.685  2.6915 -0.8065  0.5763
   55MOL    H4222830   4.556   5.854   2.870  1.6068 -1.9699  0.5662
   55MOL    H4322831   4.570   5.968   2.990 -1.6540 -1.5797 -0.7926
   55MOL    C4422832   4.751   5.854   2.941 -0.0632  0.2324 -0.4335
   55MOL    O4522833   4.693   5.728   2.988 -0.3042 -0.3753  0.0148
   55MOL    C4622834   4.777   5.620   2.999  0.0854 -0.7218  0.2708
   55MOL    O4722835   4.843   5.582   2.883  0.3856  0.1297 -0.3052
   55MOL    C4822836   4.943   5.486   2.905  0.2200 -0.0403  0.6253
   55MOL    C4922837   4.962   5.406   3.023  0.1741 -0.3269  0.5130
   55MOL    C5022838   5.083   5.329   3.024 -0.0147  0.3241 -0.3565
   55MOL    C5122839   5.174   5.326   2.920  0.0131  0.5104  0.3445
   55MOL    C5222840   5.140   5.393   2.804 -0.0577  0.2316 -0.1905
   55MOL    C5322841   5.030   5.478   2.793 -0.4485  0.2311  0.7015
   55MOL    C5422842   4.835   5.923   3.044 -0.0372 -0.0415  0.2553
   55MOL    H5522843   4.807   5.833   2.850  0.3435 -2.0695  0.3087
   55MOL    H5622844   4.714   5.537   3.032 -0.3097 -0.0900  1.1082
   55MOL    H5722845   4.851   5.639   3.077 -0.9183  1.8426  0.6189
   55MOL    H5822846   4.905   5.406   3.115  0.1043 -2.9467  0.5163
   55MOL    H5922847   5.111   5.268   3.109 -0.3155 -0.2652 -0.6786
   55MOL    H6022848   5.260   5.261   2.929 -1.0820 -0.9423  0.6180
   55MOL    H6122849   5.206   5.375   2.720 -0.4174 -2.5143  0.0409
   55MOL    H6222850   5.019   5.548   2.712 -0.4174 -1.3038 -0.6456
   55MOL    H6322851   4.783   6.006   3.092 -1.3242 -0.7887  0.1965
   55MOL    H6422852   4.844   5.852   3.126  1.6469 -2.2589 -1.8057
   55MOL    C6522853   4.979   5.954   3.009 -1.0550 -0.0584 -0.1853
   55MOL    O6622854   5.030   6.048   3.108 -0.2493 -0.1183 -0.8758
   55MOL    C6722855   4.990   6.175   3.091 -0.1029 -0.1851  0.1544
   55MOL    O6822856   4.869   6.209   3.159 -0.5774 -0.6506 -0.0888
   55MOL    C6922857   4.834   6.339   3.167 -0.4593 -0.2504  0.0826
   55MOL    C7022858   4.750   6.378   3.272  0.0140  0.2775 -0.0187
   55MOL    C7122859   4.708   6.505   3.295 -1.0540  0.0539 -0.9927
   55MOL    C7222860   4.758   6.609   3.210 -0.0730  0.5339  0.2813
   55MOL    C7322861   4.844   6.579   3.099  0.0469 -0.3697 -0.4827
   55MOL    C7422862   4.874   6.443   3.079 -0.6039 -0.2997 -0.9841
   55MOL    C7522863   5.073   5.832   3.001 -0.3088  0.3808 -0.1454
   55MOL    H7622864   4.974   6.004   2.912  1.8053  1.7657  0.5399
   55MOL    H7722865   4.982   6.203   2.986 -1.5700 -0.8641  0.0717
   55MOL    H7822866   5.074   6.223   3.142 -0.0772 -0.8881  0.7726
   55MOL    H7922867   4.701   6.300   3.328 -2.6871  1.4026 -0.6731
   55MOL    H8022868   4.637   6.533   3.371 -1.1705  0.2222 -1.1629
   55MOL    H8122869   4.731   6.712   3.225  0.2722  0.4605  1.4829
   55MOL    H8222870   4.867   6.657   3.028  0.5294  1.6446  1.7905
   55MOL    H8322871   4.951   6.417   3.007  0.9046 -1.1080  0.8746
   55MOL    H8422872   5.047   5.764   3.083  3.0328 -1.2150 -0.3188
   55MOL    H8522873   5.056   5.789   2.903  1.6669  0.2868 -0.4736
   55MOL    C8622874   5.220   5.867   3.018 -0.5197  0.9297  0.4969
   55MOL    O8722875   5.308   5.750   3.019  0.0261 -0.0387 -0.5379
   55MOL    C8822876   5.340   5.694   3.146 -0.0832  0.1130  0.3225
   55MOL    O8922877   5.239   5.626   3.215  0.3395  0.1628  0.4614
   55MOL    C9022878   5.266   5.521   3.301 -0.2485  0.2519  0.4097
   55MOL    C9122879   5.396   5.499   3.359 -0.7445 -0.6870  0.3693
   55MOL    C9222880   5.423   5.382   3.440 -0.4442 -0.0353  0.4623
   55MOL    C9322881   5.325   5.281   3.456  0.4013  0.3977 -0.6166
   55MOL    C9422882   5.197   5.301   3.396  0.4592  0.0813  0.1484
   55MOL    C9522883   5.167   5.424   3.329 -0.1969  0.0080 -1.0228
   55MOL    C9622884   5.278   5.964   2.915 -0.8143 -0.3413  0.4311
   55MOL    H9722885   5.224   5.905   3.120  0.7510 -2.0652  1.5998
   55MOL    H9822886   5.376   5.776   3.209 -0.3228  0.6322 -0.2064
   55MOL    H9922887   5.419   5.623   3.122  0.2108  0.0120  1.5420
   55MOL   H10022888   5.475   5.572   3.348 -1.4080 -0.0306 -0.1147
   55MOL   H10122889   5.519   5.376   3.489 -0.8287 -2.0785  0.9720
   55MOL   H10222890   5.348   5.192   3.512  1.1562  1.4601  0.7953
   55MOL   H10322891   5.124   5.222   3.407  1.0447 -0.2975  1.3875
   55MOL   H10422892   5.068   5.439   3.289 -0.4270  0.6184 -0.2354
   55MOL   H10522893   5.254   5.908   2.824 -0.8097 -0.8888  0.7612
   55MOL   H10622894   5.213   6.051   2.906 -0.0939  0.3230  1.5198
   55MOL   C10722895   5.425   5.995   2.933  0.0866  0.1324 -0.0587
   55MOL   O10822896   5.468   6.063   2.815 -0.0733  0.1010 -0.1584
   55MOL   C10922897   5.601   6.063   2.782  0.2404  0.2938 -0.3945
   55MOL   O11022898   5.670   6.166   2.847  0.2593  0.3093  0.1734
   55MOL   C11122899   5.658   6.291   2.792 -0.6982  0.1903  0.3106
   55MOL   C11222900   5.565   6.324   2.690  0.1859 -0.2979 -0.0331
   55MOL   C11322901   5.561   6.459   2.636 -0.0504 -0.1736  0.2188
   55MOL   C11422902   5.638   6.565   2.684 -0.0280  0.4146 -0.6761
   55MOL   C11522903   5.738   6.524   2.775  0.3556 -0.3864  0.4867
   55MOL   C11622904   5.744   6.394   2.827  0.2774 -0.3957 -0.7805
   55MOL   C11722905   5.446   6.094   3.051 -0.0443 -0.3825  0.8398
   55MOL   H11822906   5.479   5.902   2.949  3.2267  2.0639  0.9926
   55MOL   H11922907   5.620   6.064   2.674 -0.8270 -0.2577 -0.5918
   55MOL   H12022908   5.647   5.973   2.822 -0.1666 -1.1622 -3.0560
   55MOL   H12122909   5.493   6.261   2.639  0.9831 -0.7365 -0.6322
   55MOL   H12222910   5.483   6.474   2.563 -0.8957 -2.6902  0.5675
   55MOL   H12322911   5.632   6.664   2.643  0.6886  0.2714 -1.1467
   55MOL   H12422912   5.807   6.600   2.809  0.9868 -0.1489 -1.3096
   55MOL   H12522913   5.820   6.373   2.901 -1.1270  1.5236  1.2557
   55MOL   H12622914   5.348   6.101   3.097  0.1173  2.6274  0.7729
   55MOL   H12722915   5.484   6.189   3.014  0.8262 -2.2406 -3.4077
   55MOL   C12822916   5.546   6.052   3.160 -0.0595  0.0220  0.2391
   55MOL   O12922917   5.552   6.156   3.259 -0.1208  0.0631  0.1888
   55MOL   C13022918   5.440   6.181   3.336 -0.2744  0.9992  0.3937
   55MOL   O13122919   5.371   6.067   3.365 -0.0882  0.3693  0.6509
   55MOL   C13222920   5.411   5.980   3.462  0.5654  0.3540  0.5536
   55MOL   C13322921   5.344   5.857   3.475  0.1026 -0.3229 -0.6972
   55MOL   C13422922   5.376   5.756   3.570 -0.6434  0.3150  0.8621
   55MOL   C13522923   5.486   5.774   3.660  0.3470  0.4640 -0.3337
   55MOL   C13622924   5.558   5.899   3.651  0.4255 -0.3347 -0.2880
   55MOL   C13722925   5.521   5.997   3.552 -0.2507  0.4462  0.1246
   55MOL   C13822926   5.693   6.044   3.114 -0.2862  0.0163 -0.5402
   55MOL   H13922927   5.518   5.958   3.208  1.7256 -1.5871 -1.7340
   55MOL   H14022928   5.366   6.234   3.277 -0.4013 -0.1040 -0.4534
   55MOL   H14122929   5.459   6.243   3.424  1.3947  0.6605  0.3043
   55MOL   H14222930   5.255   5.839   3.417 -1.1441  0.5703  0.9108
   55MOL   H14322931   5.323   5.662   3.567 -0.1266  0.0117  1.4112
   55MOL   H14422932   5.522   5.690   3.718  0.3279  0.1100 -0.8273
   55MOL   H14522933   5.646   5.909   3.712  0.5610  0.5170 -0.6257
   55MOL   H14622934   5.579   6.089   3.552  0.8933 -0.2590  0.9957
   55MOL   H14722935   5.695   5.969   3.034 -0.2155  0.1588 -0.6729
   55MOL   H14822936   5.739   6.137   3.081 -0.7251 -0.2997 -2.1006
   55MOL   C14922937   5.797   6.000   3.217 -0.0112  0.4127  0.1784
   55MOL   O15022938   5.749   5.880   3.278  0.1399 -0.1035 -0.0429
   55MOL   C15122939   5.795   5.859   3.406 -0.5091  0.3048  0.3076
   55MOL   O15222940   5.912   5.780   3.405 -0.1829  0.0130 -0.3797
   55MOL   C15322941   5.894   5.643   3.387 -0.2937  0.4218 -0.5883
   55MOL   C15422942   5.996   5.560   3.440  0.2256 -0.3137 -0.0892
   55MOL   C15522943   5.984   5.419   3.431 -0.2908 -0.5015 -0.5445
   55MOL   C15622944   5.871   5.359   3.369 -0.6601 -0.5425  0.6426
   55MOL   C15722945   5.763   5.445   3.323  0.4372 -0.3682  0.7274
   55MOL   C15822946   5.773   5.582   3.332  0.3666  0.0279  0.2447
   55MOL   C15922947   5.939   5.978   3.166  0.3121  0.1523 -0.0223
   55MOL   H16022948   5.802   6.078   3.292 -0.4296 -0.2186  0.8633
   55MOL   H16122949   5.829   5.950   3.454  2.7485  1.1063 -3.2881
   55MOL   H16222950   5.714   5.816   3.465 -2.7885  1.6597 -1.7579
   55MOL   H16322951   6.080   5.604   3.492  0.5811 -2.3681  1.1532
   55MOL   H16422952   6.050   5.349   3.479 -0.1229 -2.0438 -2.9226
   55MOL   H16522953   5.862   5.253   3.353  2.0245 -0.6985 -0.0131
   55MOL   H16622954   5.679   5.401   3.271  0.8975  0.2476 -0.5567
   55MOL   H16722955   5.689   5.635   3.290 -0.9503 -1.2743  1.1733
   55MOL   H16822956   5.932   5.901   3.089  0.6341  0.4626 -0.3614
   55MOL   H16922957   6.005   5.920   3.231  1.8718  1.1960 -0.6510
   55MOL   C17022958   6.015   6.103   3.109  0.2840 -0.3568  0.4785
   55MOL   O17122959   6.058   6.186   3.214  0.5753 -0.2284 -0.4321
   55MOL   C17222960   6.090   6.318   3.175 -0.1863  0.4414  0.1392
   55MOL   O17322961   5.976   6.400   3.146  0.0803 -0.2404  0.0021
   55MOL   C17422962   5.876   6.418   3.245  0.1381  0.8899 -1.1482
   55MOL   C17522963   5.892   6.368   3.380  0.2123 -0.9415  0.5022
   55MOL   C17622964   5.783   6.370   3.462  0.2001  0.1326 -0.1984
   55MOL   C17722965   5.662   6.429   3.429  0.3847  0.0029 -0.5589
   55MOL   C17822966   5.657   6.485   3.299  0.5004 -0.0049 -0.5444
   55MOL   C17922967   5.756   6.478   3.208 -0.3550 -0.3371  0.3069
   55MOL   C18022968   6.134   6.064   3.013  0.3100  0.1875 -0.7824
   55MOL   H18122969   5.948   6.156   3.041 -0.8925 -2.0837  0.2464
   55MOL   H18222970   6.153   6.327   3.086 -1.9380 -0.7087 -1.2505
   55MOL   H18322971   6.142   6.362   3.260  0.1314 -2.2378  1.3767
   55MOL   H18422972   5.981   6.325   3.424 -0.0443  0.7381  2.7403
   55MOL   H18522973   5.794   6.339   3.565  0.8774  0.3069 -0.2144
   55MOL   H18622974   5.588   6.447   3.506  0.9010 -0.8989  0.1583
   55MOL   H18722975   5.574   6.550   3.274 -1.5433 -1.9831  0.8535
   55MOL   H18822976   5.747   6.518   3.108 -1.9109  1.4230  1.1318
   55MOL   H18922977   6.196   6.153   2.996  0.9375 -0.3921 -1.5732
   55MOL   H19022978   6.202   6.004   3.073 -1.0469 -0.3834  0.2053
   55MOL   C19122979   6.107   6.007   2.875 -0.3240  0.3047  0.4577
   55MOL   O19222980   6.234   5.949   2.840 -0.0212 -0.4087 -0.0547
   55MOL   C19322981   6.235   5.829   2.774  0.7752 -0.5024  0.0749
   55MOL   O19422982   6.148   5.734   2.824 -0.4177 -0.6178  0.3766
   55MOL   C19522983   6.178   5.684   2.949  0.8048  0.5447 -0.3822
   55MOL   C19622984   6.301   5.698   3.011  0.8139 -0.1825  0.3517
   55MOL   C19722985   6.321   5.647   3.139 -0.3531 -0.2889  0.5783
   55MOL   C19822986   6.220   5.572   3.197  0.4217 -0.0514  0.1561
   55MOL   C19922987   6.096   5.557   3.127 -0.3925 -0.1764 -0.3634
   55MOL   C20022988   6.074   5.608   3.002  1.1126  0.0018 -0.2321
   55MOL   C20122989   6.042   6.101   2.768  0.0673 -0.6150 -1.3157
   55MOL   H20222990   6.045   5.919   2.896  2.8597 -1.4994  2.8735
   55MOL   H20322991   6.334   5.792   2.750  0.9508 -0.2919  0.4608
   55MOL   H20422992   6.199   5.855   2.674 -0.1456  0.4370  0.6339
   55MOL   H20522993   6.374   5.759   2.960 -2.0340  2.1194 -1.1983
   55MOL   H20622994   6.416   5.662   3.188 -1.8689 -0.1693  3.6338
   55MOL   H20722995   6.239   5.542   3.299  0.7673 -0.7199 -0.1020
   55MOL   H20822996   6.015   5.499   3.167 -1.1973 -0.4967 -2.4162
   55MOL   H20922997   5.979   5.593   2.953  2.9177 -1.1521 -3.5945
   55MOL   H21022998   5.956   6.148   2.816 -0.2393 -1.0290 -1.4537
   55MOL   H21122999   6.119   6.175   2.746 -0.7245  0.2596 -1.1767
   55MOL   C21223000   5.987   6.040   2.634  0.4551 -0.6786  0.0673
   55MOL   O21323001   5.872   5.961   2.651 -0.2254 -0.6470 -0.5653
   55MOL   C21423002   5.873   5.847   2.568 -0.5052 -0.4716 -0.4845
   55MOL   O21523003   5.746   5.797   2.564 -0.2234 -0.1040  0.1998
   55MOL   C21623004   5.703   5.723   2.670 -0.1397 -0.5225 -0.1135
   55MOL   C21723005   5.771   5.692   2.792  0.6142  0.3130 -0.0686
   55MOL   C21823006   5.708   5.615   2.893 -0.1007 -0.1393  0.4732
   55MOL   C21923007   5.577   5.569   2.881  0.4236 -0.3212 -0.0655
   55MOL   C22023008   5.508   5.595   2.765 -0.5291  0.0087  0.0696
   55MOL   C22123009   5.574   5.669   2.656  0.1276  0.1307 -0.5859
   55MOL   C22223010   5.956   6.145   2.528  0.7826 -0.1046  0.7962
   55MOL   H22323011   6.064   5.981   2.584  0.4356  0.5363 -1.4649
   55MOL   H22423012   5.947   5.772   2.595  2.4515  2.4618 -0.0091
   55MOL   H22523013   5.900   5.873   2.465 -0.2374  0.4568 -0.1902
   55MOL   H22623014   5.868   5.736   2.809  0.2145  0.8404  0.8612
   55MOL   H22723015   5.762   5.596   2.985 -0.6834  0.0983  0.8657
   55MOL   H22823016   5.527   5.524   2.966  0.7602  2.2155  1.5467
   55MOL   H22923017   5.403   5.573   2.757 -0.3675 -0.6030 -0.4150
   55MOL   H23023018   5.517   5.690   2.567 -1.0358  1.3343  0.4189
   55MOL   H23123019   5.882   6.106   2.458  0.9628 -0.4514  0.7999
   55MOL   H23223020   5.916   6.233   2.580 -0.4937 -1.2535  1.7914
   55MOL   C23323021   6.072   6.180   2.435 -0.1593  0.7527  1.0266
   55MOL   O23423022   6.074   6.082   2.327 -0.0560  0.7111  0.5004
   55MOL   C23523023   6.205   6.027   2.303 -0.0793 -0.0020  0.6590
   55MOL   O23623024   6.244   5.954   2.416 -0.2613 -0.3449  0.0871
   55MOL   C23723025   6.380   5.950   2.442  0.2046 -0.1278 -0.3723
   55MOL   C23823026   6.449   5.822   2.442 -0.0999  0.5196 -0.4436
   55MOL   C23923027   6.587   5.824   2.486  0.3350  0.0652 -0.1234
   55MOL   C24023028   6.655   5.945   2.517 -0.0929 -0.3389 -0.2928
   55MOL   C24123029   6.592   6.069   2.511  0.3178  0.4390 -0.2393
   55MOL   C24223030   6.450   6.067   2.484 -0.4054 -0.4183 -0.3320
   55MOL   C24323031   6.060   6.330   2.382 -0.2854  0.7119 -0.5368
   55MOL   H24423032   6.159   6.179   2.501  0.4004  0.1411  0.3043
   55MOL   H24523033   6.267   6.110   2.268 -0.4969  0.0525  0.0454
   55MOL   H24623034   6.195   5.957   2.221  0.7223  0.6248  0.0136
   55MOL   H24723035   6.403   5.737   2.393  2.7286 -0.9262 -0.7170
   55MOL   H24823036   6.643   5.732   2.476 -0.4774 -0.3830 -0.6725
   55MOL   H24923037   6.752   5.933   2.562 -0.5952 -1.4741  0.5037
   55MOL   H25023038   6.652   6.158   2.524  1.2543 -0.2525  0.2470
   55MOL   H25123039   6.411   6.167   2.482  1.1972  0.2527  0.6958
   55MOL   H25223040   5.974   6.343   2.316  1.3341  0.0793 -2.8321
   55MOL   H25323041   6.048   6.389   2.473 -1.4663 -1.2487  0.6230
   55MOL   C25423042   6.182   6.387   2.309 -0.5063 -0.4606 -0.3616
   55MOL   O25523043   6.304   6.360   2.378  0.6420  0.2412 -0.3978
   55MOL   C25623044   6.339   6.456   2.478  0.0681 -1.0852  0.3617
   55MOL   O25723045   6.249   6.443   2.587  0.0821  0.3329 -0.4083
   55MOL   C25823046   6.242   6.538   2.677  0.3301 -0.2921  0.1572
   55MOL   C25923047   6.127   6.532   2.764  0.2138  0.0334  0.5849
   55MOL   C26023048   6.110   6.619   2.871 -0.3973 -0.3879  0.0256
   55MOL   C26123049   6.203   6.718   2.891  0.6538 -0.4014  0.2599
   55MOL   C26223050   6.321   6.725   2.813  0.0976  0.4317 -0.5363
   55MOL   C26323051   6.341   6.637   2.705  0.1942 -0.1533  0.1810
   55MOL   C26423052   6.198   6.353   2.166 -0.3480 -0.1262  0.1746
   55MOL   H26523053   6.178   6.495   2.297  0.9821 -0.5340 -1.6004
   55MOL   H26623054   6.339   6.557   2.438  4.6680 -1.1454 -0.1188
   55MOL   H26723055   6.444   6.441   2.502  0.9979  1.6976 -1.7331
   55MOL   H26823056   6.060   6.448   2.758 -0.0041  0.2403  0.1367
   55MOL   H26923057   6.030   6.612   2.944 -2.1265 -0.4892 -1.8467
   55MOL   H27023058   6.181   6.778   2.977 -1.0910  0.0196 -0.4483
   55MOL   H27123059   6.400   6.794   2.836 -0.2811  1.2352 -1.6266
   55MOL   H27223060   6.428   6.635   2.642  1.5128  2.0905  1.8396
   55MOL   H27323061   6.295   6.379   2.126  0.0825  0.4999  1.6058
   55MOL   H27423062   6.190   6.244   2.154  2.4034 -0.4696  1.1646
   55MOL   C27523063   6.097   6.423   2.075 -0.1200 -0.8804 -0.4932
   55MOL   O27623064   6.116   6.566   2.087  0.3673  0.0899  0.2791
   55MOL   C27723065   5.994   6.639   2.081  0.4403  0.5354 -0.0353
   55MOL   O27823066   5.933   6.634   2.205 -0.2828  0.4044 -0.2126
   55MOL   C27923067   5.989   6.711   2.304 -0.3188 -0.3252  0.6609
   55MOL   C28023068   6.126   6.762   2.310 -0.5710 -0.0074 -0.4425
   55MOL   C28123069   6.178   6.826   2.428 -0.5110  0.0933  0.0221
   55MOL   C28223070   6.092   6.842   2.538 -0.8968  0.3783 -0.0279
   55MOL   C28323071   5.961   6.793   2.536 -0.0482 -0.3026  0.1053
   55MOL   C28423072   5.910   6.732   2.421 -0.5465  0.2008 -0.3321
   55MOL   C28523073   6.120   6.384   1.929  0.0895 -0.0733 -0.6293
   55MOL   H28623074   5.993   6.406   2.103 -1.0868  3.8161 -0.8891
   55MOL   H28723075   5.940   6.631   1.987 -0.6175 -0.2910  0.6401
   55MOL   H28823076   6.015   6.745   2.063  0.2634  0.7531  1.0033
   55MOL   H28923077   6.194   6.738   2.230  0.3783 -1.0713  0.6644
   55MOL   H29023078   6.281   6.856   2.437  0.1666 -1.9601 -0.5772
   55MOL   H29123079   6.142   6.879   2.626  0.2481 -0.9316 -0.1104
   55MOL   H29223080   5.904   6.802   2.627  1.3707  1.2169  0.8720
   55MOL   H29323081   5.809   6.692   2.422  0.2426 -1.8325  0.2702
   55MOL   H29423082   6.224   6.380   1.897  0.1850 -2.6430 -0.1323
   55MOL   H29523083   6.076   6.460   1.865 -0.4946  0.8581  0.8497
   55MOL   C29623084   6.064   6.239   1.892  0.2328  0.3508 -0.0827
   55MOL   O29723085   5.923   6.239   1.925 -0.3217 -0.2563 -0.2284
   55MOL   C29823086   5.880   6.133   2.006  0.0766 -0.3313 -1.3299
   55MOL   O29923087   5.904   6.009   1.954 -0.0568 -0.2320 -0.0249
   55MOL   C30023088   5.847   5.908   2.020  0.2653  0.5911 -0.6168
   55MOL   C30123089   5.856   5.786   1.954  0.0306  0.0333  0.3809
   55MOL   C30223090   5.805   5.673   2.016  0.3788  0.0729 -0.8589
   55MOL   C30323091   5.729   5.679   2.136  0.1760 -0.3517  0.8174
   55MOL   C30423092   5.715   5.804   2.199 -0.0619  0.2421  0.1283
   55MOL   C30523093   5.774   5.915   2.140 -0.8455  0.1676  0.1664
   55MOL   C30623094   6.072   6.218   1.739 -0.8699 -0.0706 -0.6534
   55MOL   H30723095   6.118   6.161   1.945 -0.2934 -0.6003 -0.9104
   55MOL   H30823096   5.773   6.151   2.012 -0.4066 -3.0567 -1.1540
   55MOL   H30923097   5.932   6.152   2.100 -0.9440  1.5273 -1.0990
   55MOL   H31023098   5.914   5.772   1.864  0.0764 -0.3530  0.4699
   55MOL   H31123099   5.840   5.579   1.975  1.5138  1.2644 -2.7173
   55MOL   H31223100   5.685   5.595   2.187  1.5006 -2.0489 -0.7763
   55MOL   H31323101   5.655   5.822   2.287  0.0948 -2.4671  0.8354
   55MOL   H31423102   5.753   6.006   2.195 -0.9719 -0.2904  0.8797
   55MOL   H31523103   6.083   6.315   1.692 -0.6415 -0.4089 -1.2954
   55MOL   H31623104   5.987   6.161   1.701 -0.5351 -1.3883  0.4959
   55MOL   C31723105   6.198   6.151   1.685  0.1941  0.8499  0.1318
   55MOL   O31823106   6.309   6.238   1.690  0.0157 -0.0687 -0.7440
   55MOL   C31923107   6.430   6.179   1.730 -0.8877  0.5558 -0.1051
   55MOL   O32023108   6.453   6.211   1.865 -0.0341  0.2578 -0.4882
   55MOL   C32123109   6.569   6.165   1.929 -0.6989 -0.1360 -0.4548
   55MOL   C32223110   6.679   6.109   1.862 -0.7281  0.0009  0.3087
   55MOL   C32323111   6.796   6.074   1.937 -0.8315 -0.2755  0.5769
   55MOL   C32423112   6.808   6.091   2.073  0.0100  0.0618 -0.7909
   55MOL   C32523113   6.697   6.141   2.142  0.5557  0.3055 -0.0078
   55MOL   C32623114   6.576   6.179   2.071  0.0286  0.0219  0.2602
   55MOL   C32723115   6.175   6.120   1.528  0.0752  0.1392  0.4579
   55MOL   H32823116   6.209   6.054   1.734  0.8346 -0.6555 -2.8695
   55MOL   H32923117   6.504   6.217   1.660 -0.6308  0.7915  0.2953
   55MOL   H33023118   6.442   6.073   1.707 -1.3222 -0.0259  2.2325
   55MOL   H33123119   6.671   6.104   1.755  0.1268  0.8240  0.2053
   55MOL   H33223120   6.882   6.031   1.887 -0.1909  0.0740  1.3806
   55MOL   H33323121   6.905   6.076   2.120 -0.0087 -0.7107 -0.9854
   55MOL   H33423122   6.702   6.138   2.250 -0.2961  1.2321  0.0577
   55MOL   H33523123   6.488   6.214   2.124 -0.5784 -2.1777  0.7496
   55MOL   H33623124   6.080   6.079   1.495  0.2838  0.2067 -0.2498
   55MOL   H33723125   6.188   6.212   1.470  1.8263  0.4841  1.3784
   55MOL   C33823126   6.277   6.023   1.466 -0.5975 -0.0024  0.1504
   55MOL   O33923127   6.228   5.899   1.512  0.0928  0.2772 -0.5380
   55MOL   C34023128   6.328   5.799   1.526  0.3976 -0.7291 -0.4965
   55MOL   O34123129   6.425   5.831   1.626 -0.0789 -0.2882 -0.6393
   55MOL   C34223130   6.408   5.807   1.758 -0.2558  0.7708 -0.3272
   55MOL   C34323131   6.284   5.773   1.824 -0.3287  0.0502  0.3681
   55MOL   C34423132   6.287   5.758   1.963 -0.2403 -0.1522 -0.1584
   55MOL   C34523133   6.397   5.783   2.045 -0.0342 -0.0075 -0.0545
   55MOL   C34623134   6.513   5.819   1.979  0.1754 -0.1774 -0.4040
   55MOL   C34723135   6.520   5.829   1.839  0.3660 -0.7577 -0.1828
   55MOL   C34823136   6.277   6.016   1.308  0.1037  0.5151  0.3852
   55MOL   H34923137   6.376   6.047   1.505 -1.2385 -0.5771  2.2059
   55MOL   H35023138   6.378   5.776   1.432 -2.5945 -0.1512 -2.3095
   55MOL   H35123139   6.275   5.705   1.541 -0.3761 -0.0965  0.8923
   55MOL   H35223140   6.193   5.758   1.767  0.3210  0.7276 -0.8571
   55MOL   H35323141   6.191   5.739   2.009  0.4671 -1.1072  0.9602
   55MOL   H35423142   6.396   5.779   2.153 -1.9065  0.5818 -0.0249
   55MOL   H35523143   6.600   5.848   2.036 -0.7263  1.2550  0.2598
   55MOL   H35623144   6.614   5.853   1.792 -0.3312  1.1338 -0.6384
   55MOL   H35723145   6.179   6.047   1.272  0.6339 -0.5784 -2.1188
   55MOL   H35823146   6.292   5.913   1.276  0.4253  0.6909 -0.0301
   55MOL   C35923147   6.389   6.106   1.248  0.3092  0.0116  0.9080
   55MOL   O36023148   6.409   6.227   1.318  0.5645 -0.0705 -0.0461
   55MOL   C36123149   6.538   6.266   1.339 -0.1655  0.3093 -0.2461
   55MOL   O36223150   6.601   6.177   1.425  0.2507 -0.3033 -0.1173
   55MOL   C36323151   6.724   6.209   1.476  0.3401  0.2554  0.7079
   55MOL   C36423152   6.784   6.336   1.483 -0.2225 -0.4628 -0.4346
   55MOL   C36523153   6.911   6.353   1.543 -0.0187 -0.3436  1.1455
   55MOL   C36623154   6.972   6.247   1.600 -0.8312 -0.2375 -0.5930
   55MOL   C36723155   6.916   6.122   1.597 -0.3660  0.4026 -0.9434
   55MOL   C36823156   6.792   6.100   1.536 -0.3690  0.8041  0.1157
   55MOL   C36923157   6.352   6.150   1.100 -0.4920  0.0024 -0.0894
   55MOL   H37023158   6.480   6.047   1.246  1.1602  1.3359 -0.5429
   55MOL   H37123159   6.537   6.362   1.391  0.2901  1.7752 -2.8624
   55MOL   H37223160   6.598   6.268   1.247 -1.1296  1.3184 -0.8593
   55MOL   H37323161   6.750   6.425   1.431  0.0139  0.0333  0.2442
   55MOL   H37423162   6.966   6.443   1.522 -1.8225  0.8372  1.3872
   55MOL   H37523163   7.072   6.256   1.639 -1.3753 -0.7202  0.9854
   55MOL   H37623164   6.965   6.037   1.642 -0.9209  1.6236  2.0416
   55MOL   H37723165   6.740   6.006   1.543 -1.1787  1.2665  0.5218
   55MOL   H37823166   6.429   6.216   1.060 -0.6799  1.7041  2.2895
   55MOL   H37923167   6.255   6.200   1.089 -0.9224 -0.8116 -0.0257
   55MOL   C38023168   6.345   6.033   0.999  0.4371  0.0781  0.6259
   55MOL   O38123169   6.472   5.970   0.965 -0.2348  0.2503  0.1857
   55MOL   C38223170   6.475   5.840   1.016 -0.0809  0.1090 -0.0310
   55MOL   O38323171   6.391   5.750   0.952  0.0248 -0.5813  0.4662
   55MOL   C38423172   6.296   5.687   1.027  1.3355 -0.4727 -0.6135
   55MOL   C38523173   6.330   5.636   1.159  0.5061  0.1390 -0.0962
   55MOL   C38623174   6.229   5.583   1.245  0.4188 -0.7942 -0.4072
   55MOL   C38723175   6.096   5.591   1.204  0.0784  0.4191 -1.0902
   55MOL   C38823176   6.063   5.637   1.071 -0.0662  0.1124 -0.2439
   55MOL   C38923177   6.162   5.679   0.982 -0.2223  0.2498  0.4200
   55MOL   C39023178   6.302   6.097   0.867  0.1262  0.5828 -0.2570
   55MOL   H39123179   6.265   5.968   1.033  1.2785 -1.3924 -0.1945
   55MOL   H39223180   6.577   5.806   1.002 -0.2329 -0.6600  0.6816
   55MOL   H39323181   6.468   5.846   1.124  0.0796 -1.2756  0.0634
   55MOL   H39423182   6.435   5.623   1.178  0.5506 -0.6561 -0.8288
   55MOL   H39523183   6.244   5.549   1.346  0.4496 -1.3216 -0.5847
   55MOL   H39623184   6.018   5.549   1.265  1.4762  0.9966  1.1371
   55MOL   H39723185   5.961   5.637   1.037 -0.4538  0.4090  0.9183
   55MOL   H39823186   6.143   5.724   0.886 -2.6348 -1.3153  0.1291
   55MOL   H39923187   6.381   6.160   0.827  1.2689 -0.5293  0.2030
   55MOL   H40023188   6.226   6.175   0.877  0.3017  1.1084 -2.9002
   55MOL   C40123189   6.243   6.005   0.751 -1.4631  0.0794  0.0309
   55MOL   O40223190   6.197   6.093   0.647  0.3323 -0.7403 -0.0628
   55MOL   C40323191   6.102   6.027   0.563 -0.0564 -0.9103 -0.8590
   55MOL   O40423192   5.971   6.047   0.611 -0.0359 -0.2324 -0.3577
   55MOL   C40523193   5.913   6.168   0.602 -0.1511 -0.9840  0.7496
   55MOL   C40623194   5.777   6.178   0.633  0.5445  0.1897 -0.8809
   55MOL   C40723195   5.709   6.296   0.609  0.9470  0.6325 -0.2593
   55MOL   C40823196   5.775   6.415   0.575 -0.3474 -0.8602  0.7295
   55MOL   C40923197   5.913   6.413   0.545 -0.1675 -0.2657 -0.4061
   55MOL   C41023198   5.975   6.289   0.566 -0.9587  0.1969  0.0059
   55MOL   C41123199   6.352   5.912   0.692  0.7259  0.3670 -0.4971
   55MOL   H41223200   6.166   5.946   0.799 -1.1155 -0.4162 -0.0202
   55MOL   H41323201   6.118   5.919   0.565 -2.2651 -1.2557 -0.0657
   55MOL   H41423202   6.119   6.071   0.465  1.3534 -2.4906 -1.3525
   55MOL   H41523203   5.724   6.087   0.660  1.9047 -0.2865  0.3006
   55MOL   H41623204   5.605   6.300   0.640  0.7744  0.1887 -0.7834
   55MOL   H41723205   5.719   6.507   0.579  1.0745  0.1005 -0.9576
   55MOL   H41823206   5.969   6.498   0.509  1.9008 -0.9066  1.2039
   55MOL   H41923207   6.083   6.288   0.556 -0.8970  0.4839  0.5665
   55MOL   H42023208   6.452   5.920   0.734  0.3292  2.1979  0.1577
   55MOL   H42123209   6.362   5.929   0.585 -0.5052 -0.1914 -0.7087
   55MOL   H42223210   6.320   5.810   0.715  0.8292  0.1146 -1.4734
   56MOL     C123211   4.727   1.253   0.272 -0.0613  0.2338 -0.0981
   56MOL     O223212   4.706   1.187   0.400  0.3586  0.3399  0.4161
   56MOL     C323213   4.783   1.220   0.508  0.2682 -0.3989 -0.3097
   56MOL     O423214   4.917   1.176   0.495  0.1458  0.4760  0.3168
   56MOL     C523215   4.950   1.042   0.530 -0.2208 -0.1364 -0.9567
   56MOL     C623216   4.859   0.946   0.585 -0.4177 -0.3080  0.0964
   56MOL     C723217   4.910   0.820   0.637 -0.3239 -0.5988 -0.1795
   56MOL     C823218   5.049   0.799   0.635 -0.3810  0.4418 -0.0852
   56MOL     C923219   5.133   0.887   0.563  0.3270  0.2389  0.5152
   56MOL    C1023220   5.082   1.007   0.519  0.3444 -0.2012 -1.0565
   56MOL    C1123221   4.636   1.209   0.162 -0.3194  0.5454  0.7193
   56MOL    H1223222   4.725   1.361   0.285  0.9556  0.4973 -1.9383
   56MOL    H1323223   4.779   1.329   0.515  0.0743 -0.5309  2.1478
   56MOL    H1423224   4.738   1.188   0.602  0.9281 -0.0707  0.1240
   56MOL    H1523225   4.755   0.974   0.596 -0.6276 -1.1156  0.2269
   56MOL    H1623226   4.848   0.745   0.683  0.8703 -1.2566  0.3781
   56MOL    H1723227   5.092   0.708   0.674 -1.9136 -0.3364 -0.1887
   56MOL    H1823228   5.236   0.861   0.544  0.5084 -1.1488  3.1429
   56MOL    H1923229   5.149   1.086   0.489  0.2333  0.5499  0.6368
   56MOL    H2023230   4.535   1.181   0.192 -0.0002 -0.6624  0.6558
   56MOL    H2123231   4.686   1.122   0.121 -1.1861  1.3462 -2.1163
   56MOL    H2223232   4.829   1.236   0.238 -0.4484  0.4054 -1.3752
   56MOL    C2323233   4.633   1.301   0.040 -0.7079 -0.4363 -0.5018
   56MOL    O2423234   4.560   1.423   0.074 -0.0333  0.0634  0.3792
   56MOL    C2523235   4.577   1.524   7.949  0.3546  1.0255  0.2923
   56MOL    O2623236   4.529   1.649   0.019 -0.6139  0.4777 -0.0519
   56MOL    C2723237   4.598   1.716   0.114  0.0797 -0.0217  0.1950
   56MOL    C2823238   4.565   1.856   0.132 -0.9347  0.3746 -0.0088
   56MOL    C2923239   4.623   1.927   0.242  0.4478 -0.0262 -0.1490
   56MOL    C3023240   4.713   1.871   0.331 -0.4592  0.3271 -0.3770
   56MOL    C3123241   4.753   1.735   0.308 -0.2958 -0.9598  0.1156
   56MOL    C3223242   4.691   1.656   0.204 -0.4328 -0.1867 -0.5212
   56MOL    C3323243   4.558   1.235   7.896  0.4324  0.4066 -0.0855
   56MOL    H3423244   4.734   1.326   0.008  0.6138 -1.5494  2.7038
   56MOL    H3523245   4.510   1.500   7.867  1.0221  1.2264 -0.3158
   56MOL    H3623246   4.675   1.542   7.904  0.1107  0.0151 -0.6475
   56MOL    H3723247   4.496   1.908   0.067  1.7699 -0.5176 -3.7158
   56MOL    H3823248   4.593   2.030   0.247 -1.7990 -0.5572 -1.5272
   56MOL    H3923249   4.764   1.930   0.406 -0.2695 -1.3908  0.8929
   56MOL    H4023250   4.828   1.686   0.368 -0.4919 -0.1503  1.0310
   56MOL    H4123251   4.722   1.553   0.196  0.9077  0.1759 -0.0424
   56MOL    H4223252   4.453   1.263   7.904 -0.3195 -2.3493  0.1164
   56MOL    H4323253   4.557   1.131   7.928 -1.3809  0.6196  0.6485
   56MOL    C4423254   4.647   1.246   7.771  0.4620 -0.4264  0.7975
   56MOL    O4523255   4.556   1.206   7.659  0.5577  0.7675 -0.6115
   56MOL    C4623256   4.488   1.315   7.607 -0.4834  0.5814  0.2074
   56MOL    O4723257   4.575   1.393   7.521  0.0945  0.2659 -0.0374
   56MOL    C4823258   4.591   1.356   7.390 -0.1053 -0.0855 -0.5798
   56MOL    C4923259   4.518   1.246   7.327 -0.1302 -0.5669  0.2308
   56MOL    C5023260   4.545   1.208   7.193 -0.2900  0.3130  0.3964
   56MOL    C5123261   4.637   1.281   7.114  0.2456  1.0651  0.2739
   56MOL    C5223262   4.704   1.395   7.172  0.1979 -0.4311  0.1333
   56MOL    C5323263   4.687   1.428   7.309  0.1687  0.4883  0.0222
   56MOL    C5423264   4.768   1.143   7.766  0.1275  0.3459  0.4472
   56MOL    H5523265   4.696   1.340   7.747 -1.3140  0.1241 -0.8297
   56MOL    H5623266   4.469   1.389   7.684  0.3413  2.1715 -1.0878
   56MOL    H5723267   4.390   1.287   7.568 -1.5685  1.7065  2.0780
   56MOL    H5823268   4.431   1.199   7.369 -0.2181 -0.2748  0.3755
   56MOL    H5923269   4.492   1.127   7.143 -1.1532 -0.4131  2.4324
   56MOL    H6023270   4.658   1.244   7.014 -1.2842  0.8753  0.0201
   56MOL    H6123271   4.781   1.438   7.109 -2.5101  2.5348 -1.3005
   56MOL    H6223272   4.752   1.500   7.358  0.6502 -1.3474  2.1715
   56MOL    H6323273   4.811   1.126   7.864 -0.6293  3.9999  1.5146
   56MOL    H6423274   4.724   1.046   7.748 -0.7033  0.3966  2.2005
   56MOL    C6523275   4.884   1.183   7.671  0.4677  0.4966  0.2160
   56MOL    O6623276   4.960   1.283   7.728  0.5203 -0.5193  0.3396
   56MOL    C6723277   5.020   1.370   7.637 -0.2409 -0.4501 -0.2016
   56MOL    O6823278   4.935   1.472   7.609 -0.0153 -0.5291 -0.0860
   56MOL    C6923279   4.920   1.573   7.700 -0.5447 -0.5855  1.0028
   56MOL    C7023280   4.980   1.577   7.829 -0.0034 -0.2203  0.2362
   56MOL    C7123281   4.970   1.685   7.915  0.0226  0.3248  0.3820
   56MOL    C7223282   4.878   1.791   7.885  0.3710  0.5420 -0.6427
   56MOL    C7323283   4.803   1.779   7.768  0.2474 -0.2782 -0.0391
   56MOL    C7423284   4.823   1.674   7.672  0.2934  0.0705 -0.8661
   56MOL    C7523285   4.989   1.061   7.658  0.5241 -0.5304 -0.4711
   56MOL    H7623286   4.846   1.206   7.572  1.5966 -1.5273 -0.7014
   56MOL    H7723287   5.068   1.315   7.556 -1.1943  0.5424 -1.4722
   56MOL    H7823288   5.106   1.412   7.689  0.9572 -0.6655 -1.9480
   56MOL    H7923289   5.050   1.500   7.856  2.0019  1.8083  0.9166
   56MOL    H8023290   5.017   1.684   0.036  0.4979 -1.3064  0.1374
   56MOL    H8123291   4.866   1.874   7.953 -0.0234 -0.0249 -0.0077
   56MOL    H8223292   4.724   1.848   7.743 -0.1786 -0.8961 -0.4081
   56MOL    H8323293   4.769   1.660   7.580 -0.0935 -2.3446 -0.3103
   56MOL    H8423294   5.059   1.069   7.742 -1.9017 -0.9403  1.6424
   56MOL    H8523295   4.937   0.966   7.668 -0.2460 -0.0439  0.2080
   56MOL    C8623296   5.046   1.038   7.522  0.3214  0.4756  0.5835
   56MOL    O8723297   5.176   0.973   7.542  0.7843 -0.0210  0.0221
   56MOL    C8823298   5.285   1.058   7.540 -0.0554 -0.1427 -0.3283
   56MOL    O8923299   5.275   1.141   7.650  0.0427  0.2321 -0.5305
   56MOL    C9023300   5.387   1.214   7.684  0.2848  0.4583 -0.1019
   56MOL    C9123301   5.508   1.226   7.604 -0.3071  0.0985 -0.5977
   56MOL    C9223302   5.620   1.294   7.660 -0.3570  0.0463 -0.3894
   56MOL    C9323303   5.619   1.335   7.791  0.4315  0.4669 -0.2161
   56MOL    C9423304   5.501   1.317   7.872  0.3220 -0.1257 -0.1582
   56MOL    C9523305   5.383   1.270   7.816  0.1535  0.2469  0.3744
   56MOL    C9623306   4.958   0.946   7.435 -0.0696  0.0769  0.2566
   56MOL    H9723307   5.060   1.128   7.463  1.6799 -1.0987 -1.5493
   56MOL    H9823308   5.289   1.108   7.443 -0.0949  0.7305  0.1190
   56MOL    H9923309   5.375   0.997   7.550  0.1377  0.5919  2.7949
   56MOL   H10023310   5.532   1.175   7.512  1.6684 -2.4310  1.2423
   56MOL   H10123311   5.717   1.305   7.614  1.4848  1.0931  3.5514
   56MOL   H10223312   5.712   1.377   7.828  1.1567 -0.7329 -0.6720
   56MOL   H10323313   5.507   1.343   0.001 -1.4351  2.1907 -0.6024
   56MOL   H10423314   5.290   1.257   7.869 -0.0050 -2.5357 -0.4800
   56MOL   H10523315   4.974   0.854   7.491  0.1309  1.2445  2.1913
   56MOL   H10623316   4.854   0.979   7.439 -0.4173 -0.8982 -0.5236
   56MOL   C10723317   5.009   0.928   7.287 -0.5237 -0.7180  0.1530
   56MOL   O10823318   4.982   0.785   7.268 -0.1968 -0.0343  0.3831
   56MOL   C10923319   5.092   0.692   7.287  0.2350  0.3390 -0.0376
   56MOL   O11023320   5.136   0.698   7.418 -0.4923  0.4237 -0.0144
   56MOL   C11123321   5.253   0.626   7.445 -0.0024  0.3712 -0.1682
   56MOL   C11223322   5.290   0.634   7.581 -0.9628 -0.3069  0.0128
   56MOL   C11323323   5.395   0.554   7.630 -0.3062  0.5383  0.1014
   56MOL   C11423324   5.471   0.478   7.537 -0.0698 -0.5984 -0.3325
   56MOL   C11523325   5.441   0.479   7.398 -0.8875  0.2025 -0.6892
   56MOL   C11623326   5.332   0.549   7.354 -0.0239 -0.0763  0.4029
   56MOL   C11723327   4.920   1.015   7.185  0.1797 -0.3094  0.2876
   56MOL   H11823328   5.115   0.951   7.284 -0.4047 -1.2399  0.3676
   56MOL   H11923329   5.175   0.724   7.225  1.6381  0.4299  1.8784
   56MOL   H12023330   5.068   0.592   7.251 -1.5959 -0.0660  2.1703
   56MOL   H12123331   5.225   0.685   7.651  0.0725 -0.9475  1.4632
   56MOL   H12223332   5.416   0.556   7.735 -0.7665  1.0204  0.1831
   56MOL   H12323333   5.553   0.419   7.573  1.0295 -0.0161 -1.8387
   56MOL   H12423334   5.502   0.414   7.337  0.8710 -1.5488  2.7534
   56MOL   H12523335   5.296   0.531   7.253  0.6088 -1.3889  0.3961
   56MOL   H12623336   4.907   1.116   7.224  3.9091  0.1700  0.4682
   56MOL   H12723337   4.817   0.982   7.193  0.4293 -0.7933  1.5940
   56MOL   C12823338   4.962   1.014   7.042  0.0020  0.1658  0.1352
   56MOL   O12923339   4.957   1.145   6.986  0.0130  0.2048 -0.1803
   56MOL   C13023340   5.083   1.207   6.964 -0.4035 -0.7449  0.1167
   56MOL   O13123341   5.174   1.202   7.073 -0.3319 -0.2057  0.1068
   56MOL   C13223342   5.173   1.310   7.160 -0.2794 -0.0279 -0.0048
   56MOL   C13323343   5.300   1.355   7.208  1.0690  0.4015  0.2158
   56MOL   C13423344   5.310   1.461   7.296 -0.3250 -0.4066  0.5583
   56MOL   C13523345   5.193   1.521   7.339 -0.0693  0.3442 -0.4833
   56MOL   C13623346   5.064   1.482   7.295  0.0254 -0.1670  0.3311
   56MOL   C13723347   5.058   1.365   7.214  0.5018 -0.1321  0.1454
   56MOL   C13823348   4.886   0.924   6.947 -0.4980 -0.5094  0.3508
   56MOL   H13923349   5.063   0.974   7.042  0.7805  1.9245  3.8093
   56MOL   H14023350   5.067   1.312   6.943 -2.1123 -0.9533  0.3522
   56MOL   H14123351   5.141   1.161   6.883  1.3729  0.3821  0.7261
   56MOL   H14223352   5.388   1.306   7.170  0.2630 -1.3589  0.5549
   56MOL   H14323353   5.407   1.490   7.331  0.2764  0.5667 -1.7979
   56MOL   H14423354   5.194   1.601   7.412  0.2833 -1.1668  1.2093
   56MOL   H14523355   4.975   1.526   7.336 -0.5214 -1.6585  0.7805
   56MOL   H14623356   4.961   1.326   7.187  0.9212 -0.1467 -1.3535
   56MOL   H14723357   4.854   0.832   6.997  0.7568 -0.5534  1.1106
   56MOL   H14823358   4.793   0.969   6.913 -1.8887 -2.6244  1.2374
   56MOL   C14923359   4.973   0.887   6.817 -0.1593  0.2085 -0.1600
   56MOL   O15023360   5.066   0.775   6.851 -0.1304 -0.5179 -0.2423
   56MOL   C15123361   5.203   0.785   6.838  0.2336 -0.2920 -0.0680
   56MOL   O15223362   5.234   0.814   6.710 -0.3031 -0.3580  0.3194
   56MOL   C15323363   5.361   0.792   6.673 -0.1664 -0.4370  0.6468
   56MOL   C15423364   5.478   0.781   6.761 -0.6212  0.1394 -0.0795
   56MOL   C15523365   5.604   0.746   6.715 -0.7624 -0.6216  0.8666
   56MOL   C15623366   5.630   0.757   6.577  0.6989  0.0385 -0.3268
   56MOL   C15723367   5.519   0.772   6.489 -0.3041 -0.5163 -0.2870
   56MOL   C15823368   5.389   0.798   6.533 -0.3332 -0.3155 -0.5558
   56MOL   C15923369   4.890   0.834   6.703 -0.2197  0.1574  0.4580
   56MOL   H16023370   5.025   0.981   6.796  1.3746  0.1850  3.0750
   56MOL   H16123371   5.246   0.859   6.905  0.8117 -1.5334  0.9473
   56MOL   H16223372   5.231   0.685   6.871  1.0654 -1.1362 -3.1521
   56MOL   H16323373   5.461   0.792   6.867  1.6308 -2.8542  0.6670
   56MOL   H16423374   5.681   0.731   6.790 -0.1623  0.1447  0.4248
   56MOL   H16523375   5.730   0.749   6.537  1.1466  0.4410  0.7038
   56MOL   H16623376   5.535   0.780   6.382 -1.1623  2.4513 -0.2642
   56MOL   H16723377   5.312   0.805   6.458 -0.1897  0.9166 -0.6066
   56MOL   H16823378   4.814   0.768   6.744 -1.4003  0.6153 -0.9464
   56MOL   H16923379   4.949   0.773   6.634 -3.2300 -0.6529 -1.5001
   56MOL   C17023380   4.836   0.951   6.623 -0.2260 -0.0208  0.0633
   56MOL   O17123381   4.941   0.991   6.538  0.5643  0.3284 -0.0364
   56MOL   C17223382   4.942   1.132   6.517 -0.7057 -0.2611 -0.4822
   56MOL   O17323383   5.000   1.210   6.621  0.0081  0.3756  0.2966
   56MOL   C17423384   5.136   1.212   6.622 -0.7707  0.3662 -0.1569
   56MOL   C17523385   5.212   1.103   6.568 -0.2829  0.1670 -0.3248
   56MOL   C17623386   5.354   1.111   6.552  0.3236 -0.7023 -0.2231
   56MOL   C17723387   5.420   1.218   6.618  0.2951 -0.1433 -0.2805
   56MOL   C17823388   5.350   1.329   6.679  0.4485  0.0918 -0.0032
   56MOL   C17923389   5.207   1.324   6.670  0.5933 -0.0780 -0.1363
   56MOL   C18023390   4.728   0.916   6.524 -0.3430  0.3456  0.7887
   56MOL   H18123391   4.802   1.025   6.695 -0.7297 -0.0860 -0.1053
   56MOL   H18223392   4.844   1.174   6.494 -0.3695  0.4959 -0.5384
   56MOL   H18323393   4.991   1.144   6.421 -0.8691 -1.4492 -0.7255
   56MOL   H18423394   5.169   1.021   6.512  0.7625  0.0710 -1.0141
   56MOL   H18523395   5.422   1.046   6.499  0.8463 -0.1908 -0.1937
   56MOL   H18623396   5.526   1.233   6.609  0.1140  0.2388 -1.8806
   56MOL   H18723397   5.408   1.401   6.733  0.1968  0.3605 -0.0908
   56MOL   H18823398   5.154   1.398   6.728 -0.2765 -0.9019  0.1456
   56MOL   H18923399   4.711   0.998   6.455  2.0910 -0.9207 -1.4218
   56MOL   H19023400   4.775   0.841   6.460  0.6447  1.8759 -0.3216
   56MOL   C19123401   4.589   0.879   6.584  0.2368 -0.5070  0.2387
   56MOL   O19223402   4.503   0.852   6.474 -0.1184 -0.5610  0.2516
   56MOL   C19323403   4.511   0.723   6.418  0.0902 -0.5989 -0.1609
   56MOL   O19423404   4.462   0.627   6.501  0.3907 -0.0698 -0.3847
   56MOL   C19523405   4.332   0.624   6.535 -0.4851  0.7196  0.0805
   56MOL   C19623406   4.230   0.706   6.487  0.0678  0.5287  0.3122
   56MOL   C19723407   4.111   0.713   6.560  0.1726 -0.2678  0.3930
   56MOL   C19823408   4.086   0.635   6.670  0.2779  0.3566 -0.0282
   56MOL   C19923409   4.184   0.542   6.715 -0.2828 -0.3987  0.3863
   56MOL   C20023410   4.306   0.537   6.646  0.4828 -0.3669 -0.2702
   56MOL   C20123411   4.510   0.976   6.675  0.8690 -0.0798  0.0178
   56MOL   H20223412   4.604   0.783   6.634 -2.4997  0.2249  2.5817
   56MOL   H20323413   4.616   0.702   6.402  0.5901  0.7113  1.3152
   56MOL   H20423414   4.449   0.713   6.328  1.0144 -0.5307 -0.8086
   56MOL   H20523415   4.254   0.776   6.409 -0.1214 -2.2573 -2.3334
   56MOL   H20623416   4.041   0.793   6.539  1.0281  0.4406  0.2261
   56MOL   H20723417   3.992   0.647   6.721 -0.9400 -1.1133 -1.8449
   56MOL   H20823418   4.165   0.484   6.805  0.5332 -1.1837  0.0609
   56MOL   H20923419   4.380   0.465   6.678  1.1226  0.1457 -0.5818
   56MOL   H21023420   4.573   1.064   6.690  0.8728  0.1711 -1.4000
   56MOL   H21123421   4.419   1.015   6.628  0.2710  0.7301  1.7871
   56MOL   C21223422   4.460   0.902   6.803  0.2745  0.3230 -0.3975
   56MOL   O21323423   4.577   0.849   6.870 -0.3298 -0.3525 -0.3640
   56MOL   C21423424   4.568   0.717   6.922  0.6667 -0.7918 -0.5648
   56MOL   O21523425   4.466   0.707   7.017  0.4376  0.3791 -0.0239
   56MOL   C21623426   4.495   0.744   7.147  0.1141 -0.1619 -0.0835
   56MOL   C21723427   4.430   0.677   7.252  1.1129 -0.6828 -0.4233
   56MOL   C21823428   4.436   0.711   7.388 -0.7623 -0.1993  0.1556
   56MOL   C21923429   4.530   0.812   7.423 -0.2726  0.0846  0.3174
   56MOL   C22023430   4.602   0.882   7.324 -0.1856  0.2927 -0.3131
   56MOL   C22123431   4.583   0.848   7.185  0.3556 -0.0830 -0.7814
   56MOL   C22223432   4.399   0.998   6.905 -0.6064 -0.2761  0.0572
   56MOL   H22323433   4.382   0.830   6.778  1.6452 -1.0217 -0.8788
   56MOL   H22423434   4.667   0.693   6.960 -0.3618 -3.2929  0.6649
   56MOL   H22523435   4.547   0.648   6.839  1.7093 -0.5681 -1.0187
   56MOL   H22623436   4.378   0.586   7.226  2.7414 -1.7867  0.1472
   56MOL   H22723437   4.374   0.668   7.465 -0.2969  0.7584  1.0752
   56MOL   H22823438   4.563   0.819   7.526  0.8672 -0.7654  0.0329
   56MOL   H22923439   4.677   0.955   7.350  1.7719 -1.3514 -1.1917
   56MOL   H23023440   4.628   0.912   7.111  0.4104 -1.3741 -1.8777
   56MOL   H23123441   4.374   0.940   6.994  1.2116 -2.6061 -0.8954
   56MOL   H23223442   4.487   1.052   6.941 -0.5115  0.4170 -1.1684
   56MOL   C23323443   4.275   1.089   6.883 -0.2152 -0.4630 -0.3824
   56MOL   O23423444   4.284   1.183   6.781 -0.7070 -0.7053 -0.3594
   56MOL   C23523445   4.377   1.287   6.797  0.0561 -0.1042  0.2748
   56MOL   O23623446   4.361   1.353   6.918 -0.2271  0.2003  0.3741
   56MOL   C23723447   4.272   1.453   6.926  0.3611  0.1232 -0.2492
   56MOL   C23823448   4.249   1.499   7.055 -0.1243  0.6735 -0.0087
   56MOL   C23923449   4.185   1.617   7.078  0.0137  0.1651  0.0432
   56MOL   C24023450   4.121   1.685   6.972  0.2957 -0.5748 -0.6040
   56MOL   C24123451   4.129   1.628   6.841  0.5077  0.4507  0.6728
   56MOL   C24223452   4.212   1.515   6.814 -0.1270  0.0096  1.1188
   56MOL   C24323453   4.159   1.003   6.825 -0.7678 -0.0027  0.8954
   56MOL   H24423454   4.232   1.125   6.976 -0.6457 -1.3042 -0.2517
   56MOL   H24523455   4.376   1.351   6.709  0.6425 -1.1577 -0.5067
   56MOL   H24623456   4.478   1.247   6.797 -0.7226 -2.1824 -1.6777
   56MOL   H24723457   4.291   1.432   7.130 -0.6574 -1.0517 -1.2118
   56MOL   H24823458   4.160   1.642   7.180 -0.5020 -2.1563  0.5030
   56MOL   H24923459   4.076   1.779   6.999  0.0221 -1.1115  0.8228
   56MOL   H25023460   4.089   1.684   6.758  3.1234 -0.7654 -1.4973
   56MOL   H25123461   4.213   1.493   6.709  1.5649 -0.2147  1.1679
   56MOL   H25223462   4.179   0.978   6.721  0.5477 -1.0176  1.3748
   56MOL   H25323463   4.155   0.911   6.884  1.7152 -0.1702  0.8693
   56MOL   C25423464   4.018   1.066   6.823 -0.9825  0.4383  0.2285
   56MOL   O25523465   3.938   0.966   6.763  0.5764 -0.1263 -0.3506
   56MOL   C25623466   3.864   1.010   6.655 -0.3602 -0.0190 -0.0062
   56MOL   O25723467   3.952   1.038   6.555  0.5029 -0.1701 -0.5485
   56MOL   C25823468   3.902   1.091   6.440 -0.0361  0.4267 -0.1297
   56MOL   C25923469   3.766   1.129   6.420 -0.5613 -0.4934  0.1410
   56MOL   C26023470   3.728   1.199   6.305 -0.0773 -0.3143  0.1460
   56MOL   C26123471   3.823   1.218   6.203  0.2168 -0.3316 -0.0148
   56MOL   C26223472   3.953   1.164   6.212  0.6958 -0.3393 -0.5006
   56MOL   C26323473   3.996   1.107   6.335 -0.1194 -0.9092  0.6443
   56MOL   C26423474   3.955   1.094   6.962  0.2274  0.5560 -0.2734
   56MOL   H26523475   4.023   1.155   6.761 -1.1324  0.2165 -0.1041
   56MOL   H26623476   3.788   1.083   6.680 -2.0923 -1.8430  0.2101
   56MOL   H26723477   3.809   0.919   6.633 -2.0852  0.2799  2.9462
   56MOL   H26823478   3.687   1.112   6.492 -1.8204  1.1727 -0.8447
   56MOL   H26923479   3.628   1.235   6.289  0.3803  0.4783 -1.0053
   56MOL   H27023480   3.795   1.270   6.112 -0.6388  0.5860  0.7652
   56MOL   H27123481   4.011   1.173   6.121  0.1163  1.9599 -0.6889
   56MOL   H27223482   4.092   1.059   6.349 -0.5552 -1.7646  0.7463
   56MOL   H27323483   3.851   1.060   6.973  0.7363 -1.0899 -0.3490
   56MOL   H27423484   4.008   1.027   7.030 -1.0997  1.4979  1.7436
   56MOL   C27523485   3.955   1.246   7.005 -0.9498 -0.0335 -0.1522
   56MOL   O27623486   3.849   1.316   6.945 -0.6683 -0.4158  0.2097
   56MOL   C27723487   3.849   1.458   6.973 -0.4889  0.3009 -0.6501
   56MOL   O27823488   3.764   1.528   6.880  0.0499  0.3059 -0.0496
   56MOL   C27923489   3.791   1.515   6.751  0.0183 -0.3489  0.4769
   56MOL   C28023490   3.718   1.608   6.672  0.5826 -0.0687 -0.2728
   56MOL   C28123491   3.747   1.614   6.533 -0.8071 -0.8167 -0.2639
   56MOL   C28223492   3.835   1.528   6.469 -0.4692 -0.7831 -0.5465
   56MOL   C28323493   3.912   1.443   6.545  0.0045 -0.0213  0.0081
   56MOL   C28423494   3.883   1.430   6.682  0.1362 -0.2269 -0.8667
   56MOL   C28523495   3.953   1.253   7.164 -0.6601  0.3904 -0.0918
   56MOL   H28623496   4.051   1.285   6.974 -0.7389  1.1216  1.8895
   56MOL   H28723497   3.953   1.481   6.947 -0.4928  0.4080 -0.5695
   56MOL   H28823498   3.836   1.490   7.077  0.5471  1.7516 -0.9475
   56MOL   H28923499   3.650   1.680   6.716  0.0665  1.1623 -2.9820
   56MOL   H29023500   3.699   1.693   6.477 -1.1531 -1.1178 -0.3956
   56MOL   H29123501   3.846   1.526   6.362  1.4043  1.8413 -0.4522
   56MOL   H29223502   3.977   1.381   6.485 -2.8993 -1.1189 -2.1579
   56MOL   H29323503   3.946   1.354   6.726 -0.5178 -2.0347 -2.9564
   56MOL   H29423504   3.955   1.355   7.202  0.1978  1.0807 -1.9650
   56MOL   H29523505   4.041   1.202   7.203 -0.2045  0.4654 -1.0240
   56MOL   C29623506   3.835   1.187   7.244 -0.4711 -0.4640  0.6065
   56MOL   O29723507   3.869   1.226   7.378 -0.3351 -0.6333  0.7828
   56MOL   C29823508   3.828   1.147   7.480  0.1428  0.2869 -0.0718
   56MOL   O29923509   3.909   1.164   7.591  0.3305  0.7104  0.0641
   56MOL   C30023510   4.037   1.105   7.597 -0.4231  0.3347 -0.2243
   56MOL   C30123511   4.097   1.106   7.724  0.2107 -0.3855 -0.2641
   56MOL   C30223512   4.227   1.050   7.746  0.2015 -0.0898  0.1078
   56MOL   C30323513   4.298   0.999   7.634  0.6474  0.2486  0.6333
   56MOL   C30423514   4.234   0.990   7.508  0.1102 -0.5475 -0.1356
   56MOL   C30523515   4.103   1.046   7.486  0.6256 -0.3633  0.2213
   56MOL   C30623516   3.687   1.235   7.202  0.4909  0.5690 -0.3788
   56MOL   H30723517   3.837   1.078   7.244  0.0444 -0.4557 -0.6234
   56MOL   H30823518   3.813   1.041   7.459 -1.0062  0.7703 -1.7954
   56MOL   H30923519   3.728   1.181   7.503 -0.0850 -0.5353  0.1851
   56MOL   H31023520   4.041   1.139   7.810 -0.9519  1.7579 -1.8186
   56MOL   H31123521   4.272   1.052   7.844  1.6061  0.5432 -0.5375
   56MOL   H31223522   4.400   0.964   7.647 -0.0268 -1.7941  0.6099
   56MOL   H31323523   4.291   0.950   7.426 -1.8773 -3.0695 -0.3528
   56MOL   H31423524   4.058   1.042   7.388 -0.1484  0.9180  0.5097
   56MOL   H31523525   3.693   1.273   7.100 -1.4637 -0.2849 -0.8226
   56MOL   H31623526   3.685   1.336   7.244  1.7928 -0.6340  2.7912
   56MOL   C31723527   3.562   1.141   7.222 -0.3778 -0.0342  0.5659
   56MOL   O31823528   3.580   1.042   7.123  0.1895 -0.1082  0.6796
   56MOL   C31923529   3.567   0.912   7.180  0.1177 -0.2629  0.2099
   56MOL   O32023530   3.669   0.865   7.266  0.2577  0.2122 -0.7904
   56MOL   C32123531   3.795   0.819   7.226  0.3880 -0.2786  0.7819
   56MOL   C32223532   3.840   0.805   7.090 -0.8759  0.7472 -0.6021
   56MOL   C32323533   3.968   0.754   7.066  0.1698  0.2093 -0.2287
   56MOL   C32423534   4.066   0.735   7.162  0.2203  0.4680 -0.1832
   56MOL   C32523535   4.016   0.738   7.294 -0.1890 -0.4786 -0.0054
   56MOL   C32623536   3.882   0.779   7.327 -0.2577  0.5162 -0.5515
   56MOL   C32723537   3.431   1.221   7.218  0.4035 -0.7047 -0.7326
   56MOL   H32823538   3.568   1.108   7.326  1.5765  0.7240  0.7291
   56MOL   H32923539   3.567   0.842   7.097 -1.2249 -0.2926  0.2367
   56MOL   H33023540   3.473   0.906   7.234  0.9438  0.5269  1.7651
   56MOL   H33123541   3.789   0.829   6.998  3.0462  1.4241 -2.7049
   56MOL   H33223542   4.006   0.737   6.966 -0.9904 -2.4256 -0.2775
   56MOL   H33323543   4.170   0.719   7.138  1.0108  3.9285  0.7175
   56MOL   H33423544   4.080   0.710   7.376 -0.7536  2.9157  1.6676
   56MOL   H33523545   3.848   0.770   7.429  0.0069 -0.1122 -0.5166
   56MOL   H33623546   3.435   1.293   7.299  3.2328 -0.9553 -0.5879
   56MOL   H33723547   3.421   1.271   7.121 -0.8374 -0.0082 -0.2548
   56MOL   C33823548   3.307   1.138   7.233 -0.7100 -0.3894  0.3326
   56MOL   O33923549   3.302   1.038   7.130  0.1611 -0.1221  0.2909
   56MOL   C34023550   3.285   1.082   6.993 -0.0394  0.0327  0.6577
   56MOL   O34123551   3.165   1.155   6.979  0.4982 -0.0065 -0.0211
   56MOL   C34223552   3.050   1.084   6.975  0.8117 -0.7625 -0.0086
   56MOL   C34323553   2.933   1.157   6.934  0.0242  0.5430  0.6801
   56MOL   C34423554   2.813   1.093   6.909  0.1337 -0.2494 -0.9404
   56MOL   C34523555   2.799   0.960   6.939  0.4033  0.8310  0.8505
   56MOL   C34623556   2.905   0.885   6.984 -0.1610  0.3289 -0.0234
   56MOL   C34723557   3.032   0.945   6.995 -0.1175  0.3111  0.6010
   56MOL   C34823558   3.279   1.073   7.373 -0.4934 -0.1181  0.9548
   56MOL   H34923559   3.236   1.220   7.219  0.8108  0.4679 -2.9572
   56MOL   H35023560   3.297   1.002   6.920 -1.0670  0.2298  0.2699
   56MOL   H35123561   3.368   1.148   6.968 -1.1796  1.2310 -0.0138
   56MOL   H35223562   2.937   1.261   6.904  0.4717  0.6156  0.9947
   56MOL   H35323563   2.732   1.153   6.870 -0.6713 -1.2570 -0.8246
   56MOL   H35423564   2.704   0.915   6.915 -0.1100  0.2843  3.6788
   56MOL   H35523565   2.888   0.781   7.006  0.3259 -0.0270 -1.3230
   56MOL   H35623566   3.118   0.882   7.014 -0.5123 -0.2149  0.6637
   56MOL   H35723567   3.347   0.989   7.384 -0.4833 -0.0294  1.5622
   56MOL   H35823568   3.177   1.034   7.370  0.1593 -1.7921 -1.5038
   56MOL   C35923569   3.279   1.161   7.499 -0.0708  0.8924 -0.2300
   56MOL   O36023570   3.243   1.069   7.602  0.3809  0.5302 -0.1279
   56MOL   C36123571   3.279   1.107   7.736 -0.0979 -1.2174  0.0705
   56MOL   O36223572   3.417   1.124   7.752 -0.3916 -0.2713  0.1649
   56MOL   C36323573   3.500   1.012   7.727 -0.0329 -0.0233  0.1434
   56MOL   C36423574   3.637   1.037   7.739 -0.1656 -0.1092  0.1932
   56MOL   C36523575   3.737   0.938   7.715  0.3052 -0.3546  0.3928
   56MOL   C36623576   3.700   0.811   7.682  0.5436  0.3303  0.1351
   56MOL   C36723577   3.565   0.779   7.662 -0.2889 -0.5803 -0.1756
   56MOL   C36823578   3.467   0.884   7.681  0.1461 -0.1984  0.2784
   56MOL   C36923579   3.181   1.287   7.484 -0.3466  0.6352 -0.3122
   56MOL   H37023580   3.383   1.192   7.504 -0.3786  1.6826  1.6986
   56MOL   H37123581   3.239   1.041   7.813 -1.1918 -1.5489 -0.7690
   56MOL   H37223582   3.243   1.208   7.753  0.6750 -1.1679  1.4668
   56MOL   H37323583   3.672   1.130   7.780  0.2269  0.3830 -1.2627
   56MOL   H37423584   3.841   0.964   7.725 -0.3927  2.2145  1.4157
   56MOL   H37523585   3.777   0.737   7.673 -0.1682 -0.5004  0.7227
   56MOL   H37623586   3.535   0.680   7.630 -0.4751 -0.2160 -1.1425
   56MOL   H37723587   3.363   0.863   7.663  0.2494  0.5127 -1.2138
   56MOL   H37823588   3.231   1.344   7.406  0.1596 -0.1772 -0.5879
   56MOL   H37923589   3.182   1.341   7.579  1.3532  0.5666 -0.2773
   56MOL   C38023590   3.036   1.270   7.421  0.4053  0.0546 -0.4975
   56MOL   O38123591   2.981   1.396   7.371 -0.1899 -0.0176 -0.5081
   56MOL   C38223592   3.013   1.434   7.236  0.7604  0.1173  0.4525
   56MOL   O38323593   3.150   1.468   7.234 -0.3009  0.2358 -0.6344
   56MOL   C38423594   3.198   1.555   7.138 -0.1849  0.0983 -0.3324
   56MOL   C38523595   3.115   1.628   7.045  0.4812 -0.2432  0.3037
   56MOL   C38623596   3.178   1.718   6.951  0.0746  0.0392 -0.4775
   56MOL   C38723597   3.320   1.722   6.944 -0.0231  0.6461  0.0365
   56MOL   C38823598   3.396   1.647   7.039 -0.2413  0.3775  0.6602
   56MOL   C38923599   3.336   1.569   7.137 -0.3452  1.0289 -0.1711
   56MOL   C39023600   2.935   1.225   7.532 -0.5171  0.2494 -0.6030
   56MOL   H39123601   3.052   1.195   7.343 -0.2626 -0.8178  0.1926
   56MOL   H39223602   3.004   1.344   7.176  0.9749  1.1200 -1.1249
   56MOL   H39323603   2.951   1.520   7.210  0.7730 -0.2356 -0.7761
   56MOL   H39423604   3.008   1.630   7.040  0.4360 -0.4014  1.0602
   56MOL   H39523605   3.115   1.778   6.888 -0.4455 -1.2784 -1.2494
   56MOL   H39623606   3.368   1.778   6.864 -0.8049  0.7534 -0.3620
   56MOL   H39723607   3.502   1.663   7.045 -0.2960  0.8807  0.2911
   56MOL   H39823608   3.393   1.522   7.216  1.1761 -0.6463 -2.2063
   56MOL   H39923609   2.901   1.311   7.589 -0.2506  0.5045 -0.8236
   56MOL   H40023610   2.998   1.167   7.600 -1.3411  0.3486  0.2528
   56MOL   C40123611   2.817   1.143   7.474  0.0412 -0.0077 -1.2828
   56MOL   O40223612   2.857   1.011   7.457 -0.2423 -0.1639  0.0470
   56MOL   C40323613   2.849   0.946   7.334  0.5008 -0.4056  0.5514
   56MOL   O40423614   2.716   0.896   7.317  0.3831 -0.0076 -0.5899
   56MOL   C40523615   2.680   0.770   7.362  0.6634 -1.1870 -0.2212
   56MOL   C40623616   2.740   0.709   7.472 -0.6116 -0.5829 -0.7187
   56MOL   C40723617   2.687   0.587   7.523 -0.1704  0.1926  0.8240
   56MOL   C40823618   2.581   0.525   7.453 -0.0175  0.3168 -0.1206
   56MOL   C40923619   2.516   0.591   7.341 -0.0547  0.5051  0.8217
   56MOL   C41023620   2.561   0.716   7.301  0.6358  0.2843  0.2015
   56MOL   C41123621   2.688   1.152   7.564 -0.0781 -0.1056 -0.2581
   56MOL   H41223622   2.796   1.183   7.375  0.0528  1.9776 -0.5014
   56MOL   H41323623   2.926   0.871   7.314 -0.6670 -1.4415 -0.1227
   56MOL   H41423624   2.867   1.018   7.255 -0.4875 -0.7252  0.0266
   56MOL   H41523625   2.825   0.746   7.528 -1.1119  0.6270 -0.7273
   56MOL   H41623626   2.730   0.527   7.602  2.3663 -0.3392 -0.8972
   56MOL   H41723627   2.544   0.433   7.496  2.5532 -1.0126 -0.6484
   56MOL   H41823628   2.442   0.537   7.285  0.8818 -0.0061  0.0576
   56MOL   H41923629   2.526   0.759   7.209  2.0490  1.2127  0.0770
   56MOL   H42023630   2.604   1.095   7.526  0.7173 -0.2864 -1.7785
   56MOL   H42123631   2.661   1.258   7.563 -1.3118 -0.4057 -3.3261
   56MOL   H42223632   2.709   1.129   7.669 -0.0523  1.6033  0.1255
   57MOL     C123633   3.579   4.191   0.958  0.8445  0.1684  0.3551
   57MOL     O223634   3.650   4.300   0.903 -0.2937  0.4232  0.0248
   57MOL     C323635   3.584   4.421   0.923  0.9456  0.1254  0.4688
   57MOL     O423636   3.456   4.424   0.870  0.1436 -0.0615  0.3540
   57MOL     C523637   3.391   4.541   0.853 -0.4538 -1.0766 -0.5198
   57MOL     C623638   3.259   4.520   0.829 -0.1665 -0.6643 -0.2255
   57MOL     C723639   3.173   4.630   0.802 -0.2419  0.4480 -0.0813
   57MOL     C823640   3.220   4.759   0.823  0.3272  0.4154  0.1699
   57MOL     C923641   3.358   4.777   0.851 -1.4528 -0.1958 -0.1041
   57MOL    C1023642   3.444   4.669   0.861 -0.0703  0.0599  0.3399
   57MOL    C1123643   3.679   4.077   0.988 -0.0620 -0.3578  0.0220
   57MOL    H1223644   3.525   4.210   1.050  1.0540 -0.0075  0.5136
   57MOL    H1323645   3.572   4.452   1.027 -1.8706  0.8907 -0.0345
   57MOL    H1423646   3.648   4.494   0.873  0.7186  0.6136  0.8839
   57MOL    H1523647   3.210   4.425   0.814 -0.8788 -0.2831 -0.3321
   57MOL    H1623648   3.070   4.614   0.777  0.0140 -0.7248 -0.3930
   57MOL    H1723649   3.152   4.839   0.799 -2.4848 -1.9400  0.0869
   57MOL    H1823650   3.395   4.879   0.859 -0.5072 -0.5584  0.1725
   57MOL    H1923651   3.548   4.690   0.883  0.2880  0.0973 -1.3022
   57MOL    H2023652   3.763   4.114   1.046 -0.4666  5.2191 -2.5792
   57MOL    H2123653   3.728   4.044   0.896  1.9200 -1.4370  1.4436
   57MOL    H2223654   3.509   4.158   0.881 -0.2102  1.5804  0.6827
   57MOL    C2323655   3.626   3.951   1.062  0.5504 -0.3609 -0.2491
   57MOL    O2423656   3.568   3.997   1.184  0.3176  0.1507 -0.0264
   57MOL    C2523657   3.450   3.926   1.221  0.4080  0.0209  0.1062
   57MOL    O2623658   3.348   3.947   1.133 -0.1971 -0.4843 -0.0534
   57MOL    C2723659   3.284   4.068   1.131 -0.0800 -0.6160  0.1864
   57MOL    C2823660   3.201   4.091   1.021  0.6873  0.4874  0.4320
   57MOL    C2923661   3.128   4.210   1.011 -0.6120 -0.7118 -1.1065
   57MOL    C3023662   3.139   4.310   1.114  1.1579 -0.0927  0.6100
   57MOL    C3123663   3.222   4.284   1.225  0.1091 -0.5057  0.1889
   57MOL    C3223664   3.297   4.167   1.232  0.6955 -0.2579  0.3608
   57MOL    C3323665   3.747   3.849   1.094  0.0151 -0.0208  0.2233
   57MOL    H3423666   3.549   3.909   0.998  0.2420  1.6342 -1.1991
   57MOL    H3523667   3.421   3.954   1.323 -3.1508 -2.4156 -0.1627
   57MOL    H3623668   3.480   3.822   1.230 -0.7563 -0.2576  0.8236
   57MOL    H3723669   3.181   4.023   0.940  0.7155  1.6588 -0.5755
   57MOL    H3823670   3.070   4.236   0.923 -2.1366 -0.1449  0.0302
   57MOL    H3923671   3.087   4.404   1.111  2.7742  0.8751  1.8492
   57MOL    H4023672   3.225   4.365   1.297 -3.9591  0.6976 -0.8559
   57MOL    H4123673   3.364   4.161   1.316 -0.8493  1.2930  1.7555
   57MOL    H4223674   3.715   3.784   1.175 -1.9305  1.4779  0.7025
   57MOL    H4323675   3.825   3.916   1.131  1.9796 -2.0182 -0.2328
   57MOL    C4423676   3.809   3.769   0.975  0.6650  0.4995  0.2866
   57MOL    O4523677   3.748   3.640   0.983 -1.1302 -0.4505  0.1003
   57MOL    C4623678   3.761   3.551   0.875  0.8431 -0.7056 -0.2715
   57MOL    O4723679   3.656   3.454   0.885  0.0485 -0.1711  0.1642
   57MOL    C4823680   3.524   3.492   0.890  0.9421  0.5999 -0.3920
   57MOL    C4923681   3.471   3.621   0.885  0.5492 -0.7886 -0.3513
   57MOL    C5023682   3.332   3.642   0.892  0.2934 -0.4935 -0.1805
   57MOL    C5123683   3.245   3.541   0.926  0.2174 -0.5801  0.2075
   57MOL    C5223684   3.302   3.407   0.939 -0.2007  0.4128 -0.0039
   57MOL    C5323685   3.440   3.385   0.915 -0.5971 -0.6291 -0.4629
   57MOL    C5423686   3.963   3.748   0.985 -0.4097  0.4724  0.2184
   57MOL    H5523687   3.774   3.807   0.879 -0.6043 -2.3481 -0.4124
   57MOL    H5623688   3.859   3.505   0.885  1.3758  0.5445  0.3294
   57MOL    H5723689   3.745   3.605   0.782 -0.2427  0.1301  0.3760
   57MOL    H5823690   3.537   3.704   0.870 -0.2322  0.3493  2.2016
   57MOL    H5923691   3.292   3.742   0.890  0.2421 -0.5249 -0.7178
   57MOL    H6023692   3.140   3.564   0.934  0.5626  1.5240 -1.1212
   57MOL    H6123693   3.241   3.322   0.965  1.4524 -1.1522 -1.0437
   57MOL    H6223694   3.494   3.292   0.927  0.1027 -0.3503 -1.4185
   57MOL    H6323695   3.969   3.726   1.092  1.6676  0.3760  0.1044
   57MOL    H6423696   3.991   3.663   0.923  0.4384  0.6796  0.3092
   57MOL    C6523697   4.059   3.869   0.952 -0.0934 -0.1663  0.1296
   57MOL    O6623698   4.025   3.986   1.030 -0.1396  0.8058  0.6667
   57MOL    C6723699   4.079   4.107   0.986 -0.3472  0.3356  0.2162
   57MOL    O6823700   4.031   4.140   0.864 -0.4465 -0.1882 -0.1642
   57MOL    C6923701   4.023   4.274   0.823  0.3295 -0.5861  0.1500
   57MOL    C7023702   3.928   4.304   0.730  0.1086 -0.3561  0.6551
   57MOL    C7123703   3.900   4.438   0.700 -0.4884 -0.5993  0.2183
   57MOL    C7223704   3.967   4.542   0.763  0.0420  0.2233 -0.1922
   57MOL    C7323705   4.062   4.510   0.861  0.2090 -0.8931 -0.2425
   57MOL    C7423706   4.096   4.380   0.885 -0.3126 -0.6308  0.1933
   57MOL    C7523707   4.213   3.830   0.974  0.1076  0.1146 -0.6382
   57MOL    H7623708   4.044   3.896   0.847  1.0901 -1.8077 -0.4710
   57MOL    H7723709   4.188   4.102   0.986 -0.4183 -1.9017  2.0483
   57MOL    H7823710   4.055   4.185   1.058  1.8608  0.7090  0.5821
   57MOL    H7923711   3.877   4.224   0.678 -0.6359  0.8893 -0.5468
   57MOL    H8023712   3.826   4.462   0.625 -0.2696 -0.0254  0.1834
   57MOL    H8123713   3.938   4.643   0.738  3.2512  0.9960 -0.9855
   57MOL    H8223714   4.100   4.584   0.929 -0.7300 -0.3154 -0.3274
   57MOL    H8323715   4.168   4.362   0.964 -3.0876 -1.7486  2.5457
   57MOL    H8423716   4.267   3.921   0.947  0.1834 -0.6406 -3.1938
   57MOL    H8523717   4.235   3.821   1.080  2.4077 -1.3006 -1.2068
   57MOL    C8623718   4.267   3.719   0.879 -0.2038 -0.5286 -0.2413
   57MOL    O8723719   4.388   3.761   0.818  0.5273  0.2412 -0.2427
   57MOL    C8823720   4.367   3.827   0.697  0.5501  0.8378  0.1171
   57MOL    O8923721   4.338   3.731   0.598  0.0945  0.6643  0.3218
   57MOL    C9023722   4.314   3.771   0.469 -0.5409  0.0924 -0.2881
   57MOL    C9123723   4.329   3.670   0.377  0.4290  0.3724 -0.4922
   57MOL    C9223724   4.324   3.694   0.242  1.2518  0.1374  0.0714
   57MOL    C9323725   4.292   3.824   0.198  0.0568  0.0688  0.2078
   57MOL    C9423726   4.267   3.929   0.286  0.2264  0.0167 -0.9381
   57MOL    C9523727   4.287   3.902   0.424 -0.5591  0.1676  0.0119
   57MOL    C9623728   4.274   3.589   0.959 -0.4577  0.1692  0.0866
   57MOL    H9723729   4.193   3.702   0.801  2.1067 -1.8420 -2.1828
   57MOL    H9823730   4.455   3.892   0.696  1.9809 -1.0502  0.9769
   57MOL    H9923731   4.285   3.898   0.712 -1.2001 -1.4016  1.4738
   57MOL   H10023732   4.352   3.568   0.406 -0.5631 -0.0758 -1.2571
   57MOL   H10123733   4.345   3.606   0.182  1.1257 -0.8007  1.3974
   57MOL   H10223734   4.289   3.843   0.092  0.7427 -0.7038  0.0410
   57MOL   H10323735   4.243   4.030   0.258 -0.0765  0.1706 -0.1217
   57MOL   H10423736   4.276   3.982   0.495  1.9267  1.6447 -1.1957
   57MOL   H10523737   4.354   3.601   1.032 -1.9627  3.4413  1.3040
   57MOL   H10623738   4.187   3.566   1.020  0.7693 -2.2271  0.9758
   57MOL   C10723739   4.297   3.453   0.877 -0.2158  0.2273 -0.1938
   57MOL   O10823740   4.308   3.345   0.975 -0.0273  0.0340  0.7084
   57MOL   C10923741   4.435   3.324   1.022 -0.8277  0.0734 -0.2243
   57MOL   O11023742   4.488   3.427   1.101 -0.2377  0.1295 -0.0130
   57MOL   C11123743   4.520   3.397   1.234  0.4698  0.2209  0.2000
   57MOL   C11223744   4.526   3.270   1.300 -0.6687  0.7737  0.6266
   57MOL   C11323745   4.539   3.270   1.440  1.0369 -0.2228 -0.0500
   57MOL   C11423746   4.559   3.389   1.512  0.0738  0.1754 -0.5856
   57MOL   C11523747   4.567   3.510   1.446  0.6866  0.2816  0.3512
   57MOL   C11623748   4.538   3.507   1.309  0.1343 -1.0853 -0.2397
   57MOL   C11723749   4.184   3.424   0.777  0.5648  0.3508 -0.7544
   57MOL   H11823750   4.393   3.467   0.827  0.4576  2.2813  1.5419
   57MOL   H11923751   4.492   3.306   0.930 -0.6797 -0.7554  0.0242
   57MOL   H12023752   4.424   3.227   1.070 -0.8859 -0.5018 -1.3620
   57MOL   H12123753   4.503   3.175   1.254  0.8655  0.3724  0.6453
   57MOL   H12223754   4.530   3.177   1.493  2.7031  0.4779  1.5140
   57MOL   H12323755   4.576   3.383   1.618 -1.4137  0.2547 -0.3303
   57MOL   H12423756   4.586   3.607   1.491  1.1271  0.4701 -0.2344
   57MOL   H12523757   4.526   3.605   1.265 -0.0598  0.3651  2.9097
   57MOL   H12623758   4.152   3.512   0.721  0.1409 -0.3550 -1.6334
   57MOL   H12723759   4.102   3.413   0.847  0.5058 -1.3933 -1.0790
   57MOL   C12823760   4.208   3.299   0.686  0.1351  0.2365  0.5986
   57MOL   O12923761   4.307   3.350   0.594  0.0336  0.3129  0.0379
   57MOL   C13023762   4.399   3.255   0.550 -0.7578 -0.0338  0.2459
   57MOL   O13123763   4.493   3.232   0.644 -0.2195 -0.5208  0.7040
   57MOL   C13223764   4.590   3.333   0.655 -0.6067  0.2790  0.3471
   57MOL   C13323765   4.589   3.465   0.613 -0.3534  0.3906 -0.6533
   57MOL   C13423766   4.691   3.549   0.648 -0.8264 -0.3448 -0.0385
   57MOL   C13523767   4.805   3.514   0.718  0.6008 -0.1781 -0.6486
   57MOL   C13623768   4.808   3.381   0.768  0.0190  0.0867  0.0226
   57MOL   C13723769   4.702   3.293   0.735 -0.1345  0.4150  0.2491
   57MOL   C13823770   4.080   3.255   0.616  0.0991 -0.2952 -0.1497
   57MOL   H13923771   4.259   3.219   0.739  0.6384  0.1413 -0.0260
   57MOL   H14023772   4.442   3.295   0.459  1.0142 -0.6857  0.7875
   57MOL   H14123773   4.347   3.166   0.514 -1.4365  0.3172  0.3345
   57MOL   H14223774   4.504   3.502   0.557 -0.9383 -0.0933 -0.0917
   57MOL   H14323775   4.684   3.653   0.617 -3.9410 -0.0202  1.4477
   57MOL   H14423776   4.879   3.588   0.745 -0.3929  0.9792 -1.0129
   57MOL   H14523777   4.891   3.339   0.822 -1.7655 -3.7288 -0.0890
   57MOL   H14623778   4.697   3.195   0.780 -2.2918  0.6180  0.5183
   57MOL   H14723779   4.049   3.330   0.543  0.6116  0.3717  0.3109
   57MOL   H14823780   4.109   3.167   0.558 -0.4945 -1.0697  0.7200
   57MOL   C14923781   3.973   3.209   0.710 -0.0259  0.4326  0.2370
   57MOL   O15023782   3.860   3.165   0.626  0.1195 -0.6189 -0.1889
   57MOL   C15123783   3.740   3.224   0.666  0.3081 -0.2291 -0.0608
   57MOL   O15223784   3.644   3.180   0.574 -1.0854 -0.1415 -0.3360
   57MOL   C15323785   3.622   3.047   0.565 -0.3198 -0.1274  0.0514
   57MOL   C15423786   3.680   2.945   0.648  0.7455 -0.9504 -0.0697
   57MOL   C15523787   3.651   2.808   0.621 -0.5244  0.5470  0.4692
   57MOL   C15623788   3.577   2.766   0.513 -0.6831  0.5777  0.4992
   57MOL   C15723789   3.500   2.860   0.444  0.4144 -1.0188 -0.2847
   57MOL   C15823790   3.523   2.998   0.477 -0.5202 -0.0880 -0.0746
   57MOL   C15923791   4.016   3.083   0.801 -0.4907 -0.4190  0.2436
   57MOL   H16023792   3.942   3.291   0.776  1.8890  1.1626  0.2678
   57MOL   H16123793   3.701   3.202   0.766  3.0102 -2.1701  0.6461
   57MOL   H16223794   3.739   3.332   0.658 -0.5508 -0.2372 -0.1024
   57MOL   H16323795   3.747   2.966   0.730 -0.4622  0.4903  0.5740
   57MOL   H16423796   3.698   2.732   0.681 -0.4949 -0.9962 -1.5049
   57MOL   H16523797   3.567   2.660   0.491 -3.1941  0.3336  2.5095
   57MOL   H16623798   3.420   2.832   0.376 -1.2991  2.2008  0.3393
   57MOL   H16723799   3.463   3.067   0.421 -0.6553 -0.4630 -0.3894
   57MOL   H16823800   4.125   3.083   0.810 -0.2638  1.5079 -1.8806
   57MOL   H16923801   3.986   3.002   0.735 -2.0722 -0.3148  0.8245
   57MOL   C17023802   3.951   3.073   0.936  0.2679 -0.2975  0.7830
   57MOL   O17123803   3.970   2.941   0.987  0.5108 -0.0700  0.1591
   57MOL   C17223804   3.857   2.872   1.026 -0.0396  0.1134  0.1250
   57MOL   O17323805   3.881   2.731   1.017  0.8184  0.4149 -0.6848
   57MOL   C17423806   3.949   2.666   1.120 -0.7522  0.8770  0.0063
   57MOL   C17523807   3.957   2.523   1.117 -0.8399  0.5943  0.3122
   57MOL   C17623808   4.036   2.459   1.209 -0.2083  0.3386  0.1621
   57MOL   C17723809   4.106   2.534   1.311  0.1463  0.4409  0.6451
   57MOL   C17823810   4.105   2.674   1.312 -0.3742  0.5093  0.5729
   57MOL   C17923811   4.029   2.739   1.214 -0.7116  0.4756  0.3319
   57MOL   C18023812   4.017   3.169   1.039 -0.0183 -0.0029  0.3543
   57MOL   H18123813   3.845   3.090   0.925 -0.1009 -1.0810  2.7977
   57MOL   H18223814   3.772   2.898   0.962 -0.4446  1.2890  1.1254
   57MOL   H18323815   3.831   2.905   1.126 -2.2916  0.1607 -0.4418
   57MOL   H18423816   3.907   2.464   1.042 -1.0582 -1.3986  1.9730
   57MOL   H18523817   4.039   2.352   1.191 -1.5571  0.2518  0.4409
   57MOL   H18623818   4.152   2.478   1.391  2.2806  1.1734 -0.0299
   57MOL   H18723819   4.171   2.721   1.383 -0.7248  1.8101  0.0459
   57MOL   H18823820   4.032   2.846   1.210  1.1909  0.3679 -1.8473
   57MOL   H18923821   4.106   3.123   1.081 -0.8369  0.5552  2.7543
   57MOL   H19023822   4.063   3.256   0.993  0.6285 -0.9323 -0.7957
   57MOL   C19123823   3.924   3.210   1.147  0.5265 -0.2963 -0.3095
   57MOL   O19223824   3.808   3.261   1.083  0.5758 -0.4167  0.4082
   57MOL   C19323825   3.682   3.209   1.125 -0.2489 -0.2927  1.1228
   57MOL   O19423826   3.645   3.096   1.050  0.3473 -0.2299 -0.2578
   57MOL   C19523827   3.509   3.071   1.049 -0.2036 -0.2708  0.4566
   57MOL   C19623828   3.423   3.113   1.151  0.0461  0.0555 -0.6282
   57MOL   C19723829   3.284   3.092   1.130 -0.3722  0.8000  0.1294
   57MOL   C19823830   3.240   3.008   1.033  0.0173 -0.3964 -0.0299
   57MOL   C19923831   3.328   2.954   0.932 -0.3418 -0.0595 -0.3069
   57MOL   C20023832   3.464   2.984   0.940  0.3043 -0.2638 -1.6228
   57MOL   C20123833   3.976   3.321   1.234  0.2664  0.5384  0.2242
   57MOL   H20223834   3.897   3.128   1.214 -1.1916  1.1513  0.8102
   57MOL   H20323835   3.613   3.288   1.098 -1.0871 -1.2872  0.3308
   57MOL   H20423836   3.684   3.187   1.232  1.1116  0.0315  1.1752
   57MOL   H20523837   3.451   3.166   1.240 -0.3159  0.5785 -0.8212
   57MOL   H20623838   3.219   3.135   1.205 -1.5534  0.5369 -0.7280
   57MOL   H20723839   3.135   2.985   1.028 -0.0024 -0.1749 -0.7252
   57MOL   H20823840   3.280   2.890   0.860  0.6642  0.1170 -1.1460
   57MOL   H20923841   3.541   2.957   0.869  2.1892 -1.1267  0.6568
   57MOL   H21023842   3.983   3.403   1.163  1.9253 -2.1968 -2.8813
   57MOL   H21123843   3.900   3.341   1.310  1.0540 -1.5682  1.6337
   57MOL   C21223844   4.111   3.298   1.308 -0.9060 -0.3004 -0.3499
   57MOL   O21323845   4.124   3.390   1.421  0.8818 -0.3058  0.3933
   57MOL   C21423846   4.180   3.516   1.394 -0.5673 -0.2673 -0.6084
   57MOL   O21523847   4.088   3.615   1.363 -0.0664  0.4502 -0.2099
   57MOL   C21623848   4.131   3.746   1.351 -0.7083  0.0852  0.5193
   57MOL   C21723849   4.031   3.849   1.369 -0.0201  0.1242  0.0863
   57MOL   C21823850   4.073   3.985   1.356 -0.3461  0.3617  0.7831
   57MOL   C21923851   4.207   4.019   1.338  0.7257 -0.3947 -0.3209
   57MOL   C22023852   4.304   3.917   1.335  0.2735 -0.6372 -0.3850
   57MOL   C22123853   4.269   3.782   1.325  0.0489  0.6271  0.2451
   57MOL   C22223854   4.130   3.163   1.364  0.3533  0.7954 -0.4038
   57MOL   H22323855   4.189   3.304   1.231 -2.0477 -0.9130 -1.5636
   57MOL   H22423856   4.249   3.506   1.310  1.2098 -1.2185  0.9336
   57MOL   H22523857   4.240   3.549   1.479  1.8578 -4.6371 -0.4710
   57MOL   H22623858   3.925   3.835   1.387 -0.1148 -1.2137 -1.4406
   57MOL   H22723859   3.997   4.062   1.349  0.0806  0.6363 -1.2375
   57MOL   H22823860   4.224   4.126   1.336 -1.6762  0.0315 -0.1475
   57MOL   H22923861   4.409   3.943   1.328  0.9267 -3.3416 -1.4400
   57MOL   H23023862   4.354   3.716   1.311  0.0628  0.5305  0.7955
   57MOL   H23123863   4.135   3.088   1.286 -1.9554  1.5060 -1.2716
   57MOL   H23223864   4.227   3.162   1.415 -0.4275 -2.9579  1.1981
   57MOL   C23323865   4.021   3.117   1.470  0.5665  0.1774  0.5270
   57MOL   O23423866   4.039   2.980   1.491  0.5736  0.7320 -0.1212
   57MOL   C23523867   3.928   2.902   1.510  0.1252  0.0825 -0.1273
   57MOL   O23623868   3.850   2.911   1.396 -0.3449 -0.1224  0.4760
   57MOL   C23723869   3.726   2.843   1.399  0.2565  0.0553  0.2789
   57MOL   C23823870   3.624   2.901   1.321  0.1355  0.6192  0.5973
   57MOL   C23923871   3.498   2.828   1.317  0.2037  0.0320 -0.2072
   57MOL   C24023872   3.474   2.706   1.391  0.1031 -0.8985 -0.0931
   57MOL   C24123873   3.579   2.660   1.471  0.3985 -0.1814 -0.2651
   57MOL   C24223874   3.706   2.725   1.469  0.4430 -0.7744 -0.3699
   57MOL   C24323875   4.025   3.183   1.608  0.3658 -0.4933 -0.4076
   57MOL   H24423876   3.929   3.146   1.419  0.2520 -1.2051  0.2971
   57MOL   H24523877   3.878   2.936   1.601  2.8072  0.3347  1.3158
   57MOL   H24623878   3.963   2.800   1.527 -1.8705 -0.5481  0.2957
   57MOL   H24723879   3.636   2.988   1.259 -3.1745 -1.0808 -2.5875
   57MOL   H24823880   3.423   2.852   1.243  1.2264  0.8518 -0.9758
   57MOL   H24923881   3.383   2.649   1.383 -0.8301  0.6013 -0.3215
   57MOL   H25023882   3.557   2.566   1.519 -0.0610  0.3177  0.5029
   57MOL   H25123883   3.791   2.675   1.512  0.2548  0.8146  1.9306
   57MOL   H25223884   4.039   3.110   1.688 -0.8878  0.0104  0.2871
   57MOL   H25323885   4.111   3.250   1.609 -0.9029  1.3411 -4.5411
   57MOL   C25423886   3.902   3.279   1.640 -0.2565 -0.6380  0.1343
   57MOL   O25523887   3.783   3.197   1.627  0.8444 -0.0335 -0.3995
   57MOL   C25623888   3.668   3.269   1.608  0.5044 -0.9954  0.1873
   57MOL   O25723889   3.676   3.332   1.483  0.3053 -0.5722 -0.0413
   57MOL   C25823890   3.565   3.394   1.437  0.0380  0.5476  0.7602
   57MOL   C25923891   3.590   3.471   1.317  0.5476  0.3483  0.3151
   57MOL   C26023892   3.484   3.535   1.260 -0.1716  0.0893 -0.2893
   57MOL   C26123893   3.356   3.532   1.314  0.0257 -0.0304  0.3201
   57MOL   C26223894   3.331   3.453   1.431 -0.0399 -1.1056 -0.2289
   57MOL   C26323895   3.435   3.391   1.488  0.1234  0.5355 -1.0413
   57MOL   C26423896   3.910   3.359   1.779 -0.0597 -0.6980 -0.1042
   57MOL   H26523897   3.909   3.353   1.560  1.6539 -1.2401 -0.2690
   57MOL   H26623898   3.652   3.348   1.681 -0.5282 -0.4713 -0.5865
   57MOL   H26723899   3.588   3.196   1.606 -0.0028 -0.4064 -1.2300
   57MOL   H26823900   3.691   3.483   1.280  0.4575  0.9749  0.2696
   57MOL   H26923901   3.506   3.599   1.176  3.0651  1.1495  1.2581
   57MOL   H27023902   3.273   3.589   1.274  0.8622  0.0051 -1.4046
   57MOL   H27123903   3.235   3.454   1.480  0.9755 -0.4222  1.8153
   57MOL   H27223904   3.413   3.343   1.582 -3.2674  2.4115 -0.7629
   57MOL   H27323905   3.828   3.431   1.780 -1.5643 -2.3674  0.1847
   57MOL   H27423906   3.891   3.285   1.857  0.6374 -0.1763  0.5562
   57MOL   C27523907   4.045   3.433   1.810  0.0089  0.0833  0.0236
   57MOL   O27623908   3.993   3.559   1.864 -0.1366 -0.4201  0.1194
   57MOL   C27723909   3.988   3.666   1.777  0.6460  0.8910 -0.4323
   57MOL   O27823910   4.106   3.691   1.712 -0.4106  0.6679  0.6348
   57MOL   C27923911   4.214   3.745   1.784 -0.0971  0.0511  0.4197
   57MOL   C28023912   4.220   3.750   1.925 -0.3907 -0.4466 -0.5932
   57MOL   C28123913   4.323   3.833   1.982 -0.2218  0.2723  0.6850
   57MOL   C28223914   4.431   3.879   1.905  0.2851  0.4225  0.5501
   57MOL   C28323915   4.425   3.852   1.766 -0.9825 -0.1494 -0.0813
   57MOL   C28423916   4.318   3.798   1.704 -0.6392 -0.8545 -0.6548
   57MOL   C28523917   4.132   3.379   1.932  0.3206  0.5783 -0.7869
   57MOL   H28623918   4.099   3.436   1.716 -1.4899  2.3885 -0.8187
   57MOL   H28723919   3.962   3.755   1.834 -1.1370 -0.1322  0.4210
   57MOL   H28823920   3.913   3.640   1.701  0.5033 -1.5847  0.4877
   57MOL   H28923921   4.143   3.704   1.985  0.7061 -1.4577  0.0694
   57MOL   H29023922   4.332   3.847   2.089 -0.4896  3.1026  0.3935
   57MOL   H29123923   4.508   3.938   1.952 -1.1057  0.7071  2.5482
   57MOL   H29223924   4.498   3.898   1.702  0.6009 -3.5483 -0.8460
   57MOL   H29323925   4.310   3.793   1.596  0.7061 -0.6165 -0.7679
   57MOL   H29423926   4.064   3.356   2.015 -1.3499 -1.4323 -2.6393
   57MOL   H29523927   4.188   3.462   1.974 -0.5722  1.1761 -0.7744
   57MOL   C29623928   4.225   3.259   1.915 -0.4058  0.2881  0.3381
   57MOL   O29723929   4.154   3.132   1.883 -0.0673  0.3282 -0.0180
   57MOL   C29823930   4.168   3.028   1.979 -0.0074  0.0357 -0.5911
   57MOL   O29923931   4.144   2.900   1.922 -0.6318  0.3165 -0.3335
   57MOL   C30023932   4.013   2.867   1.891  0.1577  0.5885 -0.0695
   57MOL   C30123933   3.911   2.964   1.871 -1.3477  0.6966  0.3667
   57MOL   C30223934   3.784   2.924   1.825 -0.9687 -0.2344  0.2832
   57MOL   C30323935   3.754   2.794   1.788  0.7334 -0.0865  0.0484
   57MOL   C30423936   3.860   2.698   1.804  0.4683  0.2708 -0.1722
   57MOL   C30523937   3.987   2.730   1.858 -0.2702 -0.1402 -0.1646
   57MOL   C30623938   4.349   3.279   1.824  0.2035 -0.3268 -0.3370
   57MOL   H30723939   4.268   3.257   2.015  0.9895 -0.1631 -0.2614
   57MOL   H30823940   4.119   3.044   2.075  2.0293 -0.6154  0.5791
   57MOL   H30923941   4.264   3.028   2.029  0.4458  2.0605 -1.4036
   57MOL   H31023942   3.919   3.071   1.889 -1.8060  0.2831  3.3782
   57MOL   H31123943   3.718   3.009   1.809  2.0104  2.2299  0.6367
   57MOL   H31223944   3.656   2.768   1.751  1.6774 -1.7338 -1.3626
   57MOL   H31323945   3.839   2.596   1.773  0.3209 -0.5734  2.5622
   57MOL   H31423946   4.063   2.653   1.867  0.5386  0.5168 -1.2959
   57MOL   H31523947   4.377   3.382   1.847  1.5582 -0.4747 -1.2597
   57MOL   H31623948   4.316   3.274   1.720  1.8423 -0.7086 -0.8517
   57MOL   C31723949   4.467   3.183   1.845 -0.4938  0.1544 -0.0488
   57MOL   O31823950   4.430   3.054   1.856 -0.9502  0.2311 -0.1514
   57MOL   C31923951   4.407   2.979   1.740  0.5442 -0.1109  0.4487
   57MOL   O32023952   4.526   2.931   1.680  0.2781  0.3133  0.4091
   57MOL   C32123953   4.525   2.918   1.539  0.2231 -0.6489  0.2518
   57MOL   C32223954   4.649   2.933   1.469 -0.3979 -0.2278 -0.5058
   57MOL   C32323955   4.659   2.893   1.333  1.3597 -0.6049 -0.2551
   57MOL   C32423956   4.534   2.866   1.259 -0.1035  0.0882 -0.4903
   57MOL   C32523957   4.410   2.872   1.319 -0.3796 -0.9415  0.2710
   57MOL   C32623958   4.405   2.890   1.461 -0.1991  0.2036  0.4740
   57MOL   C32723959   4.557   3.198   1.971  0.3581 -0.2959  0.2940
   57MOL   H32823960   4.532   3.207   1.761  0.3029 -0.1306  0.4791
   57MOL   H32923961   4.340   3.032   1.672 -0.3856  0.3945  1.7454
   57MOL   H33023962   4.350   2.897   1.783 -2.0489  0.5731 -1.5030
   57MOL   H33123963   4.738   2.950   1.528 -0.5287 -0.3355 -0.2770
   57MOL   H33223964   4.758   2.874   1.294  1.4616  0.2897 -0.4532
   57MOL   H33323965   4.546   2.829   1.159  0.8176  0.3150 -0.4728
   57MOL   H33423966   4.321   2.857   1.260 -0.6528 -1.4258  0.8043
   57MOL   H33523967   4.310   2.872   1.510  0.7913 -2.7495  1.4404
   57MOL   H33623968   4.560   3.301   2.005 -1.0899 -0.0737 -0.2304
   57MOL   H33723969   4.498   3.158   2.054  1.8864 -0.8516  1.1423
   57MOL   C33823970   4.693   3.124   1.968 -0.2854 -0.9805 -0.3413
   57MOL   O33923971   4.796   3.198   1.903  0.3957 -0.2610 -0.3022
   57MOL   C34023972   4.841   3.168   1.779  0.5129  0.3685  0.5237
   57MOL   O34123973   4.897   3.039   1.766  0.3424 -0.6740 -0.1629
   57MOL   C34223974   5.023   3.021   1.827  0.4607 -0.0161 -0.7504
   57MOL   C34323975   5.138   3.070   1.766  0.2380  0.3346 -0.6217
   57MOL   C34423976   5.261   3.058   1.829  0.2541  0.6147 -0.5120
   57MOL   C34523977   5.272   2.979   1.942  0.1981  0.1977 -0.2821
   57MOL   C34623978   5.160   2.913   1.993  0.3746  0.1274 -0.0011
   57MOL   C34723979   5.036   2.936   1.939 -0.7411  0.1436  0.8707
   57MOL   C34823980   4.736   3.073   2.113 -0.1611 -0.0153 -0.4478
   57MOL   H34923981   4.687   3.027   1.919  0.5168 -0.2228 -1.9702
   57MOL   H35023982   4.908   3.247   1.745  1.6227 -0.8842 -0.2276
   57MOL   H35123983   4.756   3.188   1.714 -0.2005 -0.4905  1.1710
   57MOL   H35223984   5.140   3.112   1.667  0.0152 -1.7490 -1.5312
   57MOL   H35323985   5.351   3.099   1.785  0.2072 -0.6028 -1.7769
   57MOL   H35423986   5.368   2.960   1.988  0.3520  0.5597 -0.4575
   57MOL   H35523987   5.159   2.850   2.081  0.8498 -1.4409 -1.0949
   57MOL   H35623988   4.954   2.884   1.986 -1.5542  0.4369 -0.1910
   57MOL   H35723989   4.719   3.155   2.184 -1.1104  1.5491 -2.4200
   57MOL   H35823990   4.842   3.050   2.107 -0.2447 -0.3236 -0.7891
   57MOL   C35923991   4.644   2.958   2.165 -0.1104 -0.4127 -0.0370
   57MOL   O36023992   4.694   2.921   2.296  0.4653 -0.0640 -0.4725
   57MOL   C36123993   4.641   3.006   2.392  0.1521 -0.4556 -0.5505
   57MOL   O36223994   4.726   3.117   2.416 -0.5350  0.2794 -0.0056
   57MOL   C36323995   4.846   3.094   2.487 -1.0589 -0.4411  0.0648
   57MOL   C36423996   4.905   3.210   2.548  1.0209  0.0930  0.4893
   57MOL   C36523997   5.014   3.193   2.640  0.0359 -0.0302 -0.0725
   57MOL   C36623998   5.073   3.072   2.660  0.4582  0.2828  0.7408
   57MOL   C36723999   5.017   2.955   2.596 -0.2185  0.4317 -0.4932
   57MOL   C36824000   4.900   2.968   2.516  0.5067 -0.4189  0.1451
   57MOL   C36924001   4.631   2.833   2.075 -0.4750  0.1148  0.0513
   57MOL   H37024002   4.542   2.998   2.168  0.7978  2.1632 -2.0159
   57MOL   H37124003   4.622   2.945   2.480  1.1216  0.1746  0.1040
   57MOL   H37224004   4.546   3.050   2.360  0.0005 -0.6532 -0.3707
   57MOL   H37324005   4.857   3.303   2.522 -0.5258 -1.1054 -1.0929
   57MOL   H37424006   5.055   3.279   2.690  1.9489  0.0977 -1.8118
   57MOL   H37524007   5.163   3.064   2.720  0.8589  0.1275  0.1196
   57MOL   H37624008   5.061   2.857   2.603 -0.7216  0.1414 -1.3936
   57MOL   H37724009   4.857   2.875   2.482 -2.3876  1.4048 -1.4369
   57MOL   H37824010   4.719   2.803   2.020  1.0621  1.2116  1.8581
   57MOL   H37924011   4.558   2.852   1.996 -0.5766 -0.7840 -0.0799
   57MOL   C38024012   4.570   2.710   2.146  0.7123  0.0825  0.6884
   57MOL   O38124013   4.456   2.760   2.214  0.7552 -0.3125  0.7634
   57MOL   C38224014   4.331   2.714   2.158 -0.1784 -0.0965  0.5681
   57MOL   O38324015   4.304   2.582   2.188  0.4719  0.5153 -0.1708
   57MOL   C38424016   4.265   2.556   2.319  0.4067  0.9669  0.5618
   57MOL   C38524017   4.278   2.645   2.427 -0.1571 -0.0642  0.0875
   57MOL   C38624018   4.230   2.621   2.557 -0.1487 -0.0532  0.5291
   57MOL   C38724019   4.177   2.494   2.586  0.5776 -0.7128  0.5185
   57MOL   C38824020   4.159   2.397   2.482 -0.0802 -0.7407  0.0006
   57MOL   C38924021   4.199   2.433   2.350 -0.4203  0.5341  0.0779
   57MOL   C39024022   4.659   2.634   2.239 -0.1671  0.1096  0.2043
   57MOL   H39124023   4.538   2.639   2.070 -1.0948  0.4753  1.0550
   57MOL   H39224024   4.250   2.783   2.179 -2.5668 -1.6255 -3.1596
   57MOL   H39324025   4.330   2.717   2.049 -0.4814  1.0707  0.5988
   57MOL   H39424026   4.309   2.746   2.405  2.6265 -0.8663  0.0654
   57MOL   H39524027   4.217   2.700   2.628  4.2306  0.1775  1.2121
   57MOL   H39624028   4.139   2.475   2.685 -1.7939  0.3222 -0.1530
   57MOL   H39724029   4.103   2.309   2.509 -0.3443 -0.7376 -0.5183
   57MOL   H39824030   4.183   2.366   2.266 -0.6281 -0.5546  0.9736
   57MOL   H39924031   4.598   2.604   2.324 -3.1377 -1.3848 -2.3489
   57MOL   H40024032   4.733   2.696   2.291  0.9025 -0.7071 -0.3311
   57MOL   C40124033   4.722   2.507   2.174  0.0695 -0.6707  0.1157
   57MOL   O40224034   4.626   2.399   2.154 -0.5204 -0.2828  0.6227
   57MOL   C40324035   4.561   2.347   2.272 -0.5318  0.5049 -0.2209
   57MOL   O40424036   4.655   2.314   2.359  0.0009 -0.4119 -0.5639
   57MOL   C40524037   4.614   2.268   2.483 -0.2667  0.1882 -0.2944
   57MOL   C40624038   4.710   2.247   2.581  0.5081 -0.1211  0.1173
   57MOL   C40724039   4.673   2.220   2.715  0.1168  0.6076  0.3974
   57MOL   C40824040   4.542   2.190   2.742  0.3885 -0.5825 -0.6594
   57MOL   C40924041   4.443   2.218   2.648  0.1552 -0.7683  0.5263
   57MOL   C41024042   4.479   2.241   2.516  0.1800  0.2437 -0.1523
   57MOL   C41124043   4.796   2.527   2.035 -0.1812 -0.0108 -1.1032
   57MOL   H41224044   4.802   2.477   2.241  1.0993 -0.2363 -0.9052
   57MOL   H41324045   4.491   2.267   2.245 -0.3512 -0.4975  2.1450
   57MOL   H41424046   4.497   2.423   2.316 -0.0534  1.1538 -0.6428
   57MOL   H41524047   4.814   2.255   2.555 -0.3107  1.0253 -3.0995
   57MOL   H41624048   4.752   2.207   2.788  1.3273 -1.0001 -1.1339
   57MOL   H41724049   4.513   2.152   2.839 -1.5023 -1.6341 -1.5985
   57MOL   H41824050   4.340   2.200   2.678  0.8577 -1.3227  2.7078
   57MOL   H41924051   4.401   2.263   2.445 -0.2916  2.6308  1.0256
   57MOL   H42024052   4.844   2.435   2.004 -3.7879 -1.6662 -1.9892
   57MOL   H42124053   4.871   2.605   2.048 -0.0746 -0.4159  1.0065
   57MOL   H42224054   4.727   2.561   1.958  0.0601  1.4424 -0.7091
   58MOL     C124055   2.170   2.959   3.976  0.6074 -0.5161  0.2304
   58MOL     O224056   2.046   2.890   3.962 -0.3557 -0.0984  0.1108
   58MOL     C324057   1.973   2.870   4.083 -0.0988  0.3799  0.4058
   58MOL     O424058   1.999   2.750   4.151  0.0529  0.1830  0.2985
   58MOL     C524059   1.940   2.642   4.093 -0.2666  0.7379  0.5310
   58MOL     C624060   1.955   2.522   4.160 -0.9958  0.6712  0.0691
   58MOL     C724061   1.898   2.401   4.112 -0.5167  0.4157 -0.6058
   58MOL     C824062   1.810   2.407   4.002 -0.0428  0.5938 -0.0911
   58MOL     C924063   1.793   2.528   3.930 -0.2135  0.1826 -0.3859
   58MOL    C1024064   1.856   2.647   3.975  0.0132  0.2083  0.5092
   58MOL    C1124065   2.257   2.929   3.857  0.0920 -0.2920 -0.6012
   58MOL    H1224066   2.142   3.065   3.980  1.2183 -0.4055  2.1578
   58MOL    H1324067   1.999   2.953   4.148  2.0210  0.2323 -0.2223
   58MOL    H1424068   1.865   2.876   4.066 -0.5047 -2.6016  1.5425
   58MOL    H1524069   2.025   2.507   4.241  1.6586 -0.6506 -2.3560
   58MOL    H1624070   1.922   2.311   4.167 -2.8447  1.4038  2.1222
   58MOL    H1724071   1.768   2.320   3.955 -1.4574  0.0019  2.2073
   58MOL    H1824072   1.746   2.535   3.833  0.2694  0.4918 -0.6034
   58MOL    H1924073   1.852   2.741   3.923 -1.2297  0.0144  0.2483
   58MOL    H2024074   2.193   2.947   3.771  0.9445  0.5144 -1.0784
   58MOL    H2124075   2.281   2.823   3.867 -0.3739 -0.3480 -0.0367
   58MOL    H2224076   2.215   2.931   4.072 -0.4265  0.6580  1.0709
   58MOL    C2324077   2.382   3.024   3.849 -0.0721  0.7995 -0.0470
   58MOL    O2424078   2.335   3.158   3.843  0.2930  0.5548 -0.0273
   58MOL    C2524079   2.382   3.247   3.942 -0.1409 -0.1578  0.4591
   58MOL    O2624080   2.322   3.214   4.061  0.5618 -0.8003 -0.2652
   58MOL    C2724081   2.390   3.254   4.177 -0.1336  0.3949  0.6019
   58MOL    C2824082   2.531   3.277   4.185  0.0343 -0.3681  0.3485
   58MOL    C2924083   2.582   3.325   4.306  0.3906  0.2466  0.1933
   58MOL    C3024084   2.502   3.355   4.415 -0.3771  0.0596  0.3969
   58MOL    C3124085   2.367   3.345   4.402 -0.4160 -0.2582 -0.6266
   58MOL    C3224086   2.305   3.285   4.284 -0.7135  0.5327 -0.8225
   58MOL    C3324087   2.473   2.996   3.722 -0.0957 -0.5509 -0.5137
   58MOL    H3424088   2.440   3.003   3.939  0.7843 -3.4359 -1.4755
   58MOL    H3524089   2.344   3.347   3.920  1.8524  0.8479  1.4177
   58MOL    H3624090   2.491   3.255   3.939 -0.1838  0.3069  0.1428
   58MOL    H3724091   2.605   3.255   4.109  0.3791 -1.2670  0.9365
   58MOL    H3824092   2.688   3.335   4.325 -0.0826  1.8015  2.2331
   58MOL    H3924093   2.548   3.384   4.507  2.6266  2.0669 -1.6686
   58MOL    H4024094   2.305   3.366   4.488 -1.0730  1.3919 -1.4832
   58MOL    H4124095   2.197   3.291   4.280 -0.8655  0.9579  2.3252
   58MOL    H4224096   2.419   3.040   3.638 -0.2487 -0.3181 -0.2928
   58MOL    H4324097   2.488   2.893   3.690  0.5753 -0.6105 -0.0323
   58MOL    C4424098   2.607   3.060   3.738 -0.6899  0.1973 -0.1418
   58MOL    O4524099   2.657   3.067   3.603 -0.1005 -0.1865  0.0550
   58MOL    C4624100   2.645   3.192   3.532 -0.3620 -0.0796 -0.1551
   58MOL    O4724101   2.728   3.292   3.569  0.2285  0.3605 -0.1084
   58MOL    C4824102   2.850   3.309   3.513  0.4584 -0.1705 -0.7147
   58MOL    C4924103   2.923   3.428   3.539  0.1746 -0.1275 -0.2625
   58MOL    C5024104   3.060   3.447   3.505  0.1325  0.8557 -0.2045
   58MOL    C5124105   3.124   3.342   3.432 -0.1037 -0.5900 -0.3277
   58MOL    C5224106   3.056   3.228   3.401 -0.1062  0.0244 -0.0134
   58MOL    C5324107   2.926   3.208   3.455  0.3961 -0.4395 -0.3798
   58MOL    C5424108   2.704   2.972   3.810 -0.3697  0.1937  0.3836
   58MOL    H5524109   2.601   3.160   3.782 -1.1882 -0.3465  1.0311
   58MOL    H5624110   2.539   3.218   3.538 -0.3153 -0.3627  2.3934
   58MOL    H5724111   2.649   3.167   3.426  0.8007  1.0486 -0.3871
   58MOL    H5824112   2.873   3.498   3.604 -2.5475 -1.6363 -0.6461
   58MOL    H5924113   3.113   3.534   3.540  1.3439 -0.7429  2.0936
   58MOL    H6024114   3.230   3.343   3.411  0.1547  2.3768  0.8160
   58MOL    H6124115   3.110   3.147   3.356  0.8709  0.4597  0.3611
   58MOL    H6224116   2.879   3.112   3.441 -1.1914  0.0532  1.3125
   58MOL    H6324117   2.663   2.941   3.907 -4.0416 -0.7875 -1.3902
   58MOL    H6424118   2.720   2.879   3.754 -1.5823 -0.0659  0.4533
   58MOL    C6524119   2.839   3.039   3.847 -0.0695  0.5744 -0.5652
   58MOL    O6624120   2.809   3.147   3.939 -0.2152  0.2686  0.0106
   58MOL    C6724121   2.860   3.276   3.919 -0.2822  0.3432 -0.9581
   58MOL    O6824122   2.999   3.271   3.912 -1.0156 -0.3064 -0.2663
   58MOL    C6924123   3.073   3.395   3.922 -0.2788  0.2310 -0.0171
   58MOL    C7024124   3.007   3.516   3.943  0.1373  0.0322  0.1572
   58MOL    C7124125   3.077   3.640   3.957  0.0556 -0.2381 -0.7147
   58MOL    C7224126   3.218   3.637   3.939 -0.2495  0.6184 -0.1756
   58MOL    C7324127   3.282   3.512   3.913  0.1101  0.1870  0.2911
   58MOL    C7424128   3.212   3.393   3.918  0.3348 -0.6186  0.2966
   58MOL    C7524129   2.935   2.941   3.913  0.0253 -0.5922 -0.0938
   58MOL    H7624130   2.885   3.078   3.756 -1.9885  1.3761 -1.2101
   58MOL    H7724131   2.813   3.328   4.002 -0.0367 -1.5579  0.4015
   58MOL    H7824132   2.830   3.316   3.822  1.1997  0.1804 -1.5076
   58MOL    H7924133   2.900   3.519   3.954 -0.1960 -0.5576 -2.5805
   58MOL    H8024134   3.038   3.740   3.973 -0.8568 -0.4506 -1.5820
   58MOL    H8124135   3.279   3.725   3.943  2.6530 -1.2472 -1.5075
   58MOL    H8224136   3.390   3.505   3.902  0.0352 -2.0527  0.7023
   58MOL    H8324137   3.266   3.301   3.908  4.8139  2.0344 -1.4403
   58MOL    H8424138   2.920   2.937   4.021  0.1406  0.8006 -0.0149
   58MOL    H8524139   2.917   2.835   3.895 -2.0190 -0.8523  3.0758
   58MOL    C8624140   3.085   2.943   3.885  0.3056 -0.4828  0.0831
   58MOL    O8724141   3.146   2.867   3.989 -0.2058  0.3373  0.5337
   58MOL    C8824142   3.268   2.909   4.038  0.5587 -0.6868  0.1916
   58MOL    O8924143   3.370   2.826   4.004 -0.1755 -0.1923  0.2288
   58MOL    C9024144   3.382   2.699   4.062 -0.1008 -0.1926 -0.4615
   58MOL    C9124145   3.470   2.608   4.000 -0.0040  0.1139  0.4935
   58MOL    C9224146   3.499   2.480   4.057  0.2591  0.0152  0.3786
   58MOL    C9324147   3.431   2.445   4.182  0.1764 -0.8395  0.3014
   58MOL    C9424148   3.340   2.536   4.244  0.3373  0.2119  0.5394
   58MOL    C9524149   3.307   2.658   4.172  0.2994  0.0112 -0.6458
   58MOL    C9624150   3.126   2.892   3.747  0.3581 -0.3666  0.2295
   58MOL    H9724151   3.109   3.050   3.881 -1.1232 -0.1334  0.2668
   58MOL    H9824152   3.271   2.917   4.147  2.2541 -1.5771  0.2280
   58MOL    H9924153   3.284   3.012   4.008  1.9343 -0.9082  0.1434
   58MOL   H10024154   3.526   2.619   3.908 -1.7907  0.0937 -0.6232
   58MOL   H10124155   3.554   2.409   3.997  2.2676  2.5834 -0.8848
   58MOL   H10224156   3.453   2.350   4.229  1.4075 -0.3902  0.6421
   58MOL   H10324157   3.282   2.507   4.330 -2.9705  1.4232 -1.1832
   58MOL   H10424158   3.230   2.722   4.213  0.4285  0.7409 -1.5239
   58MOL   H10524159   3.118   2.784   3.737  0.8207 -0.5213  1.4474
   58MOL   H10624160   3.064   2.946   3.675  1.0936  0.2359  0.0396
   58MOL   C10724161   3.272   2.927   3.710 -0.2530  0.0138 -0.4671
   58MOL   O10824162   3.307   2.833   3.605  0.2239 -0.4108  0.0587
   58MOL   C10924163   3.395   2.730   3.644 -0.3399  0.0199  0.5776
   58MOL   O11024164   3.339   2.617   3.700  1.0375  0.4820  0.4592
   58MOL   C11124165   3.276   2.525   3.616  0.1121 -0.7257  0.5291
   58MOL   C11224166   3.236   2.403   3.669  0.2693  0.2849 -0.4128
   58MOL   C11324167   3.182   2.310   3.577  0.5790  0.2248 -0.3301
   58MOL   C11424168   3.173   2.338   3.434 -0.0255  0.6936  0.5219
   58MOL   C11524169   3.210   2.460   3.386  0.3672 -0.2811 -0.4140
   58MOL   C11624170   3.261   2.548   3.475 -0.5664 -0.0543  0.1271
   58MOL   C11724171   3.273   3.063   3.632 -0.8275  0.0096 -0.1879
   58MOL   H11824172   3.349   2.935   3.786  0.1680  0.3940 -0.9346
   58MOL   H11924173   3.477   2.769   3.703 -0.4805  0.5430  0.4349
   58MOL   H12024174   3.445   2.692   3.554  1.2615  0.2267  1.3586
   58MOL   H12124175   3.256   2.369   3.769  1.2925  2.6597  0.2313
   58MOL   H12224176   3.150   2.211   3.603  0.9466 -0.2171 -1.5131
   58MOL   H12324177   3.119   2.275   3.365 -0.4204 -0.5922  1.9793
   58MOL   H12424178   3.200   2.475   3.279 -0.3489 -1.0069 -0.4565
   58MOL   H12524179   3.290   2.642   3.430  1.3668 -0.5040  0.3802
   58MOL   H12624180   3.204   3.133   3.679 -1.4603 -0.6982 -0.0524
   58MOL   H12724181   3.235   3.056   3.530 -1.6858  4.1444 -0.2490
   58MOL   C12824182   3.414   3.135   3.642  0.8032  0.2634  0.0250
   58MOL   O12924183   3.380   3.262   3.581  0.6322 -0.4117 -0.1219
   58MOL   C13024184   3.475   3.357   3.615 -0.0923 -0.4350  0.4438
   58MOL   O13124185   3.446   3.477   3.556 -0.1856 -0.5272  0.0161
   58MOL   C13224186   3.524   3.591   3.586 -0.8449 -0.3179 -1.0560
   58MOL   C13324187   3.471   3.716   3.561  0.3549  0.3360 -0.1609
   58MOL   C13424188   3.541   3.833   3.587  0.0351 -0.1318 -0.3842
   58MOL   C13524189   3.665   3.819   3.652 -0.3173 -0.1716 -0.3104
   58MOL   C13624190   3.724   3.699   3.675 -0.5373  0.2705 -0.1301
   58MOL   C13724191   3.656   3.581   3.640  0.2502 -0.3992 -0.9630
   58MOL   C13824192   3.521   3.055   3.556 -0.0703  0.1022  0.1470
   58MOL   H13924193   3.444   3.147   3.746  2.8365  0.6230 -0.5906
   58MOL   H14024194   3.572   3.322   3.580 -0.5709  0.1219 -1.4842
   58MOL   H14124195   3.473   3.360   3.724 -2.9238  0.4776  0.4003
   58MOL   H14224196   3.373   3.728   3.518  0.1107 -0.0024  0.2976
   58MOL   H14324197   3.499   3.930   3.563 -0.4915 -0.1105  0.6055
   58MOL   H14424198   3.721   3.911   3.663  0.8026 -0.8261 -0.5557
   58MOL   H14524199   3.820   3.690   3.725 -1.4260 -1.4005  1.3483
   58MOL   H14624200   3.705   3.487   3.656 -1.6356 -1.2110  0.1501
   58MOL   H14724201   3.489   2.955   3.526  1.9445 -0.9569  1.3778
   58MOL   H14824202   3.528   3.094   3.454  3.0431  2.2636  1.1126
   58MOL   C14924203   3.659   3.046   3.620  0.4804  0.6367  0.7578
   58MOL   O15024204   3.649   2.973   3.741 -0.2950 -0.2756  0.7489
   58MOL   C15124205   3.728   3.021   3.838  0.3525 -0.6509 -0.9420
   58MOL   O15224206   3.692   3.148   3.880  0.5283  0.0500 -0.1816
   58MOL   C15324207   3.621   3.164   3.995  0.1172 -0.4743 -0.1744
   58MOL   C15424208   3.582   3.295   4.017 -0.4122  0.7051 -0.0162
   58MOL   C15524209   3.509   3.334   4.128  0.2935  0.1857 -0.7988
   58MOL   C15624210   3.476   3.238   4.224 -0.6075  0.0735 -0.0677
   58MOL   C15724211   3.515   3.104   4.200 -0.6090 -0.3544 -1.0937
   58MOL   C15824212   3.593   3.060   4.091  0.2882  0.0421 -0.4506
   58MOL   C15924213   3.765   2.977   3.524 -0.1407 -0.5806 -0.5817
   58MOL   H16024214   3.695   3.147   3.643 -0.8952  1.3292 -0.0611
   58MOL   H16124215   3.722   2.943   3.914 -0.9029 -1.6398 -2.0321
   58MOL   H16224216   3.832   3.015   3.803 -0.1418  0.4307 -2.6302
   58MOL   H16324217   3.606   3.365   3.937 -0.5841 -2.0968 -2.6027
   58MOL   H16424218   3.479   3.437   4.124  0.3461  0.1949 -1.0079
   58MOL   H16524219   3.423   3.266   4.314  0.1903 -0.7414  0.6685
   58MOL   H16624220   3.485   3.035   4.277 -0.9878  1.1368  0.1122
   58MOL   H16724221   3.614   2.954   4.081 -0.8970 -0.3269  0.8014
   58MOL   H16824222   3.724   2.888   3.476 -0.6494 -1.5939  1.6770
   58MOL   H16924223   3.843   2.934   3.588 -0.1501  0.4450  0.1246
   58MOL   C17024224   3.840   3.061   3.427  0.2402  0.1954  0.2683
   58MOL   O17124225   3.967   3.100   3.482  0.4255 -0.0821  0.9649
   58MOL   C17224226   3.987   3.235   3.503  0.2492 -0.4137 -0.7208
   58MOL   O17324227   3.918   3.271   3.616  0.1275  0.6664  0.0950
   58MOL   C17424228   3.970   3.369   3.698 -0.1546  0.3490 -0.2310
   58MOL   C17524229   3.937   3.374   3.835  0.2319  0.5483  0.0737
   58MOL   C17624230   3.988   3.477   3.919  0.3574  0.2240  0.5509
   58MOL   C17724231   4.066   3.576   3.862 -0.4434  0.2543  0.2766
   58MOL   C17824232   4.094   3.570   3.720  0.5436  0.2709  0.1788
   58MOL   C17924233   4.048   3.468   3.642 -0.8586 -0.0499 -0.1146
   58MOL   C18024234   3.862   2.995   3.294 -0.0609 -0.3253 -0.4321
   58MOL   H18124235   3.774   3.145   3.403  0.8017  0.3363 -0.8287
   58MOL   H18224236   3.956   3.292   3.415  1.2704 -1.9651 -2.1224
   58MOL   H18324237   4.093   3.256   3.516 -0.3177  0.0584  3.7361
   58MOL   H18424238   3.872   3.300   3.881 -0.8780  0.5008 -1.5432
   58MOL   H18524239   3.968   3.477   4.025 -0.9990  0.9078  0.3039
   58MOL   H18624240   4.108   3.652   3.926  0.4965 -1.5155  1.8163
   58MOL   H18724241   4.153   3.645   3.668 -0.4069 -0.7855 -2.5329
   58MOL   H18824242   4.072   3.481   3.537 -0.8323  0.3614 -0.0579
   58MOL   H18924243   3.967   2.998   3.264 -0.1215 -0.8215 -0.6933
   58MOL   H19024244   3.845   2.888   3.284 -1.5616 -0.1996  0.6392
   58MOL   C19124245   3.787   3.073   3.183 -0.4627  0.4361  0.1762
   58MOL   O19224246   3.649   3.046   3.213  0.1794  0.7484 -0.1964
   58MOL   C19324247   3.554   3.117   3.144  0.3649 -0.1570 -0.0198
   58MOL   O19424248   3.482   3.024   3.058  0.4099 -0.1290  0.3721
   58MOL   C19524249   3.362   2.972   3.098 -0.3761  0.3877 -0.9664
   58MOL   C19624250   3.270   2.921   3.004  0.4163  0.0279  0.4485
   58MOL   C19724251   3.154   2.847   3.047  0.0233  0.3230 -0.5446
   58MOL   C19824252   3.128   2.839   3.186 -0.2483  0.2754 -0.2452
   58MOL   C19924253   3.208   2.907   3.281  0.3582  0.2367  0.1015
   58MOL   C20024254   3.331   2.966   3.236  0.1593 -0.1254  0.2996
   58MOL   C20124255   3.831   3.012   3.050  0.1299 -0.0021  0.5042
   58MOL   H20224256   3.810   3.179   3.190 -1.6804  0.7633 -0.7255
   58MOL   H20324257   3.586   3.188   3.068 -2.3670  0.8185 -0.3171
   58MOL   H20424258   3.487   3.165   3.215 -0.2524  0.1169 -0.7849
   58MOL   H20524259   3.285   2.937   2.898 -0.5531 -0.5865  0.2154
   58MOL   H20624260   3.086   2.808   2.972 -2.0412  0.3468  1.2734
   58MOL   H20724261   3.042   2.785   3.223 -1.2439  1.1816 -1.2148
   58MOL   H20824262   3.179   2.902   3.385 -1.0155  2.7249 -0.1248
   58MOL   H20924263   3.393   3.002   3.317  0.7892 -1.8646  0.6320
   58MOL   H21024264   3.889   2.921   3.063  4.8559  2.1063 -3.7641
   58MOL   H21124265   3.744   2.976   2.995  0.4846  1.0360 -0.7659
   58MOL   C21224266   3.925   3.108   2.965  0.2673  0.2986 -0.7062
   58MOL   O21324267   3.980   3.036   2.857 -0.1083 -0.1785 -0.5176
   58MOL   C21424268   4.090   2.960   2.884 -0.7016  0.2508  0.0597
   58MOL   O21524269   4.203   3.035   2.873 -0.0032 -0.1658  0.0080
   58MOL   C21624270   4.246   3.079   2.752  0.5364  0.0342 -0.5004
   58MOL   C21724271   4.196   3.041   2.626 -0.7417  0.5748 -0.0926
   58MOL   C21824272   4.257   3.086   2.510  0.1800  0.3326  0.2460
   58MOL   C21924273   4.367   3.172   2.516 -0.1257  0.0741 -0.1321
   58MOL   C22024274   4.434   3.192   2.636 -0.2838 -0.2572  0.6592
   58MOL   C22124275   4.367   3.150   2.750  0.4423  0.2170  0.1668
   58MOL   C22224276   3.870   3.234   2.906 -0.3110  0.4216  0.1868
   58MOL   H22324277   3.999   3.139   3.038 -0.6472  0.1536  0.3063
   58MOL   H22424278   4.081   2.883   2.807  2.3340 -0.0182 -0.0942
   58MOL   H22524279   4.082   2.913   2.982  1.0181 -1.3756 -0.5654
   58MOL   H22624280   4.102   2.988   2.621 -0.2137 -0.4568  0.6212
   58MOL   H22724281   4.215   3.052   2.416 -1.4144  1.9967  0.3331
   58MOL   H22824282   4.411   3.210   2.425  0.0718 -0.4122 -0.2428
   58MOL   H22924283   4.527   3.245   2.624  0.2388 -1.5159 -1.0531
   58MOL   H23024284   4.420   3.166   2.844 -0.8069  0.0241  0.9117
   58MOL   H23124285   3.813   3.199   2.820  0.7356 -0.5239 -0.1194
   58MOL   H23224286   3.791   3.270   2.973 -0.6300 -1.0117  0.5838
   58MOL   C23324287   3.982   3.338   2.872 -0.9225 -0.7250 -0.0337
   58MOL   O23424288   3.952   3.418   2.760  0.4482  1.0178  0.3610
   58MOL   C23524289   3.977   3.346   2.640  0.1976 -0.0560  0.5170
   58MOL   O23624290   3.979   3.428   2.523  0.0057  0.0601 -0.0636
   58MOL   C23724291   4.105   3.484   2.482  0.1647 -0.0795 -0.1585
   58MOL   C23824292   4.118   3.505   2.345  0.1240  0.1902 -0.1263
   58MOL   C23924293   4.238   3.552   2.287 -0.0451 -0.1021  0.0912
   58MOL   C24024294   4.354   3.578   2.371  0.2959 -0.1983  0.9019
   58MOL   C24124295   4.344   3.552   2.508 -1.1132  0.9448 -1.1211
   58MOL   C24224296   4.218   3.510   2.564 -0.3563 -0.0340  1.3547
   58MOL   C24324297   3.987   3.449   2.989  0.4347 -0.1306 -0.1409
   58MOL   H24424298   4.078   3.288   2.861 -1.3590 -1.6610  0.3604
   58MOL   H24524299   3.889   3.285   2.624 -0.3804  0.7282  0.6549
   58MOL   H24624300   4.068   3.286   2.645  0.1409 -0.0408  2.3007
   58MOL   H24724301   4.036   3.487   2.278  0.8413 -1.4099 -0.5965
   58MOL   H24824302   4.253   3.573   2.182  0.9750  2.3467  0.6821
   58MOL   H24924303   4.452   3.609   2.337  0.2835 -2.0178 -0.9106
   58MOL   H25024304   4.423   3.577   2.576  1.0493  0.4633 -3.3865
   58MOL   H25124305   4.214   3.505   2.672  0.8409  1.2013  1.4776
   58MOL   H25224306   4.053   3.533   2.968  0.0460 -0.0822 -1.2015
   58MOL   H25324307   3.882   3.479   2.998 -0.1054 -1.8686 -0.3353
   58MOL   C25424308   4.037   3.410   3.131  0.2069 -0.3918 -0.2260
   58MOL   O25524309   4.175   3.372   3.128  0.1637 -0.7875 -0.1753
   58MOL   C25624310   4.217   3.272   3.212  0.0067 -0.4031  0.2114
   58MOL   O25724311   4.247   3.308   3.341 -0.0742  0.3983  0.4763
   58MOL   C25824312   4.353   3.388   3.363  0.8031 -0.0547 -0.1530
   58MOL   C25924313   4.434   3.447   3.261 -0.4325  0.3104 -0.8902
   58MOL   C26024314   4.543   3.529   3.301  0.0491 -0.5412 -0.6565
   58MOL   C26124315   4.582   3.541   3.436  0.2918 -0.2080  0.6633
   58MOL   C26224316   4.505   3.478   3.533 -0.0904 -0.2725 -0.7950
   58MOL   C26324317   4.388   3.410   3.496  0.1202 -0.4210  0.0287
   58MOL   C26424318   4.015   3.519   3.228  0.1646 -0.3094  1.1872
   58MOL   H26524319   3.980   3.323   3.162  0.5515  0.1485  1.9689
   58MOL   H26624320   4.309   3.235   3.165 -0.3389 -1.1736  0.1289
   58MOL   H26724321   4.144   3.192   3.204  0.9322 -1.2731  0.2628
   58MOL   H26824322   4.421   3.448   3.154 -0.9054  1.2977 -0.8347
   58MOL   H26924323   4.605   3.562   3.218  0.5910 -0.0461 -0.0618
   58MOL   H27024324   4.678   3.588   3.453  0.5073  0.0691 -1.2423
   58MOL   H27124325   4.538   3.485   3.636  0.6885 -1.5652 -0.9541
   58MOL   H27224326   4.326   3.365   3.572  0.4797 -1.5467 -0.3320
   58MOL   H27324327   4.062   3.485   3.321 -0.5134 -1.7265  1.0238
   58MOL   H27424328   4.070   3.604   3.188 -0.6701 -0.1187  0.4447
   58MOL   C27524329   3.871   3.562   3.260 -0.0102  0.4858 -0.2185
   58MOL   O27624330   3.812   3.452   3.306  0.0518  0.0074 -0.2105
   58MOL   C27724331   3.676   3.447   3.279  0.0826  0.4396 -0.1418
   58MOL   O27824332   3.658   3.432   3.144  0.2537 -0.7625  0.0616
   58MOL   C27924333   3.541   3.478   3.092  0.0354  0.7158 -0.3591
   58MOL   C28024334   3.549   3.540   2.966  0.1306 -0.4599  0.0382
   58MOL   C28124335   3.439   3.584   2.890 -0.1209  0.1412 -0.2669
   58MOL   C28224336   3.313   3.577   2.944  0.3929 -0.8796  0.4514
   58MOL   C28324337   3.300   3.521   3.074  1.0592  0.3243 -0.1533
   58MOL   C28424338   3.411   3.470   3.152  0.0811 -0.4483  0.4557
   58MOL   C28524339   3.861   3.671   3.373 -0.1935 -0.0421  0.7827
   58MOL   H28624340   3.830   3.602   3.168 -1.7947 -2.3544 -0.7232
   58MOL   H28724341   3.622   3.532   3.323  1.2576  1.3860 -0.5038
   58MOL   H28824342   3.636   3.358   3.326 -1.2718  1.7803  1.3145
   58MOL   H28924343   3.649   3.531   2.925  0.3673 -0.6048  0.6385
   58MOL   H29024344   3.462   3.628   2.794  1.7789 -0.2924 -0.0319
   58MOL   H29124345   3.226   3.605   2.887  1.8301 -1.0433 -1.9244
   58MOL   H29224346   3.200   3.509   3.113  0.0640  1.6073 -2.2190
   58MOL   H29324347   3.409   3.417   3.246 -0.3019 -1.0699  0.1068
   58MOL   H29424348   3.878   3.623   3.469 -1.6695 -0.2377  0.9551
   58MOL   H29524349   3.756   3.695   3.391 -0.5321  0.3116 -1.5112
   58MOL   C29624350   3.940   3.807   3.357  0.3457  0.6329 -0.7972
   58MOL   O29724351   4.078   3.774   3.384 -0.6985  0.0424 -0.1277
   58MOL   C29824352   4.152   3.870   3.464 -0.8146 -0.1853 -0.1137
   58MOL   O29924353   4.167   4.000   3.401  0.8566  0.4940 -0.3862
   58MOL   C30024354   4.257   4.013   3.305  0.6377  0.5825  0.3635
   58MOL   C30124355   4.295   4.147   3.266  0.0641 -0.6770 -0.1452
   58MOL   C30224356   4.385   4.169   3.159  0.3468  0.1003  0.3941
   58MOL   C30324357   4.437   4.061   3.091  0.7455  0.3698  0.0794
   58MOL   C30424358   4.419   3.931   3.140  0.0194  0.2325 -0.0235
   58MOL   C30524359   4.334   3.907   3.249 -0.2073  0.0098  0.1441
   58MOL   C30624360   3.936   3.869   3.217 -0.1358 -0.2488  0.2044
   58MOL   H30724361   3.900   3.883   3.423 -1.2176  1.0037 -2.1264
   58MOL   H30824362   4.247   3.835   3.502 -1.6183 -0.2506  1.9051
   58MOL   H30924363   4.090   3.889   3.552  0.7394 -1.1161  1.2047
   58MOL   H31024364   4.241   4.231   3.307  2.1922  1.8959 -2.3752
   58MOL   H31124365   4.416   4.269   3.132 -0.5053 -0.1795 -1.8025
   58MOL   H31224366   4.500   4.080   3.005  0.2484  3.3896  0.3356
   58MOL   H31324367   4.468   3.856   3.080 -0.2147  1.3260 -1.6203
   58MOL   H31424368   4.299   3.808   3.276  0.5647 -0.6938 -1.3988
   58MOL   H31524369   3.960   3.792   3.144  0.3619  0.5023 -0.4298
   58MOL   H31624370   4.016   3.943   3.211  0.3131 -0.7442  0.1244
   58MOL   C31724371   3.806   3.942   3.172 -0.3200  0.0227 -0.5549
   58MOL   O31824372   3.701   3.853   3.139 -0.0723  0.4557  0.6341
   58MOL   C31924373   3.569   3.892   3.182  0.1448  0.2541 -0.1040
   58MOL   O32024374   3.536   4.014   3.132 -0.0866  0.9388  0.6815
   58MOL   C32124375   3.486   4.023   3.001 -0.0199  0.1061  0.4922
   58MOL   C32224376   3.522   3.928   2.903  0.1953  0.3451 -0.6920
   58MOL   C32324377   3.475   3.947   2.776 -0.0160 -0.8140  0.3273
   58MOL   C32424378   3.397   4.059   2.739  0.1666 -0.2861 -0.0277
   58MOL   C32524379   3.359   4.151   2.839 -0.2920  0.1322 -0.3909
   58MOL   C32624380   3.414   4.138   2.966  0.2247  0.0954  0.8321
   58MOL   C32724381   3.832   4.034   3.049 -0.4509 -0.1791 -0.2483
   58MOL   H32824382   3.770   3.999   3.257 -1.3705  0.5913 -1.3601
   58MOL   H32924383   3.578   3.900   3.290  2.2339 -2.7222  0.0236
   58MOL   H33024384   3.484   3.832   3.149  1.1981 -1.4342  0.1566
   58MOL   H33124385   3.589   3.849   2.936 -1.0833 -0.9994 -1.2796
   58MOL   H33224386   3.517   3.883   2.699 -1.1028 -0.4587 -0.5677
   58MOL   H33324387   3.373   4.072   2.635 -0.4069 -0.6959  0.0508
   58MOL   H33424388   3.305   4.242   2.814 -0.1175  0.4267  0.2827
   58MOL   H33524389   3.399   4.209   3.046  0.7960  0.2543  0.7944
   58MOL   H33624390   3.894   3.972   2.985 -0.7920 -0.5257 -0.2429
   58MOL   H33724391   3.741   4.063   2.997 -1.0844 -0.9542  0.4209
   58MOL   C33824392   3.909   4.175   3.085  0.0614  1.3580 -0.2765
   58MOL   O33924393   3.968   4.229   2.967 -0.2711 -0.4272 -0.1409
   58MOL   C34024394   4.103   4.189   2.943  0.2819 -0.3294 -0.0144
   58MOL   O34124395   4.138   4.206   2.810 -0.1125  0.6015 -0.7933
   58MOL   C34224396   4.133   4.333   2.759 -0.0957 -0.1397  0.9841
   58MOL   C34324397   4.114   4.449   2.837  0.1177  0.2746 -0.2651
   58MOL   C34424398   4.099   4.576   2.783  0.9634  0.1221  0.4156
   58MOL   C34524399   4.097   4.601   2.648  0.0567 -0.3901  0.4254
   58MOL   C34624400   4.116   4.485   2.565  0.5812  0.3235 -0.5916
   58MOL   C34724401   4.142   4.353   2.618  0.3712 -0.0142 -0.1589
   58MOL   C34824402   3.814   4.280   3.151  0.2298  0.0485 -0.6149
   58MOL   H34924403   3.991   4.151   3.152 -0.8784 -2.1015 -0.2710
   58MOL   H35024404   4.112   4.080   2.947 -0.3747 -0.3733  0.3440
   58MOL   H35124405   4.176   4.245   3.001  1.8110 -1.1031 -1.1498
   58MOL   H35224406   4.115   4.436   2.944 -1.6783  1.9004 -0.0167
   58MOL   H35324407   4.087   4.661   2.848 -1.4365  0.6971 -0.7398
   58MOL   H35424408   4.073   4.701   2.615  1.0113 -0.4880 -0.6193
   58MOL   H35524409   4.118   4.494   2.457 -3.6826  0.2664 -0.7673
   58MOL   H35624410   4.162   4.279   2.543 -0.8642 -2.2336  1.6650
   58MOL   H35724411   3.783   4.232   3.244  0.9990  1.8107  0.5843
   58MOL   H35824412   3.724   4.284   3.088  0.3434 -3.0076 -1.0449
   58MOL   C35924413   3.867   4.420   3.187  0.0382  0.6539  0.2719
   58MOL   O36024414   3.945   4.400   3.296 -0.3513  0.5184  0.2638
   58MOL   C36124415   4.062   4.479   3.312 -0.4002 -0.0306  0.4828
   58MOL   O36224416   4.164   4.452   3.221 -0.0828 -0.0847 -0.1409
   58MOL   C36324417   4.288   4.501   3.245 -0.1942 -0.8668  0.3062
   58MOL   C36424418   4.351   4.545   3.134 -0.3572 -0.7065 -0.1645
   58MOL   C36524419   4.478   4.611   3.149  0.0347 -0.3796  0.0753
   58MOL   C36624420   4.540   4.608   3.274 -0.5169 -0.2990  0.1000
   58MOL   C36724421   4.483   4.554   3.384 -0.2122  0.6108 -0.3385
   58MOL   C36824422   4.353   4.504   3.373  0.4649 -0.2478 -0.0033
   58MOL   C36924423   3.763   4.513   3.231  0.2608  0.3647  0.9436
   58MOL   H37024424   3.916   4.465   3.101  0.7409  2.0477  1.3792
   58MOL   H37124425   4.092   4.445   3.412 -0.1008 -1.3477 -0.0444
   58MOL   H37224426   4.053   4.587   3.305  1.4079  0.0556 -0.6419
   58MOL   H37324427   4.293   4.536   3.044  0.8258  1.7003 -1.2082
   58MOL   H37424428   4.521   4.652   3.059 -0.5791 -0.5629 -0.3070
   58MOL   H37524429   4.637   4.652   3.292 -0.7152  0.0756  0.2620
   58MOL   H37624430   4.539   4.568   3.476  1.7385 -1.6818 -1.1469
   58MOL   H37724431   4.308   4.470   3.465 -1.5373 -1.3299 -1.3473
   58MOL   H37824432   3.807   4.602   3.275  0.3457  1.9251 -2.2198
   58MOL   H37924433   3.709   4.465   3.313  0.3161  2.1574  2.0385
   58MOL   C38024434   3.679   4.557   3.106  0.1273  0.2846 -0.6858
   58MOL   O38124435   3.764   4.617   3.007  0.4156 -0.2092 -0.5559
   58MOL   C38224436   3.777   4.536   2.887 -0.2712  0.0775  0.0507
   58MOL   O38324437   3.651   4.523   2.831 -0.0379 -0.2535  0.3573
   58MOL   C38424438   3.628   4.446   2.720  0.7208 -0.2446  0.5666
   58MOL   C38524439   3.710   4.347   2.665 -0.6173 -0.5654 -0.2105
   58MOL   C38624440   3.661   4.275   2.560  0.0449 -0.9141 -0.9609
   58MOL   C38724441   3.539   4.300   2.497 -0.0136  0.3896  0.0137
   58MOL   C38824442   3.455   4.397   2.559 -0.4910  0.3170  0.3965
   58MOL   C38924443   3.505   4.475   2.660  0.2944  0.3348 -0.0024
   58MOL   C39024444   3.577   4.672   3.153 -0.0889  0.0783  0.0045
   58MOL   H39124445   3.618   4.478   3.060  0.6492  0.5084 -1.7906
   58MOL   H39224446   3.840   4.592   2.818  1.0814 -0.5759  0.7279
   58MOL   H39324447   3.821   4.437   2.902 -0.0602  0.1471 -0.1174
   58MOL   H39424448   3.804   4.327   2.715 -0.0077  0.9968 -0.6998
   58MOL   H39524449   3.718   4.190   2.523  2.2855  0.2873 -0.3779
   58MOL   H39624450   3.505   4.229   2.423  2.3538  0.4617 -1.2188
   58MOL   H39724451   3.355   4.416   2.524 -0.2728  1.2240  0.2538
   58MOL   H39824452   3.450   4.556   2.706 -1.6885 -0.6800 -0.5521
   58MOL   H39924453   3.562   4.734   3.065 -5.1870 -2.1282 -0.8561
   58MOL   H40024454   3.608   4.741   3.231  1.1385  0.1623 -0.5493
   58MOL   C40124455   3.442   4.629   3.207 -0.4044  0.0657 -0.6466
   58MOL   O40224456   3.422   4.634   3.346 -0.2521  0.4197  0.4777
   58MOL   C40324457   3.504   4.563   3.432 -0.4031  0.5098 -0.1741
   58MOL   O40424458   3.508   4.426   3.402 -0.3774 -0.8344  0.3610
   58MOL   C40524459   3.400   4.347   3.439 -0.3370 -0.5166 -0.5408
   58MOL   C40624460   3.419   4.211   3.414  0.3716 -0.0015  0.7142
   58MOL   C40724461   3.313   4.119   3.446 -0.7894 -0.7164 -0.5079
   58MOL   C40824462   3.194   4.168   3.500 -0.8152 -0.3326 -0.4502
   58MOL   C40924463   3.179   4.304   3.522  0.2467  0.1129 -0.1926
   58MOL   C41024464   3.282   4.396   3.491 -0.1423  0.1774  0.3132
   58MOL   C41124465   3.326   4.716   3.142 -0.3163 -0.2680 -0.4660
   58MOL   H41224466   3.428   4.526   3.176 -0.2405  0.3311 -1.6394
   58MOL   H41324467   3.471   4.576   3.535 -1.8233  0.6944 -0.6520
   58MOL   H41424468   3.608   4.596   3.437 -0.4321  0.5428  0.2063
   58MOL   H41524469   3.511   4.171   3.374  1.3461  1.7493  1.1628
   58MOL   H41624470   3.320   4.016   3.416 -0.1277 -0.3779 -1.5169
   58MOL   H41724471   3.111   4.100   3.513 -0.8085  0.2668  3.5339
   58MOL   H41824472   3.084   4.347   3.552  0.1070  0.5075 -1.1791
   58MOL   H41924473   3.280   4.504   3.502  1.5550  0.2899 -0.3713
   58MOL   H42024474   3.320   4.693   3.035  0.6435 -2.7534 -0.0127
   58MOL   H42124475   3.357   4.820   3.156 -1.4536  0.0354 -0.1810
   58MOL   H42224476   3.234   4.709   3.199  0.5682  0.8578  1.1350
   59MOL     C124477   1.666   4.031   6.139  0.2687 -0.1268  0.1120
   59MOL     O224478   1.624   4.073   6.265 -0.5079 -0.2779 -0.0942
   59MOL     C324479   1.687   4.007   6.373 -0.0976  0.8667  0.7011
   59MOL     O424480   1.660   3.866   6.380 -0.2461 -0.1658  0.1335
   59MOL     C524481   1.558   3.831   6.464 -0.2113 -0.4341  0.5948
   59MOL     C624482   1.478   3.914   6.544 -0.4881  0.0660 -0.3096
   59MOL     C724483   1.380   3.859   6.627  0.0236  0.3451 -0.0824
   59MOL     C824484   1.366   3.720   6.644  0.4714 -0.2626 -0.8635
   59MOL     C924485   1.449   3.634   6.569 -0.5176  0.5720 -0.5788
   59MOL    C1024486   1.539   3.687   6.480 -0.2732 -0.4900 -0.3908
   59MOL    C1124487   1.579   4.113   6.043 -0.0482  0.9939 -0.4655
   59MOL    H1224488   1.773   4.046   6.124  0.0633 -0.7769 -2.1193
   59MOL    H1324489   1.793   4.026   6.360 -0.5470  0.9636 -3.5624
   59MOL    H1424490   1.672   4.056   6.470 -0.7149  1.5663  0.2578
   59MOL    H1524491   1.473   4.022   6.542  0.6025  0.1627  1.2682
   59MOL    H1624492   1.311   3.925   6.677  2.9052  1.3966  2.7019
   59MOL    H1724493   1.288   3.676   6.704  0.4759 -1.2246 -1.5470
   59MOL    H1824494   1.433   3.529   6.591  0.6973  0.3508 -0.7396
   59MOL    H1924495   1.593   3.621   6.414  0.3804  0.9025 -1.2906
   59MOL    H2024496   1.600   4.220   6.044  0.2922  0.9343 -0.7795
   59MOL    H2124497   1.474   4.117   6.074 -0.8869 -2.5463 -2.5065
   59MOL    H2224498   1.638   3.926   6.128  0.5716 -0.1684 -0.2648
   59MOL    C2324499   1.574   4.062   5.904  0.2860  1.1734  0.2995
   59MOL    O2424500   1.704   4.084   5.857  0.1476 -0.5984 -1.0517
   59MOL    C2524501   1.763   3.980   5.782 -0.1092 -0.2367 -0.4266
   59MOL    O2624502   1.749   3.852   5.834  0.4560 -0.5938  0.0608
   59MOL    C2724503   1.858   3.801   5.892  0.4552  0.4480 -0.0644
   59MOL    C2824504   1.872   3.660   5.905 -0.3828 -0.5483 -0.2624
   59MOL    C2924505   1.978   3.602   5.977 -0.0223  0.0125  0.2069
   59MOL    C3024506   2.068   3.688   6.033  0.1045 -0.0881  0.6557
   59MOL    C3124507   2.060   3.826   6.030  0.2323 -0.0214 -1.4082
   59MOL    C3224508   1.954   3.882   5.956 -0.1265  0.3306 -0.1628
   59MOL    C3324509   1.482   4.140   5.810  0.0238  0.2478 -0.3890
   59MOL    H3424510   1.545   3.958   5.886  1.3209  1.1430 -1.3027
   59MOL    H3524511   1.865   4.005   5.751 -0.5252  0.6703 -1.0753
   59MOL    H3624512   1.705   3.976   5.690 -0.2433  0.2919 -0.3651
   59MOL    H3724513   1.790   3.608   5.857 -0.6812  1.1773 -1.6896
   59MOL    H3824514   1.980   3.495   5.987  0.4304 -0.3916 -3.5479
   59MOL    H3924515   2.145   3.645   6.096  0.9598 -0.5289 -0.6474
   59MOL    H4024516   2.125   3.892   6.087 -1.7367 -0.2210  1.1255
   59MOL    H4124517   1.939   3.989   5.963  1.0223  0.3421  2.9633
   59MOL    H4224518   1.504   4.117   5.706  1.4551  0.9566 -0.2551
   59MOL    H4324519   1.522   4.241   5.802  1.1788  0.0017  1.8141
   59MOL    C4424520   1.331   4.129   5.851  0.0998 -0.0387  0.2672
   59MOL    O4524521   1.301   3.991   5.833 -0.1469 -0.5252 -0.2091
   59MOL    C4624522   1.161   3.946   5.843  0.2387  0.0373  0.0486
   59MOL    O4724523   1.101   3.996   5.957 -0.8836  0.0868  0.0785
   59MOL    C4824524   1.137   3.943   6.082 -0.4635  0.7798  0.4426
   59MOL    C4924525   1.255   3.873   6.105 -0.3594 -0.6812 -0.2566
   59MOL    C5024526   1.276   3.827   6.235 -0.1831  0.0719 -0.7268
   59MOL    C5124527   1.189   3.851   6.345 -0.3379  0.5922 -0.3616
   59MOL    C5224528   1.079   3.935   6.324  0.4997 -0.4240 -0.3002
   59MOL    C5324529   1.049   3.983   6.189 -0.0031 -0.0473 -0.1044
   59MOL    C5424530   1.252   4.222   5.759  0.1773  1.1074 -0.1162
   59MOL    H5524531   1.313   4.160   5.954  0.4963 -0.8655  0.5970
   59MOL    H5624532   1.160   3.837   5.844  2.0218 -0.0177 -1.0591
   59MOL    H5724533   1.115   3.984   5.752  0.8648 -0.9030 -0.6669
   59MOL    H5824534   1.319   3.835   6.026  2.3686  0.9460  1.1164
   59MOL    H5924535   1.362   3.763   6.243  1.0416  1.7837  0.1209
   59MOL    H6024536   1.208   3.807   6.441  1.4400 -0.3634 -1.1201
   59MOL    H6124537   1.021   3.975   6.405  1.1425  0.7866 -0.4166
   59MOL    H6224538   0.960   4.044   6.176  1.2143  1.6851 -0.5137
   59MOL    H6324539   1.262   4.178   5.660  1.1384 -0.1658  0.5355
   59MOL    H6424540   1.147   4.197   5.773  0.4272  0.4049  0.5112
   59MOL    C6524541   1.273   4.375   5.767 -0.4250  0.0531 -0.1254
   59MOL    O6624542   1.202   4.439   5.659  0.7994  0.1499  0.2640
   59MOL    C6724543   1.264   4.550   5.600 -0.1386 -0.4619  0.4124
   59MOL    O6824544   1.203   4.597   5.486  0.4781  0.6015 -0.1290
   59MOL    C6924545   1.084   4.666   5.497 -0.1580 -0.5005  0.0395
   59MOL    C7024546   0.993   4.654   5.604  0.3044  0.5015  0.2489
   59MOL    C7124547   0.882   4.742   5.614  0.4666 -0.1741  0.2440
   59MOL    C7224548   0.845   4.825   5.507 -0.7191  0.2677 -1.4135
   59MOL    C7324549   0.923   4.823   5.395 -0.3644 -0.1344  0.4127
   59MOL    C7424550   1.043   4.740   5.384  0.1987  0.1196 -0.1323
   59MOL    C7524551   1.231   4.439   5.904 -0.1343 -0.3181  0.2785
   59MOL    H7624552   1.380   4.391   5.752 -0.6801  1.7488 -0.2350
   59MOL    H7724553   1.361   4.511   5.568 -1.2596 -4.4030  1.5379
   59MOL    H7824554   1.277   4.628   5.675  0.6040 -0.0391 -0.1558
   59MOL    H7924555   1.008   4.586   5.686 -0.8161  0.9214  0.8017
   59MOL    H8024556   0.824   4.729   5.705  0.4405 -1.9758 -0.0107
   59MOL    H8124557   0.767   4.899   5.521  0.9676  1.6866  0.8318
   59MOL    H8224558   0.899   4.888   5.311 -2.3923 -2.7600 -1.1087
   59MOL    H8324559   1.100   4.735   5.292 -0.7865  0.4180 -0.7718
   59MOL    H8424560   1.183   4.533   5.880  0.2927 -0.8270 -2.8776
   59MOL    H8524561   1.158   4.370   5.946  0.6175 -0.8465  0.7200
   59MOL    C8624562   1.348   4.460   5.995  0.4817  0.5663 -0.7581
   59MOL    O8724563   1.422   4.571   5.925 -0.1228 -0.0622 -0.9092
   59MOL    C8824564   1.557   4.564   5.943 -0.5409  0.4170 -0.0402
   59MOL    O8924565   1.613   4.468   5.862  0.2606 -0.0581 -0.0207
   59MOL    C9024566   1.637   4.494   5.730 -0.2611  0.1946 -0.0016
   59MOL    C9124567   1.710   4.401   5.660 -0.4750 -0.0808 -0.2922
   59MOL    C9224568   1.740   4.413   5.522  0.0981 -0.2244  0.1261
   59MOL    C9324569   1.681   4.517   5.449 -0.7943 -0.2762  0.0010
   59MOL    C9424570   1.615   4.622   5.518 -0.5524  0.1878 -0.1611
   59MOL    C9524571   1.593   4.607   5.653  1.0228 -0.0145 -0.0805
   59MOL    C9624572   1.320   4.516   6.137 -0.0219  0.6157  0.4406
   59MOL    H9724573   1.408   4.369   5.995  0.6197  0.6497  0.9665
   59MOL    H9824574   1.587   4.535   6.044 -0.5106  1.1379  0.1610
   59MOL    H9924575   1.583   4.666   5.914 -1.3722  0.5730 -0.2658
   59MOL   H10024576   1.749   4.323   5.723  4.5121  1.0445 -1.7742
   59MOL   H10124577   1.810   4.346   5.474  0.4278 -1.4414  2.2367
   59MOL   H10224578   1.705   4.524   5.344  2.5168  1.7712  0.8079
   59MOL   H10324579   1.587   4.710   5.463 -0.2206 -0.2373 -1.0157
   59MOL   H10424580   1.543   4.692   5.697  0.4387 -0.1025 -0.5655
   59MOL   H10524581   1.412   4.549   6.185 -0.7790 -1.1343  3.2239
   59MOL   H10624582   1.262   4.608   6.127  0.6671  0.8717 -1.4004
   59MOL   C10724583   1.260   4.417   6.233  0.7473 -0.0834  0.2197
   59MOL   O10824584   1.366   4.335   6.286 -0.1196  0.0658 -0.3800
   59MOL   C10924585   1.325   4.213   6.344 -0.2694 -0.4902  0.3208
   59MOL   O11024586   1.261   4.224   6.466  0.1738  0.4404 -0.1046
   59MOL   C11124587   1.334   4.264   6.575 -0.2706  0.8449  0.8914
   59MOL   C11224588   1.271   4.263   6.698 -0.3103 -0.5103 -0.0596
   59MOL   C11324589   1.332   4.329   6.814 -0.2063  0.5215 -0.0650
   59MOL   C11424590   1.462   4.366   6.806 -0.9471 -0.2062  0.0380
   59MOL   C11524591   1.526   4.364   6.678  0.1883  0.5129 -0.1786
   59MOL   C11624592   1.462   4.310   6.565  0.2071  0.5141 -0.1999
   59MOL   C11724593   1.186   4.480   6.354  0.1069 -0.5700 -0.3884
   59MOL   H11824594   1.190   4.358   6.175  1.2018  0.2061 -0.6312
   59MOL   H11924595   1.412   4.146   6.346  0.7339  0.8105  0.6368
   59MOL   H12024596   1.258   4.159   6.277 -1.2280  2.0811 -0.8539
   59MOL   H12124597   1.173   4.218   6.702 -0.5191  0.0216  1.1169
   59MOL   H12224598   1.281   4.323   6.910  1.8559 -0.9930  0.9831
   59MOL   H12324599   1.513   4.396   6.897 -1.6082 -0.5146  0.5137
   59MOL   H12424600   1.628   4.398   6.667  1.2262 -2.6224 -0.6399
   59MOL   H12524601   1.518   4.306   6.472 -2.4713 -1.7244 -1.7759
   59MOL   H12624602   1.258   4.503   6.433 -0.7928 -0.0889  0.3025
   59MOL   H12724603   1.119   4.401   6.386 -1.0978  0.5097 -0.2095
   59MOL   C12824604   1.095   4.605   6.337 -0.4011  0.5377 -0.2667
   59MOL   O12924605   1.025   4.636   6.458  0.2119  0.3100 -0.1756
   59MOL   C13024606   1.059   4.745   6.530 -0.6684 -0.3036 -0.0732
   59MOL   O13124607   1.184   4.723   6.587  0.1006 -0.9352  0.1673
   59MOL   C13224608   1.221   4.808   6.694 -0.0676 -0.2435 -0.0448
   59MOL   C13324609   1.295   4.752   6.796  0.8869  0.0853 -0.0299
   59MOL   C13424610   1.342   4.832   6.902 -0.1592 -0.4068 -0.8767
   59MOL   C13524611   1.325   4.971   6.902 -0.8185  0.0627 -0.4411
   59MOL   C13624612   1.264   5.030   6.791 -0.0360  0.1378  0.2428
   59MOL   C13724613   1.206   4.945   6.691  0.1544  0.3799 -0.0487
   59MOL   C13824614   0.978   4.584   6.235  0.4182 -0.1527 -0.4616
   59MOL   H13924615   1.148   4.693   6.302  1.9970 -1.0343 -0.7898
   59MOL   H14024616   0.992   4.760   6.614 -0.2502  0.3458  0.1457
   59MOL   H14124617   1.051   4.836   6.470 -0.3642 -0.4451 -0.3341
   59MOL   H14224618   1.317   4.646   6.802  0.4600 -0.1936 -2.6997
   59MOL   H14324619   1.400   4.792   6.985  0.9459  1.7358 -0.5680
   59MOL   H14424620   1.367   5.028   6.984 -0.3233  0.5651 -1.0458
   59MOL   H14524621   1.264   5.137   6.775 -0.7451  0.1089  0.0287
   59MOL   H14624622   1.173   4.998   6.603  2.2081  0.8759 -0.5479
   59MOL   H14724623   1.023   4.533   6.150  0.5992  0.7833 -0.9240
   59MOL   H14824624   0.921   4.499   6.274  2.0956 -1.2392 -0.3496
   59MOL   C14924625   0.913   4.710   6.185  0.0177 -0.0337 -0.1615
   59MOL   O15024626   0.908   4.724   6.045  0.1079 -0.4520  0.4544
   59MOL   C15124627   1.015   4.803   6.001  0.2672 -0.7427 -0.4267
   59MOL   O15224628   1.008   4.937   6.038  0.1463 -0.1164 -0.5544
   59MOL   C15324629   0.898   5.013   5.997  0.2120 -0.0538  0.1370
   59MOL   C15424630   0.799   4.959   5.910  0.3961 -0.1616  0.5157
   59MOL   C15524631   0.696   5.040   5.866 -0.4013 -0.3512 -0.4596
   59MOL   C15624632   0.680   5.171   5.922  0.0068 -0.4446 -0.0957
   59MOL   C15724633   0.776   5.222   6.006 -0.4595 -0.3926  0.2386
   59MOL   C15824634   0.892   5.144   6.043  0.2241  0.8897  0.0693
   59MOL   C15924635   0.761   4.727   6.210  0.0835  0.1546  0.3317
   59MOL   H16024636   0.964   4.797   6.227  1.3915  0.0307 -1.8648
   59MOL   H16124637   1.104   4.749   6.032  0.4651 -0.6293 -0.7939
   59MOL   H16224638   1.033   4.804   5.894  1.0551 -0.5491 -0.2941
   59MOL   H16324639   0.810   4.853   5.889 -0.1105  0.0647 -0.9237
   59MOL   H16424640   0.622   4.999   5.797 -1.5552  1.5161 -0.3637
   59MOL   H16524641   0.608   5.247   5.896  0.8400  0.0573 -0.9563
   59MOL   H16624642   0.756   5.321   6.044  1.6181 -0.3939  1.4040
   59MOL   H16724643   0.972   5.183   6.104  0.3319  0.4091  0.2434
   59MOL   H16824644   0.753   4.669   6.303  1.4068  1.2082  1.1286
   59MOL   H16924645   0.697   4.681   6.135  1.2289 -1.3571  0.2474
   59MOL   C17024646   0.698   4.868   6.247 -0.2179 -0.3944  0.4460
   59MOL   O17124647   0.560   4.863   6.284 -0.4777  0.1437  0.0483
   59MOL   C17224648   0.470   4.874   6.173 -0.8398 -0.0297  0.3488
   59MOL   O17324649   0.451   5.003   6.127  0.3469 -0.2031 -0.0694
   59MOL   C17424650   0.323   5.037   6.068 -0.1531  0.4571 -0.2186
   59MOL   C17524651   0.221   4.942   6.039 -0.3417  0.7975 -0.1767
   59MOL   C17624652   0.098   4.980   5.980  0.5192 -0.1816 -0.1358
   59MOL   C17724653   0.078   5.116   5.946  0.3715  0.3050  0.3696
   59MOL   C17824654   0.178   5.209   5.973 -0.4760  0.4500  0.1486
   59MOL   C17924655   0.300   5.169   6.029 -0.6061  0.0978 -0.2525
   59MOL   C18024656   0.769   4.942   6.367 -0.2498  0.5770  0.1006
   59MOL   H18124657   0.704   4.937   6.163 -1.1018  0.6973  1.2600
   59MOL   H18224658   0.383   4.827   6.219 -0.0386 -2.5642 -0.6862
   59MOL   H18324659   0.496   4.806   6.092  1.6436 -0.3310  1.3663
   59MOL   H18424660   0.242   4.836   6.041 -0.3860  0.7479 -1.5515
   59MOL   H18524661   0.023   4.906   5.957  1.0046 -0.3877 -1.0923
   59MOL   H18624662   7.962   5.142   5.895 -0.2146 -0.5080  1.0037
   59MOL   H18724663   0.171   5.312   5.942  1.7772  0.5610 -0.0838
   59MOL   H18824664   0.378   5.243   6.042  0.8146 -1.2793 -0.8084
   59MOL   H18924665   0.787   4.864   6.441  3.3746 -0.5077 -1.7682
   59MOL   H19024666   0.874   4.960   6.341  0.0607 -2.4698 -1.0027
   59MOL   C19124667   0.720   5.077   6.409  1.1326 -0.0277  0.5184
   59MOL   O19224668   0.839   5.134   6.464 -0.2890  0.1312 -0.3990
   59MOL   C19324669   0.854   5.268   6.436 -0.5008  0.6669 -0.1372
   59MOL   O19424670   0.937   5.328   6.525  0.9234  0.3578 -0.4049
   59MOL   C19524671   1.074   5.320   6.510  0.4408 -0.2031  0.0478
   59MOL   C19624672   1.142   5.223   6.428 -0.3418  0.3123 -0.4528
   59MOL   C19724673   1.283   5.212   6.426 -0.1420 -0.2057  0.9833
   59MOL   C19824674   1.351   5.306   6.500 -0.4161 -0.4960 -0.4368
   59MOL   C19924675   1.288   5.393   6.586 -0.2030 -0.4203  0.1454
   59MOL   C20024676   1.150   5.408   6.587  0.6203 -0.5145  0.7529
   59MOL   C20124677   0.609   5.073   6.514  0.6901 -0.1756 -0.1964
   59MOL   H20224678   0.678   5.121   6.319  0.0057 -0.3704  0.8705
   59MOL   H20324679   0.760   5.321   6.451 -0.3378  0.6257  1.0755
   59MOL   H20424680   0.883   5.299   6.336 -1.9186  2.6286  0.0390
   59MOL   H20524681   1.077   5.159   6.370 -0.3422 -0.0739 -0.0323
   59MOL   H20624682   1.326   5.151   6.348 -2.4375  0.4783 -0.8689
   59MOL   H20724683   1.459   5.312   6.491 -0.4262 -0.0008 -0.2305
   59MOL   H20824684   1.351   5.439   6.661  2.5011 -1.0395 -1.6922
   59MOL   H20924685   1.104   5.483   6.649 -0.4167  0.2465 -0.9091
   59MOL   H21024686   0.544   4.989   6.492  0.3150  0.4361 -1.4544
   59MOL   H21124687   0.660   5.044   6.606 -0.2320  1.0226  0.7094
   59MOL   C21224688   0.519   5.199   6.529  0.5161 -1.1872  0.4680
   59MOL   O21324689   0.577   5.315   6.582 -0.5628 -0.1059  0.0479
   59MOL   C21424690   0.634   5.308   6.711 -0.1483  0.0316  0.0588
   59MOL   O21524691   0.542   5.317   6.812 -0.0066  0.0042  0.6192
   59MOL   C21624692   0.471   5.433   6.840  0.2932  0.0469 -0.2849
   59MOL   C21724693   0.405   5.433   6.964 -0.6879  0.2100 -0.6932
   59MOL   C21824694   0.375   5.562   7.017 -0.6102 -0.5120  0.7927
   59MOL   C21924695   0.395   5.682   6.941 -0.1784 -0.4306 -0.2662
   59MOL   C22024696   0.432   5.672   6.806  0.2711  0.3686  0.4168
   59MOL   C22124697   0.477   5.546   6.756 -0.0945 -0.7240 -0.3762
   59MOL   C22224698   0.440   5.247   6.405 -0.2907  0.0690  0.1647
   59MOL   H22324699   0.451   5.171   6.610 -0.8414  0.8767  0.0760
   59MOL   H22424700   0.707   5.389   6.715 -2.0098  1.7095  0.2577
   59MOL   H22524701   0.696   5.220   6.731 -0.0180  0.2288  0.5171
   59MOL   H22624702   0.386   5.348   7.028 -0.4350  0.1057 -0.7535
   59MOL   H22724703   0.341   5.584   7.117 -1.9196 -0.1490  0.2781
   59MOL   H22824704   0.370   5.782   6.976  1.6920  0.4765 -1.4479
   59MOL   H22924705   0.450   5.760   6.747  0.6529 -0.4634 -0.7325
   59MOL   H23024706   0.536   5.541   6.666  0.5336 -2.1811  0.1023
   59MOL   H23124707   0.481   5.323   6.339 -2.3673  0.2707 -0.9314
   59MOL   H23224708   0.429   5.160   6.340 -0.5429  0.2030  0.0296
   59MOL   C23324709   0.301   5.292   6.434  0.0634 -0.1054 -0.5026
   59MOL   O23424710   0.245   5.345   6.312  0.3330 -0.0060  0.2149
   59MOL   C23524711   0.242   5.482   6.294  0.4439  0.2996  1.3725
   59MOL   O23624712   0.130   5.536   6.356 -0.4118 -0.3363  0.2968
   59MOL   C23724713   0.064   5.645   6.305  0.7696 -0.0898 -0.4364
   59MOL   C23824714   7.915   5.689   6.358 -0.0232  0.3847  0.1169
   59MOL   C23924715   7.859   5.814   6.318  0.1386 -0.4426 -0.6746
   59MOL   C24024716   7.921   5.897   6.220 -0.3985 -0.0715  0.6843
   59MOL   C24124717   0.065   5.852   6.170  0.3442  1.2231  0.4081
   59MOL   C24224718   0.123   5.733   6.211  0.2390 -0.1755 -0.7295
   59MOL   C24324719   0.203   5.175   6.477 -0.1558 -0.2727 -0.1643
   59MOL   H24424720   0.302   5.356   6.522  1.6034 -2.0642  0.9470
   59MOL   H24524721   0.246   5.483   6.185  1.0000 -0.8639  1.3819
   59MOL   H24624722   0.330   5.534   6.330 -0.1624  2.7911 -0.5818
   59MOL   H24724723   7.875   5.618   6.429 -0.4332  1.5115  1.0331
   59MOL   H24824724   7.763   5.833   6.364  0.2108  0.0939 -0.7466
   59MOL   H24924725   7.874   5.990   6.190  1.0366  0.1368 -1.0261
   59MOL   H25024726   0.114   5.925   6.107  1.2349  0.3546  0.0769
   59MOL   H25124727   0.216   5.705   6.165 -0.8640 -3.3132 -1.1519
   59MOL   H25224728   0.206   5.094   6.403  2.1293 -0.1989 -0.1593
   59MOL   H25324729   0.233   5.126   6.569 -0.7424 -0.1723  0.0814
   59MOL   C25424730   0.054   5.229   6.492  0.2535  0.0028  0.9518
   59MOL   O25524731   7.953   5.166   6.392  0.1317 -0.1377 -0.3077
   59MOL   C25624732   7.971   5.198   6.257  0.2475 -1.0548  0.1437
   59MOL   O25724733   7.862   5.149   6.181 -0.5945 -1.0252  0.1491
   59MOL   C25824734   7.752   5.229   6.160 -0.2898 -0.5520  0.0057
   59MOL   C25924735   7.731   5.353   6.236 -0.3015  0.4716 -0.2293
   59MOL   C26024736   7.616   5.429   6.212  0.1018 -0.3263 -0.3590
   59MOL   C26124737   7.524   5.389   6.112  0.7936  0.1940  0.4201
   59MOL   C26224738   7.544   5.275   6.036 -0.2484 -0.3914 -0.5098
   59MOL   C26324739   7.665   5.203   6.050 -0.0359  0.0398 -0.0202
   59MOL   C26424740   0.001   5.189   6.630  0.3573  0.0932 -0.1924
   59MOL   H26524741   0.038   5.335   6.474 -0.2912 -0.5461 -2.0685
   59MOL   H26624742   0.086   5.148   6.222  0.8762 -0.0147  0.2902
   59MOL   H26724743   0.031   5.300   6.246  2.4673 -1.9513 -1.5638
   59MOL   H26824744   7.803   5.381   6.312  0.0273  0.5328 -0.5621
   59MOL   H26924745   7.595   5.519   6.269  1.4861 -1.8016  2.5666
   59MOL   H27024746   7.435   5.448   6.097  0.0382 -0.8627  0.7555
   59MOL   H27124747   7.479   5.245   5.956  1.1447 -2.3643 -0.9394
   59MOL   H27224748   7.693   5.117   5.990 -0.0177  0.7971 -1.1050
   59MOL   H27324749   7.868   5.201   6.628  0.4006  0.6743  0.8376
   59MOL   H27424750   0.010   5.081   6.641 -0.9373  0.0135  0.1871
   59MOL   C27524751   0.059   5.273   6.751  0.1037  0.1027  0.3004
   59MOL   O27624752   7.975   5.402   6.751 -0.3154 -0.0940  0.0278
   59MOL   C27724753   0.067   5.502   6.827  0.1655 -0.0653 -0.0019
   59MOL   O27824754   0.054   5.482   6.963  0.5518  0.5119 -0.0334
   59MOL   C27924755   7.902   5.495   7.022  0.6790 -0.0386 -0.1159
   59MOL   C28024756   7.884   5.470   7.159 -0.3364  0.5813 -0.3396
   59MOL   C28124757   7.755   5.463   7.208 -0.0541  0.1836  0.3447
   59MOL   C28224758   7.644   5.493   7.129  0.4205 -0.0575 -0.3030
   59MOL   C28324759   7.658   5.526   6.993  0.0927 -0.2351 -0.1542
   59MOL   C28424760   7.786   5.523   6.943  0.2732  0.2043  0.0184
   59MOL   C28524761   0.025   5.198   6.882  0.1331  0.0428  0.5818
   59MOL   H28624762   0.167   5.285   6.746 -0.2389  3.1388 -0.4858
   59MOL   H28724763   0.017   5.593   6.797 -1.1322 -1.1666 -1.2507
   59MOL   H28824764   0.169   5.517   6.793 -0.6366  0.5073 -2.2309
   59MOL   H28924765   7.969   5.468   7.225 -1.4725  0.3256  1.1398
   59MOL   H29024766   7.734   5.443   7.312 -1.3058  1.0390  0.2706
   59MOL   H29124767   7.550   5.496   7.183 -0.7397  0.0255 -2.3111
   59MOL   H29224768   7.575   5.555   6.930  0.2557 -2.2433 -1.3757
   59MOL   H29324769   7.797   5.538   6.836 -1.3749  1.0969 -0.0364
   59MOL   H29424770   7.901   5.157   6.867  0.9422 -2.4670  1.8390
   59MOL   H29524771   0.031   5.257   6.973 -0.9728 -0.9275  1.2966
   59MOL   C29624772   0.130   5.076   6.901  0.5134  0.2164  0.2701
   59MOL   O29724773   0.249   5.125   6.956  0.1404 -0.0324 -0.4590
   59MOL   C29824774   0.358   5.052   6.919 -0.2870  0.5553  0.5624
   59MOL   O29924775   0.475   5.090   6.998 -0.0293 -0.2226 -0.7217
   59MOL   C30024776   0.596   5.050   6.955 -0.4321  0.1348 -0.5391
   59MOL   C30124777   0.611   4.947   6.864  0.1685  0.0312  0.1788
   59MOL   C30224778   0.736   4.903   6.828  0.0425  0.2451 -0.3721
   59MOL   C30324779   0.847   4.965   6.886  0.1558 -0.1741 -0.4493
   59MOL   C30424780   0.834   5.062   6.989  0.3333  0.4181  0.2620
   59MOL   C30524781   0.708   5.109   7.024  0.0223 -0.4804 -0.4803
   59MOL   C30624782   0.067   4.967   6.993 -0.5085 -0.3886  0.5283
   59MOL   H30724783   0.143   5.021   6.808 -0.3440 -1.4839  1.1168
   59MOL   H30824784   0.382   5.093   6.821 -1.9435 -0.3477 -0.2436
   59MOL   H30924785   0.353   4.943   6.923 -0.7881  0.5569  0.0930
   59MOL   H31024786   0.524   4.903   6.817  1.6507 -0.0128 -2.5704
   59MOL   H31124787   0.743   4.839   6.742 -1.4877  0.3057 -0.5533
   59MOL   H31224788   0.946   4.942   6.849  0.3700 -0.0847  0.0523
   59MOL   H31324789   0.921   5.106   7.035 -0.2208  2.3800 -0.5192
   59MOL   H31424790   0.688   5.189   7.094 -1.7102 -0.5378 -0.8938
   59MOL   H31524791   0.138   4.887   7.015 -0.8971 -1.3639 -1.7314
   59MOL   H31624792   7.974   4.907   6.935 -1.0075  0.4458  0.2500
   59MOL   C31724793   0.018   5.006   7.136 -0.5440  0.0985 -0.3041
   59MOL   O31824794   0.122   4.989   7.239 -0.4542  0.1163  1.1355
   59MOL   C31924795   0.171   5.111   7.274 -0.3260  0.2636  0.1957
   59MOL   O32024796   0.087   5.176   7.357  0.3212 -0.1031 -0.2743
   59MOL   C32124797   0.138   5.279   7.420  0.2672 -0.0258 -0.3365
   59MOL   C32224798   0.080   5.301   7.548 -0.4625 -0.1728 -0.2794
   59MOL   C32324799   0.117   5.406   7.636 -0.5250  0.0119 -0.2626
   59MOL   C32424800   0.214   5.496   7.591  1.1241  0.3646  0.5434
   59MOL   C32524801   0.276   5.478   7.472  0.1618  0.0501 -0.0507
   59MOL   C32624802   0.237   5.372   7.383 -0.3616 -0.3973  0.0345
   59MOL   C32724803   7.881   4.921   7.188  0.3875 -0.1077  0.1656
   59MOL   H32824804   7.943   5.102   7.126  0.3753  0.7437  1.1112
   59MOL   H32924805   0.204   5.177   7.194 -1.0878  1.4652  0.8579
   59MOL   H33024806   0.260   5.091   7.334  0.7272  0.3397 -1.2958
   59MOL   H33124807   7.973   5.241   7.584 -2.0773  2.8209  1.2251
   59MOL   H33224808   0.082   5.425   7.736 -0.8929  0.4195 -0.4669
   59MOL   H33324809   0.238   5.578   7.656 -0.6203  1.1381  0.2415
   59MOL   H33424810   0.351   5.545   7.431 -0.7396 -0.3338 -2.4138
   59MOL   H33524811   0.297   5.365   7.293 -1.3801 -0.8656 -0.6251
   59MOL   H33624812   7.921   4.820   7.193 -0.6494 -0.4700  1.3956
   59MOL   H33724813   7.861   4.946   7.292 -1.7606  0.9746 -0.4712
   59MOL   C33824814   7.746   4.937   7.109  0.9065  0.0264  0.0266
   59MOL   O33924815   7.653   4.838   7.164  0.0525  0.3512  0.3669
   59MOL   C34024816   7.625   4.735   7.078 -0.2648  0.3486 -0.0225
   59MOL   O34124817   7.739   4.672   7.041 -0.1589  0.9669  0.0106
   59MOL   C34224818   7.799   4.596   7.137  0.0484 -0.4328  0.5378
   59MOL   C34324819   7.754   4.571   7.272 -0.1653 -0.4002  0.0068
   59MOL   C34424820   7.826   4.487   7.364  0.4140  0.4878  0.7831
   59MOL   C34524821   7.945   4.420   7.321 -0.4501 -0.1528  0.2069
   59MOL   C34624822   0.018   4.450   7.193 -0.0881 -1.1085  0.5623
   59MOL   C34724823   7.920   4.533   7.101  0.1156  0.7377  0.0055
   59MOL   C34824824   7.676   5.075   7.129  0.1911 -0.0865  0.4545
   59MOL   H34924825   7.766   4.916   7.004 -2.7139  0.8878 -0.9276
   59MOL   H35024826   7.570   4.770   6.990 -0.4665  0.7130  0.2459
   59MOL   H35124827   7.557   4.658   7.116 -1.6076  0.3414 -2.2941
   59MOL   H35224828   7.661   4.615   7.305 -0.5594 -1.1651 -0.0658
   59MOL   H35324829   7.798   4.469   7.467 -1.2642  1.1730  0.4553
   59MOL   H35424830   0.030   4.354   7.382  0.7602 -0.2883 -1.1317
   59MOL   H35524831   0.107   4.399   7.158 -0.1418 -1.4216  0.8734
   59MOL   H35624832   7.958   4.549   7.001  0.1419 -0.1510 -0.1264
   59MOL   H35724833   7.749   5.151   7.101  0.9013 -0.1165  2.1908
   59MOL   H35824834   7.651   5.080   7.235  0.0032 -2.4917  0.5582
   59MOL   C35924835   7.549   5.096   7.037 -0.0836  0.3780 -0.6796
   59MOL   O36024836   7.606   5.116   6.909  0.0035  0.1653  0.2257
   59MOL   C36124837   7.531   5.095   6.796  0.2849 -0.4877 -0.4300
   59MOL   O36224838   7.438   5.194   6.766  0.2849  0.0650  1.1648
   59MOL   C36324839   7.484   5.310   6.709 -0.0957  0.7082 -0.2243
   59MOL   C36424840   7.619   5.339   6.687  0.1935  0.1343 -0.1353
   59MOL   C36524841   7.653   5.458   6.618  0.1982  0.5170 -0.2355
   59MOL   C36624842   7.552   5.540   6.570  0.0310  0.1194  0.0282
   59MOL   C36724843   7.417   5.505   6.589 -0.9075 -0.9915  0.2666
   59MOL   C36824844   7.384   5.390   6.658 -0.1670  0.2231  0.0726
   59MOL   C36924845   7.464   5.212   7.091 -0.5849  0.5094  0.0870
   59MOL   H37024846   7.487   5.007   7.042 -1.0420  1.0685 -0.0792
   59MOL   H37124847   7.474   5.002   6.805 -1.3777  0.3314 -2.2980
   59MOL   H37224848   7.590   5.081   6.705 -2.0263 -2.3913 -1.7009
   59MOL   H37324849   7.700   5.280   6.727 -1.2401 -1.0486  1.0824
   59MOL   H37424850   7.757   5.486   6.612  0.5413 -0.2917  1.5756
   59MOL   H37524851   7.584   5.633   6.526 -0.4125  0.9650  1.4769
   59MOL   H37624852   7.338   5.571   6.556 -0.5136 -0.8661 -0.4372
   59MOL   H37724853   7.285   5.348   6.664  0.2314 -0.5256  1.8471
   59MOL   H37824854   7.488   5.295   7.024 -1.3174  0.9623  0.3741
   59MOL   H37924855   7.497   5.247   7.188 -0.9409  0.2015  0.3185
   59MOL   C38024856   7.307   5.188   7.090 -0.0698 -0.1344  0.0516
   59MOL   O38124857   7.246   5.309   7.121 -0.2317 -0.0242  0.4027
   59MOL   C38224858   7.254   5.423   7.036 -0.1178 -0.6060  0.1230
   59MOL   O38324859   7.137   5.504   7.063  0.4869  0.0892 -0.2405
   59MOL   C38424860   7.130   5.623   6.999 -0.5097 -0.3528  0.1328
   59MOL   C38524861   7.232   5.672   6.912  0.1215  0.0009  0.2216
   59MOL   C38624862   7.225   5.796   6.846 -0.1388  0.5756 -1.0047
   59MOL   C38724863   7.106   5.872   6.872  0.0546 -0.2188  0.6811
   59MOL   C38824864   7.006   5.827   6.962 -0.4232  0.3134 -0.0270
   59MOL   C38924865   7.019   5.705   7.023 -0.0138 -0.4533 -0.2201
   59MOL   C39024866   7.264   5.091   7.195  0.0147 -0.1850  0.4638
   59MOL   H39124867   7.280   5.156   6.989  0.3071 -1.1469  0.2621
   59MOL   H39224868   7.347   5.476   7.060 -0.0833 -0.6989  0.1971
   59MOL   H39324869   7.251   5.395   6.930  1.8989  0.7120 -0.3195
   59MOL   H39424870   7.314   5.610   6.879 -0.4836 -0.4482 -0.4707
   59MOL   H39524871   7.308   5.829   6.785  1.2421 -1.2598 -0.1473
   59MOL   H39624872   7.096   5.971   6.829 -0.6518  0.4022  2.2513
   59MOL   H39724873   6.918   5.883   6.987  0.5259  1.2824  1.1961
   59MOL   H39824874   6.939   5.682   7.091 -0.1435  0.6468  0.0028
   59MOL   H39924875   7.295   5.125   7.294 -1.6210 -1.6018  1.4848
   59MOL   H40024876   7.334   5.008   7.186 -0.6367 -0.9161  1.9822
   59MOL   C40124877   7.115   5.057   7.184  0.3241  0.1378  0.1542
   59MOL   O40224878   7.087   5.014   7.044 -0.4966 -0.0092 -0.9293
   59MOL   C40324879   6.953   5.038   7.006 -0.2247 -0.0053  0.7427
   59MOL   O40424880   6.930   5.170   6.971  0.0508 -0.5905 -0.2541
   59MOL   C40524881   6.817   5.199   6.909 -0.0582  0.2744 -0.2758
   59MOL   C40624882   6.808   5.330   6.859  0.5055  0.2194 -0.6118
   59MOL   C40724883   6.688   5.382   6.807 -0.2064 -0.3086  0.2299
   59MOL   C40824884   6.571   5.299   6.801 -1.0448  0.1898 -0.3701
   59MOL   C40924885   6.582   5.163   6.848 -0.1741 -0.1036 -1.3113
   59MOL   C41024886   6.707   5.110   6.889 -0.6014  0.7050  0.3850
   59MOL   C41124887   7.072   4.953   7.273 -0.1553  0.4721 -0.0391
   59MOL   H41224888   7.062   5.150   7.204 -0.3177 -0.5760  1.9127
   59MOL   H41324889   6.892   5.011   7.093  1.1161 -0.9290  1.4163
   59MOL   H41424890   6.926   4.976   6.921  1.1230 -2.4985  2.0504
   59MOL   H41524891   6.889   5.400   6.874 -0.6554  1.0861  1.9038
   59MOL   H41624892   6.683   5.485   6.777  0.1185 -0.6538 -1.0414
   59MOL   H41724893   6.475   5.339   6.775 -0.1479  1.6833 -1.4570
   59MOL   H41824894   6.505   5.088   6.845 -0.6269  0.2963  0.1399
   59MOL   H41924895   6.721   5.005   6.913  2.6668  1.3760  1.6042
   59MOL   H42024896   7.103   4.976   7.375  0.0837 -0.3606  0.0869
   59MOL   H42124897   7.139   4.871   7.244 -1.5190 -0.0807 -1.6834
   59MOL   H42224898   6.968   4.920   7.270  0.7075 -2.2811 -1.7664
   60MOL     C124899   6.051   1.490   1.692 -0.2073 -0.5452  0.2590
   60MOL     O224900   5.946   1.405   1.723  0.2003  0.7442  0.0002
   60MOL     C324901   5.950   1.361   1.855  0.2208  0.2841 -0.3583
   60MOL     O424902   5.876   1.449   1.934  0.5368  0.7041 -0.1694
   60MOL     C524903   5.859   1.416   2.069  0.5450 -0.5659 -0.4186
   60MOL     C624904   5.788   1.509   2.155 -0.3471  0.0702  0.7197
   60MOL     C724905   5.761   1.474   2.289  0.2048  0.2722 -0.1309
   60MOL     C824906   5.809   1.358   2.345 -0.6748  0.4651 -0.3431
   60MOL     C924907   5.887   1.269   2.266 -0.6820  0.0925  0.1753
   60MOL    C1024908   5.908   1.295   2.127 -0.4582 -0.0850 -0.3088
   60MOL    C1124909   6.175   1.409   1.621 -0.4011 -0.3042 -0.2844
   60MOL    H1224910   6.001   1.556   1.622 -2.5704 -0.6616  1.7824
   60MOL    H1324911   5.915   1.258   1.861  0.7515  0.1549  0.7632
   60MOL    H1424912   6.052   1.371   1.893  0.3425  0.6415 -0.7729
   60MOL    H1524913   5.744   1.594   2.106 -0.2517  0.2142  0.8802
   60MOL    H1624914   5.709   1.551   2.344 -2.5390 -1.1781 -0.5985
   60MOL    H1724915   5.796   1.331   2.448  0.4407  0.7814 -0.1139
   60MOL    H1824916   5.921   1.173   2.302 -2.8438 -0.7982 -0.1010
   60MOL    H1924917   5.965   1.217   2.078  2.6564 -1.6212  5.3854
   60MOL    H2024918   6.126   1.360   1.537 -0.1370 -2.8167  0.9845
   60MOL    H2124919   6.200   1.326   1.687  1.3372 -0.3805 -1.0349
   60MOL    H2224920   6.087   1.548   1.777  0.7949 -1.2438  0.3189
   60MOL    C2324921   6.291   1.491   1.571  0.0799 -0.0969  0.7921
   60MOL    O2424922   6.252   1.556   1.448 -0.2509  0.1430 -0.7981
   60MOL    C2524923   6.306   1.679   1.427 -0.2480 -0.3610  0.1790
   60MOL    O2624924   6.227   1.775   1.489 -0.1043 -0.0834  0.5412
   60MOL    C2724925   6.257   1.907   1.472  0.0539  0.0272 -0.0852
   60MOL    C2824926   6.190   1.999   1.555  0.2952  1.3103 -0.2930
   60MOL    C2924927   6.219   2.133   1.549  0.1358  0.0551 -0.0228
   60MOL    C3024928   6.311   2.187   1.460  0.4961 -0.2313 -0.4913
   60MOL    C3124929   6.385   2.102   1.373 -0.0925  0.5289 -0.3792
   60MOL    C3224930   6.359   1.962   1.385 -0.7289  0.1748 -0.5993
   60MOL    C3324931   6.406   1.402   1.523 -1.2836 -1.2080  0.1402
   60MOL    H3424932   6.325   1.561   1.647  1.8532 -0.7620  0.6380
   60MOL    H3524933   6.317   1.698   1.321  1.4599 -0.5100  0.3245
   60MOL    H3624934   6.406   1.690   1.470  0.9674  0.0508 -2.6835
   60MOL    H3724935   6.117   1.959   1.624  1.4591 -0.8532 -0.2390
   60MOL    H3824936   6.163   2.195   1.618  1.3385 -0.2667  1.2629
   60MOL    H3924937   6.328   2.294   1.451 -0.6547  0.0045  0.1611
   60MOL    H4024938   6.461   2.136   1.304  0.1791 -0.6385 -0.6573
   60MOL    H4124939   6.405   1.899   1.310 -0.8196  0.4467 -0.8812
   60MOL    H4224940   6.486   1.459   1.475  0.8143 -2.9955  1.4605
   60MOL    H4324941   6.382   1.327   1.448 -1.3915  0.3451 -1.4200
   60MOL    C4424942   6.476   1.316   1.634  0.4403 -0.1892  0.0337
   60MOL    O4524943   6.494   1.401   1.743 -0.4491  1.1610  0.2235
   60MOL    C4624944   6.505   1.332   1.865 -0.8359  0.2256 -0.4113
   60MOL    O4724945   6.372   1.313   1.918  0.0438 -0.2472 -0.4725
   60MOL    C4824946   6.365   1.335   2.057  0.3347  0.6101  0.0492
   60MOL    C4924947   6.247   1.396   2.115 -0.3521 -0.6207 -0.3881
   60MOL    C5024948   6.239   1.416   2.254 -0.1714 -0.1324  0.3183
   60MOL    C5124949   6.348   1.390   2.335 -0.1847  0.1091 -0.0920
   60MOL    C5224950   6.462   1.326   2.281  0.3685 -0.5186 -0.0214
   60MOL    C5324951   6.465   1.304   2.144 -0.3045  0.3656  0.7629
   60MOL    C5424952   6.621   1.270   1.591  0.4285  0.4726  0.5527
   60MOL    H5524953   6.415   1.232   1.666  0.3325 -0.0861  0.1018
   60MOL    H5624954   6.574   1.381   1.933 -0.1771 -2.6875  1.0726
   60MOL    H5724955   6.545   1.231   1.856 -1.3335 -0.0652  0.5790
   60MOL    H5824956   6.160   1.421   2.056  0.1059 -1.0177 -1.2389
   60MOL    H5924957   6.153   1.470   2.293 -1.6289 -0.5902 -2.1268
   60MOL    H6024958   6.359   1.415   2.439  0.1575  0.1935 -0.1486
   60MOL    H6124959   6.545   1.305   2.347 -0.1653 -0.7324  0.5781
   60MOL    H6224960   6.554   1.256   2.105 -0.0162  1.1513  0.4556
   60MOL    H6324961   6.683   1.358   1.581  0.5225  0.2400 -1.0460
   60MOL    H6424962   6.661   1.208   1.671  1.1676  1.5177  0.9987
   60MOL    C6524963   6.642   1.192   1.455 -0.8489 -0.2011  0.7406
   60MOL    O6624964   6.773   1.145   1.461 -0.1642 -0.4304  0.3662
   60MOL    C6724965   6.861   1.200   1.367  0.4471 -0.0305  0.0259
   60MOL    O6824966   6.886   1.336   1.395 -0.0646 -0.0534 -0.2671
   60MOL    C6924967   6.968   1.375   1.496 -0.2653 -0.2934 -0.3773
   60MOL    C7024968   7.033   1.502   1.473 -0.5753  0.1886 -0.1881
   60MOL    C7124969   7.113   1.558   1.574 -0.4148 -0.5743 -0.0811
   60MOL    C7224970   7.145   1.481   1.693 -0.3664  0.2404 -0.5304
   60MOL    C7324971   7.092   1.348   1.709 -0.1790 -0.1925 -0.3730
   60MOL    C7424972   7.004   1.297   1.612 -0.5194  0.7503 -0.2386
   60MOL    C7524973   6.553   1.068   1.450 -0.8254 -0.0200  0.3637
   60MOL    H7624974   6.621   1.260   1.372 -1.0631  1.0882  1.8410
   60MOL    H7724975   6.818   1.195   1.267 -0.7088 -1.3716  0.5740
   60MOL    H7824976   6.953   1.142   1.365 -0.3137 -1.2850  1.0916
   60MOL    H7924977   6.999   1.559   1.388 -0.1099 -2.2870 -2.0979
   60MOL    H8024978   7.150   1.659   1.563 -0.3622 -0.6409 -0.5424
   60MOL    H8124979   7.213   1.526   1.764  0.3180  1.8907 -2.1965
   60MOL    H8224980   7.110   1.288   1.797 -0.9463 -1.1980 -0.8941
   60MOL    H8324981   6.963   1.199   1.631  0.5882  0.7693  2.4149
   60MOL    H8424982   6.583   0.997   1.527  1.3172  0.9512  0.4333
   60MOL    H8524983   6.448   1.089   1.473 -0.3557  3.4899 -0.4489
   60MOL    C8624984   6.564   0.996   1.312 -0.0997  0.4929  0.1414
   60MOL    O8724985   6.673   0.897   1.335 -0.0405 -0.4870  0.3565
   60MOL    C8824986   6.751   0.864   1.215 -0.0200  0.0002 -0.2002
   60MOL    O8924987   6.882   0.828   1.252 -0.5195  0.5504 -0.7971
   60MOL    C9024988   6.977   0.816   1.153 -0.0077 -0.0097 -0.5342
   60MOL    C9124989   7.104   0.777   1.202  0.2167  0.5425  0.2642
   60MOL    C9224990   7.209   0.757   1.112  0.0375  0.7995 -0.2267
   60MOL    C9324991   7.193   0.779   0.977 -0.0714  0.3445  0.7235
   60MOL    C9424992   7.066   0.817   0.920  0.6353  0.1606 -0.4849
   60MOL    C9524993   6.960   0.838   1.010  0.2931 -0.3987  0.3983
   60MOL    C9624994   6.434   0.932   1.246 -0.3355  0.0951 -0.5685
   60MOL    H9724995   6.607   1.067   1.241  0.8413 -1.1882 -1.0223
   60MOL    H9824996   6.758   0.950   1.149 -2.4662  0.2692 -0.1453
   60MOL    H9924997   6.695   0.787   1.163 -1.1460 -0.0370  1.0593
   60MOL   H10024998   7.120   0.762   1.308  1.7208  1.3341  0.1597
   60MOL   H10124999   7.304   0.722   1.152 -0.1708 -0.4708 -0.8317
   60MOL   H10225000   7.278   0.760   0.914  0.7702 -0.1426  1.9905
   60MOL   H10325001   7.053   0.834   0.814 -1.2377 -1.1706 -0.4807
   60MOL   H10425002   6.864   0.864   0.967 -0.6616 -2.2103  1.3943
   60MOL   H10525003   6.450   0.847   1.181 -1.5886 -1.4655  1.1013
   60MOL   H10625004   6.374   0.881   1.321  2.3228 -2.1606  0.1279
   60MOL   C10725005   6.333   1.037   1.192  0.4808  0.0192  1.3060
   60MOL   O10825006   6.400   1.098   1.081  0.4830 -0.9031 -0.1482
   60MOL   C10925007   6.382   1.236   1.062 -0.3288 -0.3484 -0.2833
   60MOL   O11025008   6.449   1.304   1.161  0.1489 -0.1667 -0.2891
   60MOL   C11125009   6.481   1.436   1.149  0.2476  0.6865 -0.2303
   60MOL   C11225010   6.403   1.522   1.067 -0.7200 -0.2688 -0.2692
   60MOL   C11325011   6.433   1.659   1.050  0.8883 -0.5435  0.5927
   60MOL   C11425012   6.543   1.711   1.118  0.4017 -0.3339  0.5695
   60MOL   C11525013   6.624   1.633   1.202  0.4280 -0.4518 -0.5354
   60MOL   C11625014   6.592   1.497   1.217 -0.1532 -0.5144  0.9174
   60MOL   C11725015   6.202   0.976   1.134  0.6692 -0.0022  0.3520
   60MOL   H11825016   6.309   1.109   1.271 -1.0637  1.0644 -0.0910
   60MOL   H11925017   6.277   1.263   1.075 -0.1929 -0.1847  0.5283
   60MOL   H12025018   6.413   1.267   0.962  0.1367  0.1279  0.0068
   60MOL   H12125019   6.326   1.483   1.003  0.5050 -0.0996 -1.8889
   60MOL   H12225020   6.385   1.726   0.980 -0.3340 -0.2322  1.7085
   60MOL   H12325021   6.555   1.819   1.117 -0.4035 -0.2437  0.6385
   60MOL   H12425022   6.703   1.684   1.254 -0.9936 -0.2601  1.5094
   60MOL   H12525023   6.647   1.442   1.292  0.8520 -1.5533 -0.5677
   60MOL   H12625024   6.133   1.057   1.113 -0.1851 -0.3181  1.8687
   60MOL   H12725025   6.161   0.915   1.215  1.8615 -1.6488 -0.2619
   60MOL   C12825026   6.212   0.882   1.016  0.3710  0.1597 -0.1892
   60MOL   O12925027   6.104   0.905   0.926 -0.0815 -0.7019  0.2015
   60MOL   C13025028   6.117   1.017   0.844 -0.4444  0.0248  0.3736
   60MOL   O13125029   6.004   1.027   0.756 -0.2791 -0.1812  0.0172
   60MOL   C13225030   6.008   0.952   0.636 -0.8023  1.3102 -0.2470
   60MOL   C13325031   6.087   0.840   0.622 -0.9437  0.6245 -0.5366
   60MOL   C13425032   6.081   0.765   0.506  0.9095 -0.2491  0.0254
   60MOL   C13525033   5.997   0.806   0.398 -0.0425 -0.7580 -0.7013
   60MOL   C13625034   5.911   0.912   0.420  0.9703 -0.4528 -0.0596
   60MOL   C13725035   5.921   0.991   0.529  0.0790  0.3382 -0.2231
   60MOL   C13825036   6.195   0.736   1.059 -0.4114  0.4899  0.8818
   60MOL   H13925037   6.303   0.895   0.957 -0.1652  2.5539 -0.5686
   60MOL   H14025038   6.208   1.011   0.785 -0.7884 -0.0833 -0.1522
   60MOL   H14125039   6.116   1.112   0.897 -0.2040  0.4684 -0.4049
   60MOL   H14225040   6.142   0.801   0.707 -1.1559  1.7826  0.1340
   60MOL   H14325041   6.130   0.669   0.506  1.6482  0.1086  1.8104
   60MOL   H14425042   5.982   0.753   0.305 -0.2512 -0.4320 -0.8566
   60MOL   H14525043   5.833   0.941   0.351  0.9588 -0.2519  0.0355
   60MOL   H14625044   5.858   1.079   0.542 -0.7203 -0.5144  1.8612
   60MOL   H14725045   6.252   0.722   1.151 -1.7232  1.4200  1.8590
   60MOL   H14825046   6.089   0.727   1.084 -1.3293 -0.5109 -3.0507
   60MOL   C14925047   6.241   0.628   0.953  0.3780 -0.1205  0.0887
   60MOL   O15025048   6.388   0.643   0.953 -0.3903 -0.0315 -0.9453
   60MOL   C15125049   6.454   0.597   0.838  0.4155  0.3537  0.3075
   60MOL   O15225050   6.431   0.675   0.723 -0.3187  0.5350  0.4040
   60MOL   C15325051   6.489   0.799   0.714 -0.1731 -0.3661  0.1376
   60MOL   C15425052   6.558   0.862   0.821  0.2133  0.3987 -0.6698
   60MOL   C15525053   6.604   0.989   0.802  0.4965  0.2341 -0.2285
   60MOL   C15625054   6.587   1.057   0.680 -0.6663 -0.2118 -0.2304
   60MOL   C15725055   6.517   1.000   0.572 -0.8210 -0.5066  0.8871
   60MOL   C15825056   6.479   0.864   0.589 -0.0919  0.4625  0.1247
   60MOL   C15925057   6.182   0.489   0.985  0.5538 -0.5240  0.3222
   60MOL   H16025058   6.215   0.653   0.850 -0.8959 -2.1770 -0.1137
   60MOL   H16125059   6.561   0.578   0.846  0.1066 -1.5806  0.0784
   60MOL   H16225060   6.420   0.496   0.813  4.3657 -0.7120 -1.1823
   60MOL   H16325061   6.565   0.801   0.910 -3.0922  1.6042  0.4984
   60MOL   H16425062   6.640   1.051   0.882 -1.8566 -0.0561  1.1111
   60MOL   H16525063   6.626   1.156   0.659 -1.1834  0.2490  0.9671
   60MOL   H16625064   6.504   1.057   0.482  2.0193 -0.6044  0.3848
   60MOL   H16725065   6.435   0.813   0.504  0.5139 -0.8176  0.5731
   60MOL   H16825066   6.180   0.497   1.094 -0.1684 -0.3624  0.3022
   60MOL   H16925067   6.246   0.405   0.958  0.1612 -0.5889 -0.4246
   60MOL   C17025068   6.036   0.453   0.958 -1.0447 -0.1345  0.3979
   60MOL   O17125069   6.017   0.481   0.823  0.5326  0.4035 -0.0270
   60MOL   C17225070   5.917   0.571   0.794  0.0057  0.1872  0.5932
   60MOL   O17325071   5.791   0.515   0.807  0.2724  0.6808 -0.4143
   60MOL   C17425072   5.684   0.575   0.739 -0.1039 -0.1124 -0.3221
   60MOL   C17525073   5.681   0.709   0.688  0.1066  0.4722 -0.9031
   60MOL   C17625074   5.566   0.768   0.632 -0.0279 -0.0298  0.2531
   60MOL   C17725075   5.456   0.680   0.607  0.2564  0.0993  0.1168
   60MOL   C17825076   5.455   0.551   0.663  0.0683  0.3829  0.7270
   60MOL   C17925077   5.568   0.493   0.722  0.0112  0.2259  0.0310
   60MOL   C18025078   5.988   0.312   0.984  0.4593 -0.4730  0.2496
   60MOL   H18125079   5.983   0.522   1.023  0.1817  1.1731  0.0316
   60MOL   H18225080   5.923   0.593   0.688  1.5080 -0.0676  0.6186
   60MOL   H18325081   5.922   0.657   0.860  2.7743  0.0418  0.6331
   60MOL   H18425082   5.767   0.773   0.697 -0.3911  1.4585 -2.7413
   60MOL   H18525083   5.558   0.868   0.594 -1.6580 -0.6437 -1.0753
   60MOL   H18625084   5.358   0.716   0.583  1.3678  1.7919 -2.0192
   60MOL   H18725085   5.364   0.492   0.665  0.8003 -0.8019 -0.1551
   60MOL   H18825086   5.567   0.392   0.759  1.5793  0.0218 -0.4320
   60MOL   H18925087   5.881   0.313   0.959  0.1702 -0.9551  1.4399
   60MOL   H19025088   6.041   0.252   0.911 -1.6000 -0.8451 -0.9771
   60MOL   C19125089   6.037   0.239   1.108  0.6148 -0.1379 -0.2034
   60MOL   O19225090   5.988   0.103   1.112 -0.7049 -0.4300  0.3922
   60MOL   C19325091   6.030   0.014   1.010  0.5335  0.0771 -1.0376
   60MOL   O19425092   6.163   0.025   0.988 -0.4588  0.1110  0.0914
   60MOL   C19525093   6.256   7.956   1.082 -0.8851  0.4875  0.4143
   60MOL   C19625094   6.390   0.011   1.056  0.4717  0.5067  0.4280
   60MOL   C19725095   6.495   7.921   1.126 -0.4368  0.9485 -0.1885
   60MOL   C19825096   6.473   7.820   1.217  0.0858  0.4997  0.6667
   60MOL   C19925097   6.346   7.804   1.256  0.0299 -0.0605  0.1509
   60MOL   C20025098   6.239   7.865   1.184  0.2139 -0.4419  0.6463
   60MOL   C20125099   5.971   0.298   1.239  0.1041  0.3164 -0.1026
   60MOL   H20225100   6.145   0.237   1.117  0.5460 -1.5430  0.4046
   60MOL   H20325101   5.977   0.022   0.915 -1.7126  0.5634  0.2030
   60MOL   H20425102   6.020   7.889   1.053  0.9339  1.1733  1.7233
   60MOL   H20525103   6.417   0.077   0.975  0.8056  0.7913  0.7703
   60MOL   H20625104   6.595   7.928   1.086 -0.0897 -0.0181  0.4986
   60MOL   H20725105   6.561   7.777   1.262  1.1683  1.8127 -0.1411
   60MOL   H20825106   6.319   7.742   1.341 -2.8925 -0.0383 -0.7108
   60MOL   H20925107   6.141   7.829   1.212  0.9452 -0.7321  3.0191
   60MOL   H21025108   5.998   0.402   1.253 -0.5492  0.3474  1.0098
   60MOL   H21125109   5.862   0.298   1.228  0.3732 -1.5177 -3.1716
   60MOL   C21225110   6.009   0.225   1.376 -0.3579 -0.6238 -0.4562
   60MOL   O21325111   6.148   0.261   1.393  0.5548  0.8009 -0.0104
   60MOL   C21425112   6.233   0.165   1.455 -0.6730  0.2254 -0.8973
   60MOL   O21525113   6.212   0.155   1.593  0.0880  0.0163 -0.1155
   60MOL   C21625114   6.246   0.264   1.669  0.0034  0.2311  0.0688
   60MOL   C21725115   6.346   0.356   1.638  0.2389  0.2034  0.3438
   60MOL   C21825116   6.343   0.478   1.707  0.3693  0.1530 -0.1690
   60MOL   C21925117   6.255   0.507   1.807 -0.3681 -0.0580  0.2276
   60MOL   C22025118   6.160   0.410   1.846  0.0874  0.1052  0.7995
   60MOL   C22125119   6.162   0.286   1.782 -0.1779  1.4517  0.2187
   60MOL   C22225120   5.915   0.284   1.489 -0.4346  0.2876 -0.6913
   60MOL   H22325121   5.996   0.117   1.368 -0.0400 -0.6226 -0.9717
   60MOL   H22425122   6.333   0.202   1.432  0.4811 -1.1961  1.6700
   60MOL   H22525123   6.227   0.069   1.402  0.2400 -0.3933  0.1168
   60MOL   H22625124   6.417   0.341   1.558 -1.0151  0.7239 -0.8947
   60MOL   H22725125   6.417   0.553   1.680  0.9924 -0.8125 -1.1778
   60MOL   H22825126   6.258   0.599   1.863  0.8255 -0.1752  0.3692
   60MOL   H22925127   6.098   0.419   1.934  2.6039  1.9601  2.4662
   60MOL   H23025128   6.074   0.225   1.796  0.2992  0.9348  1.0455
   60MOL   H23125129   5.820   0.277   1.437 -0.7389  0.7071 -0.2000
   60MOL   H23225130   5.917   0.214   1.573 -1.9245  2.0956  0.8825
   60MOL   C23325131   5.928   0.430   1.552  0.1386 -0.6606  0.6431
   60MOL   O23425132   5.950   0.528   1.448 -0.6669  0.3840  0.1062
   60MOL   C23525133   6.073   0.599   1.440  0.2702  0.1330 -0.2049
   60MOL   O23625134   6.085   0.687   1.548 -0.0487 -0.2228 -0.0545
   60MOL   C23725135   6.063   0.815   1.528  0.2812  0.3774 -0.3837
   60MOL   C23825136   5.978   0.871   1.434 -0.1453 -0.2117  0.0210
   60MOL   C23925137   5.963   1.007   1.419 -0.0443  0.6080  0.4192
   60MOL   C24025138   6.033   1.100   1.494  0.0173 -0.2192  0.2805
   60MOL   C24125139   6.122   1.050   1.592 -0.0589 -0.5046  0.0274
   60MOL   C24225140   6.126   0.907   1.613 -0.1853 -0.6012  0.2599
   60MOL   C24325141   5.806   0.486   1.619 -0.0003  0.2743  0.2368
   60MOL   H24425142   6.006   0.444   1.626  0.3238 -0.2524  0.3735
   60MOL   H24525143   6.079   0.646   1.342 -0.0396 -0.9448 -0.7423
   60MOL   H24625144   6.153   0.527   1.457  1.2328  1.8445  2.9007
   60MOL   H24725145   5.911   0.800   1.387  0.3988  0.1396 -1.3028
   60MOL   H24825146   5.888   1.036   1.346 -0.6717 -0.3445  0.6629
   60MOL   H24925147   6.022   1.206   1.479  2.9062  0.3530  1.8053
   60MOL   H25025148   6.189   1.100   1.661  1.6352 -3.0963  0.3386
   60MOL   H25125149   6.200   0.868   1.681  1.2406  2.2898  0.4502
   60MOL   H25225150   5.820   0.593   1.604 -1.6872  0.6391  1.1913
   60MOL   H25325151   5.714   0.467   1.564  0.5288  0.6729 -0.8035
   60MOL   C25425152   5.789   0.464   1.770 -0.2057 -0.3140  0.1962
   60MOL   O25525153   5.699   0.567   1.802  0.2314 -0.2448  0.0010
   60MOL   C25625154   5.766   0.692   1.832  0.0629 -0.4075 -0.7480
   60MOL   O25725155   5.864   0.667   1.936  0.6379 -0.2364  0.1640
   60MOL   C25825156   5.941   0.766   1.976  0.0705  0.8727 -0.7189
   60MOL   C25925157   6.041   0.732   2.070  0.3754 -0.1424  0.2262
   60MOL   C26025158   6.139   0.827   2.100 -0.0898 -0.2299 -0.2162
   60MOL   C26125159   6.137   0.956   2.040 -0.9642  0.6201  1.0652
   60MOL   C26225160   6.031   0.991   1.952  0.6015 -0.1417 -0.2940
   60MOL   C26325161   5.936   0.895   1.923  0.2360 -0.6886  0.6224
   60MOL   C26425162   5.709   0.333   1.794 -0.0631  0.7249 -0.4543
   60MOL   H26525163   5.879   0.464   1.831  0.4456  0.6931 -0.7445
   60MOL   H26625164   5.692   0.758   1.876  0.7674 -0.0909 -0.0140
   60MOL   H26725165   5.815   0.746   1.751 -0.8701 -0.2324 -1.1907
   60MOL   H26825166   6.058   0.630   2.102  1.2364 -0.6000 -1.5891
   60MOL   H26925167   6.222   0.807   2.166 -0.9626  2.8295  1.9450
   60MOL   H27025168   6.206   1.038   2.054 -1.9406  2.1873 -2.5040
   60MOL   H27125169   6.024   1.091   1.912  1.5465  0.0162 -0.0701
   60MOL   H27225170   5.860   0.931   1.855  1.2453  0.8493  0.2862
   60MOL   H27325171   5.608   0.352   1.757 -0.5192 -0.2107  0.2872
   60MOL   H27425172   5.749   0.247   1.740 -1.0255  0.3441 -0.5747
   60MOL   C27525173   5.692   0.282   1.944  0.0908  0.6435  0.8768
   60MOL   O27625174   5.826   0.245   1.970  0.0008 -0.2118 -0.6925
   60MOL   C27725175   5.844   0.106   1.983  0.0217 -0.4001  0.3658
   60MOL   O27825176   5.973   0.062   1.966  0.3072  0.2647  0.0831
   60MOL   C27925177   6.005   7.906   2.004  0.0715  0.2710  0.1663
   60MOL   C28025178   5.905   7.820   2.050 -0.2524 -0.1077  0.3299
   60MOL   C28125179   5.946   7.686   2.079 -0.2722 -0.6600  0.1147
   60MOL   C28225180   6.084   7.652   2.054  0.9438  0.3606  0.0984
   60MOL   C28325181   6.180   7.748   2.023 -0.4052 -0.2471 -0.3703
   60MOL   C28425182   6.139   7.877   1.995 -0.5129 -0.5210  0.2739
   60MOL   C28525183   5.645   0.396   2.044 -0.1046  0.4790  0.1992
   60MOL   H28625184   5.618   0.202   1.939 -0.6437  1.2699  1.5798
   60MOL   H28725185   5.777   0.057   1.913 -0.1392  0.8275 -0.3594
   60MOL   H28825186   5.804   0.088   2.082 -0.4755 -0.8031  0.0922
   60MOL   H28925187   5.807   7.849   2.085 -0.3873 -0.1481 -0.0190
   60MOL   H29025188   5.879   7.612   2.120 -0.6724 -0.1239  0.4394
   60MOL   H29125189   6.105   7.547   2.057 -0.5589  0.0509  0.5851
   60MOL   H29225190   6.284   7.722   2.011 -0.2143  0.6218 -0.6134
   60MOL   H29325191   6.203   7.949   1.948 -0.5308 -1.7286 -1.6647
   60MOL   H29425192   5.565   0.456   2.002  0.0585  0.1471 -0.5941
   60MOL   H29525193   5.724   0.470   2.060  1.0996 -0.7983  0.3080
   60MOL   C29625194   5.628   0.361   2.193 -0.1776  0.2449  0.5079
   60MOL   O29725195   5.619   0.488   2.267  0.0784 -0.4168 -0.1705
   60MOL   C29825196   5.731   0.520   2.350 -0.4999 -0.1989  0.1748
   60MOL   O29925197   5.725   0.641   2.422 -0.4005  0.5945  0.1871
   60MOL   C30025198   5.709   0.758   2.349 -0.0230  0.4740  0.0166
   60MOL   C30125199   5.725   0.779   2.210 -0.0837 -0.4562 -0.5251
   60MOL   C30225200   5.699   0.909   2.154 -0.3217  0.4389  0.5270
   60MOL   C30325201   5.659   1.011   2.242  0.0526 -0.2807  0.2984
   60MOL   C30425202   5.659   0.997   2.380 -0.5350  0.6729 -0.2393
   60MOL   C30525203   5.672   0.867   2.434  0.1307 -0.2454  0.9969
   60MOL   C30625204   5.498   0.276   2.217  0.3821 -0.6776 -0.1433
   60MOL   H30725205   5.719   0.304   2.215  0.0432 -0.1105 -1.2962
   60MOL   H30825206   5.830   0.505   2.307 -0.2866  0.1645  0.5267
   60MOL   H30925207   5.732   0.437   2.419  3.0689 -2.3435 -2.2789
   60MOL   H31025208   5.756   0.700   2.144 -0.7002  0.4564 -1.9342
   60MOL   H31125209   5.687   0.918   2.047  1.9295 -1.0545  0.1309
   60MOL   H31225210   5.631   1.111   2.212  0.1680 -0.6761 -1.1454
   60MOL   H31325211   5.631   1.082   2.441 -0.1406  0.4760  0.2199
   60MOL   H31425212   5.661   0.842   2.538  0.7498 -1.1635  0.8549
   60MOL   H31525213   5.492   0.182   2.163  1.8099 -0.6486 -0.3795
   60MOL   H31625214   5.411   0.336   2.193  0.2216 -1.2495 -0.9825
   60MOL   C31725215   5.482   0.240   2.360 -0.6712  0.2367 -0.1920
   60MOL   O31825216   5.589   0.148   2.387 -0.2549  0.0284  0.0009
   60MOL   C31925217   5.613   0.119   2.524 -0.1588 -0.2543 -0.8730
   60MOL   O32025218   5.744   0.076   2.555 -0.7846  0.4346 -0.4759
   60MOL   C32125219   5.794   7.941   2.494 -0.0325  0.0899  0.2079
   60MOL   C32225220   5.720   7.860   2.405  0.4308 -0.0258 -0.1715
   60MOL   C32325221   5.779   7.746   2.355  0.4921  0.3321 -0.1232
   60MOL   C32425222   5.916   7.719   2.381  0.3513 -0.0077 -0.3053
   60MOL   C32525223   5.990   7.793   2.470  0.0343  0.0791 -0.1067
   60MOL   C32625224   5.930   7.908   2.525  0.1535  0.2964 -0.3645
   60MOL   C32725225   5.341   0.176   2.390  1.1734  0.2166  0.6580
   60MOL   H32825226   5.496   0.327   2.423  1.2490  1.3559 -2.0628
   60MOL   H32925227   5.544   0.041   2.558 -1.7002  1.4334 -0.0382
   60MOL   H33025228   5.586   0.201   2.591  0.1734 -1.1445  0.3728
   60MOL   H33125229   5.620   7.891   2.378  0.1596 -0.0460  0.7965
   60MOL   H33225230   5.714   7.682   2.298 -2.2821  2.9579 -0.0593
   60MOL   H33325231   5.957   7.624   2.348 -0.4606 -0.5795  0.2946
   60MOL   H33425232   6.095   7.772   2.483  0.2183  0.9758 -0.0655
   60MOL   H33525233   5.987   7.972   2.590  1.1609 -1.9211  1.0195
   60MOL   H33625234   5.307   0.123   2.302  1.2790 -0.6062  1.1037
   60MOL   H33725235   5.332   0.099   2.466 -0.9807  0.5871  0.7976
   60MOL   C33825236   5.230   0.281   2.418 -0.6349  0.8730  0.0730
   60MOL   O33925237   5.211   0.344   2.293  0.4829  0.0262 -0.5800
   60MOL   C34025238   5.150   0.470   2.300  1.0977  0.5423  0.3302
   60MOL   O34125239   5.240   0.558   2.350 -0.1152 -0.5990  0.2056
   60MOL   C34225240   5.209   0.693   2.363 -0.0096  0.5085 -0.0358
   60MOL   C34325241   5.084   0.744   2.331 -0.1792  0.6915  0.4247
   60MOL   C34425242   5.049   0.876   2.347 -0.2130 -0.6101  0.2164
   60MOL   C34525243   5.154   0.962   2.393  1.0946 -0.2408 -0.9018
   60MOL   C34625244   5.286   0.916   2.415  0.2482  0.0767 -0.8710
   60MOL   C34725245   5.312   0.782   2.399  0.6858  0.0954 -0.2940
   60MOL   C34825246   5.096   0.218   2.464  0.2598 -0.0150 -0.4318
   60MOL   H34925247   5.264   0.350   2.496  1.2048 -0.3233  0.3467
   60MOL   H35025248   5.061   0.466   2.363  0.1420 -2.4204 -1.1156
   60MOL   H35125249   5.117   0.511   2.204  0.9605 -0.2905  0.0139
   60MOL   H35225250   5.000   0.676   2.321  1.2766 -1.2459  1.0757
   60MOL   H35325251   4.954   0.914   2.313  0.1850  1.7262  1.6628
   60MOL   H35425252   5.131   1.066   2.409  1.4857 -0.5279  1.7245
   60MOL   H35525253   5.364   0.981   2.452  1.9671 -0.9529 -2.5804
   60MOL   H35625254   5.409   0.742   2.423 -0.0317 -1.1144  0.6720
   60MOL   H35725255   5.097   0.114   2.430  0.3283 -0.3975  0.7221
   60MOL   H35825256   5.015   0.257   2.402 -2.6683 -2.7387  1.5282
   60MOL   C35925257   5.058   0.240   2.609  0.3103  0.8138 -0.2530
   60MOL   O36025258   5.037   0.382   2.624  0.0949 -0.4507 -0.2620
   60MOL   C36125259   4.985   0.436   2.741 -0.6076  0.4332  0.0443
   60MOL   O36225260   5.069   0.454   2.847 -0.0911 -0.1130 -0.4374
   60MOL   C36325261   5.187   0.528   2.834 -0.2547  0.3775 -0.5366
   60MOL   C36425262   5.267   0.509   2.949  0.2908 -0.6185  0.0025
   60MOL   C36525263   5.391   0.570   2.946  0.2926 -0.3983 -0.1184
   60MOL   C36625264   5.442   0.644   2.836  0.6083  0.0288 -0.2339
   60MOL   C36725265   5.359   0.664   2.729 -0.6690 -0.1681 -0.5230
   60MOL   C36825266   5.232   0.603   2.722 -0.1058  0.3078  0.0423
   60MOL   C36925267   5.145   0.176   2.711  0.9530  0.1245  0.1132
   60MOL   H37025268   4.957   0.201   2.622 -0.1632  2.5389  1.4510
   60MOL   H37125269   4.893   0.384   2.765  0.6461 -1.4975  0.7551
   60MOL   H37225270   4.952   0.537   2.716  0.7822  0.3880 -2.1386
   60MOL   H37325271   5.237   0.448   3.033 -2.2275 -2.1567 -1.9352
   60MOL   H37425272   5.445   0.565   3.040  1.2447  2.1904 -0.4925
   60MOL   H37525273   5.536   0.696   2.844  0.3503  1.1299 -3.3459
   60MOL   H37625274   5.396   0.730   2.651 -2.5774  1.1247 -0.3715
   60MOL   H37725275   5.163   0.607   2.639  0.1536 -1.5554 -0.2874
   60MOL   H37825276   5.103   0.202   2.808 -0.2753 -2.3940  0.2864
   60MOL   H37925277   5.241   0.227   2.723  1.9268 -1.6634  0.1298
   60MOL   C38025278   5.144   0.017   2.703  0.3752  0.3655  0.4945
   60MOL   O38125279   5.020   7.935   2.732 -0.3339  0.1085 -0.0192
   60MOL   C38225280   4.955   7.861   2.624  0.1138  0.1208 -0.3946
   60MOL   O38325281   4.914   7.950   2.527 -0.5480 -0.2317 -0.1484
   60MOL   C38425282   4.820   7.906   2.438 -0.0783 -0.0555 -0.4117
   60MOL   C38525283   4.809   7.777   2.390  0.3098  0.3146 -0.4516
   60MOL   C38625284   4.714   7.746   2.292  0.0710  0.3501  0.7303
   60MOL   C38725285   4.624   7.847   2.250 -0.6546 -0.0773 -0.8176
   60MOL   C38825286   4.638   7.974   2.301 -0.0447 -0.0092  0.5390
   60MOL   C38925287   4.741   0.031   2.383 -0.5926 -0.7679  0.3592
   60MOL   C39025288   5.253   7.920   2.788  0.3729 -0.4559  0.0592
   60MOL   H39125289   5.173   7.959   2.604  0.9205  2.7659 -0.2081
   60MOL   H39225290   5.024   7.790   2.578  0.1415 -0.4299  0.4900
   60MOL   H39325291   4.872   7.817   2.680 -0.5858  0.8411 -0.8660
   60MOL   H39425292   4.880   7.710   2.435 -1.0906  0.3993  1.9315
   60MOL   H39525293   4.700   7.652   2.241  3.0475  0.0087  0.4669
   60MOL   H39625294   4.546   7.824   2.180  0.7684 -1.8447 -1.8674
   60MOL   H39725295   4.565   0.069   2.264  0.1101  0.4594  1.1371
   60MOL   H39825296   4.740   0.131   2.424 -0.6954 -1.5037  2.1527
   60MOL   H39925297   5.243   7.931   2.896 -0.8703 -2.9891  0.2299
   60MOL   H40025298   5.347   7.974   2.775 -0.9959  2.1887  0.7420
   60MOL   C40125299   5.285   7.773   2.742  0.6852 -0.5526  0.4275
   60MOL   O40225300   5.369   7.787   2.623 -0.4848  0.0650 -0.0990
   60MOL   C40325301   5.386   7.665   2.555  0.0646 -0.5602 -0.2762
   60MOL   O40425302   5.261   7.617   2.513  0.3341  0.3117 -0.2138
   60MOL   C40525303   5.205   7.663   2.393  0.4724  0.1070 -0.0773
   60MOL   C40625304   5.144   7.566   2.314 -0.1415 -0.2762 -0.0113
   60MOL   C40725305   5.093   7.608   2.188 -0.5932 -0.0510 -0.3206
   60MOL   C40825306   5.093   7.742   2.145  0.3364  0.1474 -0.5697
   60MOL   C40925307   5.163   7.839   2.228  0.2937 -0.2316  0.8212
   60MOL   C41025308   5.219   7.799   2.350  0.8018 -0.2366  0.2737
   60MOL   C41125309   5.351   7.699   2.858 -0.0583 -0.4197  0.2612
   60MOL   H41225310   5.191   7.721   2.724  0.0973  0.9450 -0.9687
   60MOL   H41325311   5.438   7.586   2.610  0.9493 -1.2923 -2.1451
   60MOL   H41425312   5.445   7.685   2.466 -2.1527  1.3554 -1.3861
   60MOL   H41525313   5.145   7.461   2.341  0.3556 -0.0576  0.8407
   60MOL   H41625314   5.046   7.530   2.130 -1.0457 -0.1988  0.2443
   60MOL   H41725315   5.044   7.765   2.052 -1.8811  0.4334  0.6540
   60MOL   H41825316   5.170   7.943   2.197  1.6902 -0.7979 -0.8471
   60MOL   H41925317   5.269   7.873   2.411  0.1964 -0.6692  1.3122
   60MOL   H42025318   5.452   7.738   2.877  0.3681 -1.8007  0.9085
   60MOL   H42125319   5.360   7.595   2.827 -0.1812  0.0518 -1.4138
   60MOL   H42225320   5.303   7.713   2.955 -2.5902  0.3841 -1.0816
   61MOL     C125321   4.790   1.232   4.460  0.3196 -0.3417 -0.6242
   61MOL     O225322   4.891   1.236   4.561  0.3064  0.2681 -0.5998
   61MOL     C325323   4.839   1.287   4.677  0.0730 -0.1593 -0.7738
   61MOL     O425324   4.776   1.409   4.662  0.0772 -0.2250  0.0303
   61MOL     C525325   4.679   1.448   4.755  0.2213 -0.5658 -0.3613
   61MOL     C625326   4.644   1.379   4.876 -0.4810 -0.1883 -0.2817
   61MOL     C725327   4.561   1.428   4.974 -0.3184  0.3532 -0.3320
   61MOL     C825328   4.505   1.553   4.961 -0.4380 -0.3286  0.7259
   61MOL     C925329   4.529   1.628   4.840  0.4284  0.2017 -0.0547
   61MOL    C1025330   4.612   1.573   4.738  0.2034  0.1257 -0.4482
   61MOL    C1125331   4.844   1.153   4.338  0.1435  0.6842 -0.6404
   61MOL    H1225332   4.705   1.174   4.496 -1.4090  2.6498  0.3103
   61MOL    H1325333   4.775   1.215   4.728 -0.0481  1.9037  2.1365
   61MOL    H1425334   4.928   1.304   4.738  0.2667 -1.8356 -0.5700
   61MOL    H1525335   4.685   1.282   4.900  0.1758  0.3068  0.6339
   61MOL    H1625336   4.541   1.373   5.064  0.0837 -2.1899 -1.7482
   61MOL    H1725337   4.450   1.589   5.047 -0.1898 -0.4727  0.9442
   61MOL    H1825338   4.487   1.726   4.828 -1.5111 -0.9000 -2.6241
   61MOL    H1925339   4.635   1.628   4.647  0.1183 -1.5898 -1.5301
   61MOL    H2025340   4.842   1.047   4.365 -0.8827  0.3925 -1.7925
   61MOL    H2125341   4.946   1.187   4.323  0.7583 -1.0037 -0.3449
   61MOL    H2225342   4.752   1.331   4.434  2.5729  0.5127 -0.7692
   61MOL    C2325343   4.759   1.183   4.214  0.0388  0.2766  0.1208
   61MOL    O2425344   4.652   1.093   4.216  0.0049  0.4316  0.2745
   61MOL    C2525345   4.522   1.139   4.185 -0.1399  0.6351  0.1020
   61MOL    O2625346   4.463   1.183   4.303  0.0629  1.1374  0.2421
   61MOL    C2725347   4.407   1.090   4.379 -0.0370 -0.3339 -0.2165
   61MOL    C2825348   4.418   0.953   4.369 -0.1815  0.3183  0.6540
   61MOL    C2925349   4.348   0.867   4.462  0.5704 -0.1770  0.1989
   61MOL    C3025350   4.264   0.925   4.566 -0.0201 -0.2675  0.0645
   61MOL    C3125351   4.256   1.065   4.574 -0.2529  0.2133  0.0302
   61MOL    C3225352   4.333   1.144   4.485 -0.0364  0.6637  0.1122
   61MOL    C3325353   4.834   1.167   4.075 -0.5012  0.3532 -0.2384
   61MOL    H3425354   4.730   1.288   4.217 -0.3845  0.1347  1.2119
   61MOL    H3525355   4.464   1.062   4.134 -1.3094 -0.7363  3.4109
   61MOL    H3625356   4.544   1.225   4.121  0.1016  1.0932  0.7928
   61MOL    H3725357   4.471   0.894   4.295 -0.7821 -0.6910  1.0237
   61MOL    H3825358   4.359   0.760   4.471 -2.6856 -0.4929  1.2365
   61MOL    H3925359   4.199   0.860   4.624  0.9538  0.2194  1.7439
   61MOL    H4025360   4.189   1.105   4.648 -0.7551  0.2067 -0.4179
   61MOL    H4125361   4.344   1.251   4.493  1.7097  0.4057  1.3698
   61MOL    H4225362   4.751   1.163   4.005  0.4523  2.3187 -1.5146
   61MOL    H4325363   4.882   1.069   4.078  0.6979  0.9299 -0.3728
   61MOL    C4425364   4.922   1.280   4.024  0.4377 -0.4124  0.0045
   61MOL    O4525365   4.872   1.411   4.008 -0.8260 -0.5439 -0.6514
   61MOL    C4625366   4.907   1.495   4.106 -0.3270  0.0249 -0.0577
   61MOL    O4725367   5.051   1.507   4.106  0.2746 -0.3153  0.3304
   61MOL    C4825368   5.111   1.592   4.015 -0.6613  0.3969  0.0096
   61MOL    C4925369   5.060   1.638   3.887 -0.0083  0.5364 -0.3116
   61MOL    C5025370   5.128   1.724   3.799  0.5823 -0.7060 -0.0046
   61MOL    C5125371   5.259   1.769   3.836 -0.5056 -0.4284 -0.1125
   61MOL    C5225372   5.309   1.726   3.960  0.3382  0.8692 -0.4861
   61MOL    C5325373   5.240   1.635   4.040  0.3155  0.6635  0.4624
   61MOL    C5425374   4.972   1.243   3.877 -0.6022  0.7017  0.0965
   61MOL    H5525375   5.002   1.269   4.097  2.2748  1.3483 -1.7086
   61MOL    H5625376   4.867   1.463   4.202  2.3147  0.6306  1.2922
   61MOL    H5725377   4.856   1.588   4.082 -1.8339 -0.1474  2.2776
   61MOL    H5825378   4.959   1.607   3.865  0.0615 -0.7192  1.1041
   61MOL    H5925379   5.087   1.762   3.707 -0.8054  0.5450  1.1044
   61MOL    H6025380   5.311   1.827   3.763 -2.0351  1.3588  0.1696
   61MOL    H6125381   5.411   1.744   3.992  0.7786 -0.6124 -1.0305
   61MOL    H6225382   5.279   1.610   4.138  1.0553  0.4481  0.1212
   61MOL    H6325383   4.886   1.233   3.810 -1.1364  1.1384  0.7076
   61MOL    H6425384   5.038   1.323   3.842 -0.0840 -0.0369 -0.6278
   61MOL    C6525385   5.062   1.114   3.864  0.1439  0.1244 -0.3197
   61MOL    O6625386   4.988   0.990   3.856 -0.4338 -0.2420  0.1047
   61MOL    C6725387   4.893   0.978   3.751  0.4039 -0.2113  0.3191
   61MOL    O6825388   4.760   1.002   3.798  0.0646  0.7673  0.2253
   61MOL    C6925389   4.699   0.901   3.869  0.2308  0.0536 -0.5976
   61MOL    C7025390   4.562   0.916   3.899  0.5503 -0.9587 -0.2022
   61MOL    C7125391   4.489   0.812   3.973  0.4624 -0.2803 -0.2855
   61MOL    C7225392   4.551   0.700   4.027 -0.3892 -0.6977  0.2557
   61MOL    C7325393   4.693   0.696   4.006 -0.6042  0.1147  0.3694
   61MOL    C7425394   4.766   0.789   3.925  0.9744 -0.7139  0.1271
   61MOL    C7525395   5.158   1.126   3.753  0.2990  0.6120  0.0306
   61MOL    H7625396   5.125   1.110   3.953  2.8826  0.4137 -2.1772
   61MOL    H7725397   4.907   0.875   3.718 -0.8958 -0.3291  0.1195
   61MOL    H7825398   4.905   1.043   3.665 -0.1886 -0.8636 -0.2610
   61MOL    H7925399   4.512   1.007   3.870  1.0748  0.3072  2.6626
   61MOL    H8025400   4.385   0.825   4.000  0.2505  0.3278 -1.3811
   61MOL    H8125401   4.495   0.623   4.078  0.4115  0.4996  3.0502
   61MOL    H8225402   4.742   0.607   4.043 -2.5834 -1.5579 -0.9273
   61MOL    H8325403   4.873   0.777   3.915  0.8924 -1.3654  0.0168
   61MOL    H8425404   5.102   1.165   3.667 -0.0969 -1.5447 -0.7288
   61MOL    H8525405   5.231   1.201   3.785  1.5576 -1.7674  2.9241
   61MOL    C8625406   5.229   0.990   3.706  0.5468 -0.6365 -0.2654
   61MOL    O8725407   5.325   1.031   3.610 -0.0182  0.0846  0.0944
   61MOL    C8825408   5.294   1.084   3.487 -0.3946  0.0363  0.3273
   61MOL    O8925409   5.212   0.998   3.415  0.0516 -0.4106  0.5778
   61MOL    C9025410   5.217   0.992   3.278  0.1343  0.5667  0.3735
   61MOL    C9125411   5.265   1.104   3.205  0.6878  0.2799 -0.3645
   61MOL    C9225412   5.279   1.084   3.064 -0.1398 -0.7969  0.3197
   61MOL    C9325413   5.259   0.958   2.998 -0.5890 -0.0583  0.0244
   61MOL    C9425414   5.212   0.852   3.081  0.3547  0.1999 -0.3948
   61MOL    C9525415   5.196   0.870   3.222 -0.0928 -0.6949 -0.0817
   61MOL    C9625416   5.287   0.899   3.812  0.3899  0.0412 -0.0376
   61MOL    H9725417   5.150   0.938   3.653 -0.0296 -0.2580  0.2196
   61MOL    H9825418   5.387   1.095   3.431 -1.5311 -0.9078 -1.7988
   61MOL    H9925419   5.243   1.180   3.497  0.7260  0.6833 -0.1100
   61MOL   H10025420   5.279   1.199   3.254  0.6042 -0.5348  1.2551
   61MOL   H10125421   5.299   1.159   2.989  0.3470 -1.4695 -0.2293
   61MOL   H10225422   5.267   0.939   2.892 -1.8914 -1.5500  0.1654
   61MOL   H10325423   5.190   0.759   3.031  0.3077 -0.0383  0.0586
   61MOL   H10425424   5.163   0.786   3.281  0.4963  0.3749  1.8043
   61MOL   H10525425   5.374   0.935   3.867  0.2375  0.8356 -0.3196
   61MOL   H10625426   5.219   0.907   3.897 -0.5394 -0.1933 -0.7545
   61MOL   C10725427   5.300   0.751   3.776  0.0260 -0.6869 -0.0278
   61MOL   O10825428   5.374   0.690   3.879 -0.7332 -0.6906 -0.0228
   61MOL   C10925429   5.512   0.699   3.869 -0.0888  0.2406 -0.5284
   61MOL   O11025430   5.566   0.617   3.768  0.0768 -0.6046  0.3547
   61MOL   C11125431   5.547   0.484   3.774 -0.2620  0.0499  0.3623
   61MOL   C11225432   5.496   0.415   3.891  0.0780  0.5152 -0.2624
   61MOL   C11325433   5.465   0.281   3.889  0.1512 -0.0730 -0.0081
   61MOL   C11425434   5.511   0.208   3.781 -0.1144  1.2656 -0.1832
   61MOL   C11525435   5.573   0.268   3.670 -0.4317 -0.0048  0.0840
   61MOL   C11625436   5.582   0.405   3.665 -0.3666 -0.0445  0.3054
   61MOL   C11725437   5.161   0.684   3.780 -0.5367  0.0212  0.2285
   61MOL   H11825438   5.343   0.737   3.677 -1.0069 -0.5714 -0.5045
   61MOL   H11925439   5.559   0.678   3.966  0.3698  1.7907 -0.4047
   61MOL   H12025440   5.540   0.801   3.844 -1.9289  0.6116 -1.1262
   61MOL   H12125441   5.463   0.470   3.978 -0.4109  0.2606 -0.2876
   61MOL   H12225442   5.419   0.232   3.974  0.9876 -0.8128  0.0257
   61MOL   H12325443   5.501   0.101   3.791 -2.0848  1.4962  0.3878
   61MOL   H12425444   5.600   0.206   3.586  3.0938  2.7517 -0.9247
   61MOL   H12525445   5.617   0.462   3.580 -0.3613 -1.4424 -0.6448
   61MOL   H12625446   5.101   0.730   3.702  0.3499  0.0940 -0.4220
   61MOL   H12725447   5.109   0.701   3.874 -1.1946  1.5283 -0.3933
   61MOL   C12825448   5.177   0.531   3.748  0.2675 -0.2974 -0.8490
   61MOL   O12925449   5.148   0.502   3.611 -0.0463 -0.3132  0.1910
   61MOL   C13025450   5.256   0.499   3.523 -0.0395  0.3174 -0.2382
   61MOL   O13125451   5.304   0.625   3.495  0.7384  0.4802 -0.1588
   61MOL   C13225452   5.417   0.625   3.423 -0.4003  0.0554 -0.0980
   61MOL   C13325453   5.467   0.515   3.352 -0.1216  0.2461  0.6233
   61MOL   C13425454   5.588   0.523   3.279  0.1516  0.4490  0.1258
   61MOL   C13525455   5.658   0.649   3.281  0.1725  0.4893  0.4369
   61MOL   C13625456   5.613   0.762   3.351 -0.0868 -0.5384 -0.4600
   61MOL   C13725457   5.490   0.749   3.418 -0.4210 -0.1398 -0.2278
   61MOL   C13825458   5.069   0.455   3.833  0.4316 -0.1638  0.2792
   61MOL   H13925459   5.274   0.489   3.773 -0.3227 -0.6032  0.9663
   61MOL   H14025460   5.217   0.446   3.436 -2.5865 -0.2549  1.2324
   61MOL   H14125461   5.334   0.444   3.577  0.6932  0.4420 -1.1478
   61MOL   H14225462   5.411   0.424   3.342  1.1583 -0.5791  0.9312
   61MOL   H14325463   5.622   0.438   3.222 -0.6337  0.2600 -0.0731
   61MOL   H14425464   5.753   0.649   3.229  1.8621  0.4436  3.4231
   61MOL   H14525465   5.669   0.854   3.350  0.8972 -1.1047  0.3971
   61MOL   H14625466   5.449   0.839   3.462 -0.2134 -0.1683  0.0269
   61MOL   H14725467   5.049   0.510   3.925 -0.6608 -0.5954  0.3076
   61MOL   H14825468   4.978   0.476   3.778  0.0624 -1.0719  0.5376
   61MOL   C14925469   5.096   0.309   3.866 -0.5887 -0.6860 -0.1194
   61MOL   O15025470   5.022   0.267   3.981 -0.4264  0.3343  0.3469
   61MOL   C15125471   5.091   0.232   4.095 -0.3074 -0.2302 -0.5423
   61MOL   O15225472   5.149   0.102   4.103  0.4279  0.3787 -0.2591
   61MOL   C15325473   5.060   7.973   4.134 -0.6146  0.0784  0.6537
   61MOL   C15425474   4.926   7.975   4.105  0.1897  1.1952  0.1055
   61MOL   C15525475   4.845   7.864   4.115 -0.0375 -0.0883 -0.5109
   61MOL   C15625476   4.901   7.739   4.158 -0.5024  0.0167  0.1480
   61MOL   C15725477   5.041   7.735   4.185  0.2809 -0.1475  0.1773
   61MOL   C15825478   5.118   7.850   4.177 -0.7620  0.5091  0.5718
   61MOL   C15925479   5.056   0.204   3.757  0.6721 -0.2121 -0.8456
   61MOL   H16025480   5.202   0.301   3.889 -0.1061  0.9423 -1.7214
   61MOL   H16125481   5.174   0.300   4.111 -0.4892  0.2790 -1.7445
   61MOL   H16225482   5.021   0.233   4.179 -0.9941 -1.6711 -1.0708
   61MOL   H16325483   4.881   0.092   4.071  2.4430  2.0639 -0.5739
   61MOL   H16425484   4.740   7.870   4.090  0.3662 -0.3910 -2.3150
   61MOL   H16525485   4.835   7.657   4.178 -0.1558 -0.2054  0.3968
   61MOL   H16625486   5.081   7.643   4.224 -0.3038  0.0572  1.2816
   61MOL   H16725487   5.224   7.843   4.195 -0.3725  2.0902 -0.9352
   61MOL   H16825488   5.104   0.106   3.770  0.6405  0.1158  2.0384
   61MOL   H16925489   5.095   0.253   3.668  0.3718  0.4016 -0.6342
   61MOL   C17025490   4.901   0.183   3.739  0.1960 -0.0686 -0.3020
   61MOL   O17125491   4.852   0.300   3.673 -0.1090  0.2661  0.5534
   61MOL   C17225492   4.725   0.349   3.707 -0.4213  0.7769 -0.0041
   61MOL   O17325493   4.625   0.262   3.669  0.6220 -1.0363 -0.3397
   61MOL   C17425494   4.492   0.299   3.699 -0.2670 -0.5117 -0.0888
   61MOL   C17525495   4.397   0.221   3.638  0.3836 -0.9291 -0.6742
   61MOL   C17625496   4.262   0.252   3.661 -0.0416 -0.2714 -0.8446
   61MOL   C17725497   4.217   0.364   3.742 -0.2749  0.3017 -0.0003
   61MOL   C17825498   4.319   0.443   3.808  0.3395  0.6979  0.6144
   61MOL   C17925499   4.454   0.412   3.781  0.1748  0.7116 -0.4377
   61MOL   C18025500   4.872   0.071   3.635 -0.2204  0.8999  0.4099
   61MOL   H18125501   4.849   0.167   3.833 -0.1998  1.0775 -0.3251
   61MOL   H18225502   4.718   0.444   3.654  2.1669  0.5334 -0.8405
   61MOL   H18325503   4.729   0.368   3.814  0.2940  1.2230 -0.1096
   61MOL   H18425504   4.421   0.137   3.575  0.0767 -1.6942  0.2226
   61MOL   H18525505   4.185   0.190   3.618 -0.0105 -0.2526 -0.9289
   61MOL   H18625506   4.113   0.384   3.761 -0.5874  0.4076 -1.7460
   61MOL   H18725507   4.291   0.521   3.877 -0.8476  0.9498 -0.1350
   61MOL   H18825508   4.529   0.471   3.831  1.2081 -0.4319 -0.6240
   61MOL   H18925509   4.775   0.094   3.590  0.3908  3.0008  0.0816
   61MOL   H19025510   4.931   0.075   3.544 -0.2739 -0.6828  0.2919
   61MOL   C19125511   4.869   7.895   3.688  0.1602 -0.0792  0.5771
   61MOL   O19225512   4.993   7.854   3.727 -0.5166  0.0924 -0.7686
   61MOL   C19325513   5.005   7.739   3.808  0.2104  0.1024  0.6023
   61MOL   O19425514   5.001   7.613   3.739 -0.6393 -0.2117 -0.0303
   61MOL   C19525515   4.986   7.498   3.816  0.4119  0.3573  0.3247
   61MOL   C19625516   5.047   7.487   3.944 -0.3205  0.6738 -0.4501
   61MOL   C19725517   5.021   7.371   4.016 -0.4557  0.1681  0.0788
   61MOL   C19825518   4.950   7.262   3.952  0.0839 -0.3347 -0.3220
   61MOL   C19925519   4.892   7.278   3.827 -0.4007  0.4631  0.0304
   61MOL   C20025520   4.915   7.394   3.758 -0.5007 -0.2004  0.0470
   61MOL   C20125521   4.828   7.802   3.567 -0.5187  0.4117 -0.2359
   61MOL   H20225522   4.803   7.870   3.771  0.7140  0.3234  1.1420
   61MOL   H20325523   4.946   7.748   3.899  0.9795  0.5059  1.0622
   61MOL   H20425524   5.107   7.757   3.842  0.3153  1.6496 -0.5104
   61MOL   H20525525   5.119   7.555   3.986  0.6418 -1.9376  2.2917
   61MOL   H20625526   5.074   7.352   4.108  1.1170  1.2785 -0.5797
   61MOL   H20725527   4.933   7.170   4.007 -0.9729 -0.8281 -1.4307
   61MOL   H20825528   4.835   7.201   3.779  0.1017  0.7740 -1.0987
   61MOL   H20925529   4.855   7.408   3.669 -1.7797  1.9295  1.2071
   61MOL   H21025530   4.873   7.838   3.475  0.2452 -0.3134 -0.1490
   61MOL   H21125531   4.870   7.702   3.577 -0.5753  0.3744 -0.3803
   61MOL   C21225532   4.671   7.793   3.535  0.2039 -0.1603 -0.0851
   61MOL   O21325533   4.656   7.788   3.396  0.1932  0.4946 -0.6347
   61MOL   C21425534   4.658   7.902   3.318  0.0013  0.2470 -0.1907
   61MOL   O21525535   4.560   0.020   3.354 -0.3815  0.5587 -0.0508
   61MOL   C21625536   4.431   7.970   3.322  0.3026  0.5568  0.8945
   61MOL   C21725537   4.377   7.842   3.289  0.0484 -0.3028 -0.5177
   61MOL   C21825538   4.239   7.832   3.255  0.2341  0.1633 -0.3744
   61MOL   C21925539   4.155   7.941   3.253  0.1465 -0.3156 -0.0999
   61MOL   C22025540   4.207   0.093   3.276  0.5047 -0.1902 -0.0341
   61MOL   C22125541   4.344   0.105   3.323 -0.1496 -0.4164 -0.5923
   61MOL   C22225542   4.607   7.669   3.595 -0.2187 -1.0047  0.4099
   61MOL   H22325543   4.621   7.885   3.565  0.6905 -0.6826  2.4458
   61MOL   H22425544   4.645   7.875   3.213 -1.6409  2.5688 -0.6285
   61MOL   H22525545   4.758   7.945   3.329  0.0762 -0.4874  2.2395
   61MOL   H22625546   4.446   7.759   3.286 -0.1404 -0.4558 -0.5963
   61MOL   H22725547   4.196   7.734   3.238  0.8674 -0.1241 -0.3411
   61MOL   H22825548   4.055   7.923   3.218 -0.2938  1.8462 -0.0465
   61MOL   H22925549   4.142   0.179   3.276 -1.7032 -1.8114  0.2378
   61MOL   H23025550   4.381   0.203   3.351 -0.5667 -0.6622  0.8991
   61MOL   H23125551   4.508   7.663   3.550  0.1678 -1.1724 -0.4246
   61MOL   H23225552   4.651   7.576   3.561 -0.3365 -0.0698 -2.4016
   61MOL   C23325553   4.599   7.674   3.750 -0.2663 -0.2198 -0.0104
   61MOL   O23425554   4.528   7.784   3.812  0.3781  0.2638 -0.0105
   61MOL   C23525555   4.416   7.827   3.748 -0.7439 -0.9609 -0.4438
   61MOL   O23625556   4.312   7.736   3.740  0.6554  0.8547 -0.3614
   61MOL   C23725557   4.183   7.779   3.696 -0.3307 -0.7541  0.3874
   61MOL   C23825558   4.087   7.676   3.695 -0.6529 -0.7246  0.0846
   61MOL   C23925559   3.961   7.693   3.634 -0.0425 -0.3914  0.6983
   61MOL   C24025560   3.935   7.817   3.580  0.1956  0.0548 -0.7831
   61MOL   C24125561   4.035   7.913   3.563 -0.1741  0.1969 -0.4833
   61MOL   C24225562   4.159   7.895   3.622 -0.8408  0.3779 -0.0989
   61MOL   C24325563   4.541   7.534   3.804 -0.7152  0.0028  0.1942
   61MOL   H24425564   4.703   7.672   3.780  0.2545  1.3792 -1.6665
   61MOL   H24525565   4.439   7.861   3.647 -1.4065 -0.8739 -0.5661
   61MOL   H24625566   4.379   7.904   3.816 -1.9703 -2.7240  0.9564
   61MOL   H24725567   4.109   7.582   3.744 -1.9776 -0.8070  0.5533
   61MOL   H24825568   3.880   7.622   3.641  0.0401 -0.5866 -0.2720
   61MOL   H24925569   3.833   7.840   3.552  0.0959  1.0506  0.3369
   61MOL   H25025570   4.016   0.026   3.503 -0.9713  1.5421  1.6928
   61MOL   H25125571   4.242   7.963   3.606 -1.2473  1.2768  1.6106
   61MOL   H25225572   4.470   7.499   3.729 -0.9767 -1.5938  1.1713
   61MOL   H25325573   4.618   7.458   3.812  0.9941  1.6144 -0.5202
   61MOL   C25425574   4.478   7.539   3.948  0.4195 -0.0345 -0.1530
   61MOL   O25525575   4.415   7.415   3.983 -0.2008  0.4236 -0.2729
   61MOL   C25625576   4.292   7.385   3.923  0.3173  0.2643  0.6177
   61MOL   O25725577   4.305   7.302   3.810 -0.3291  0.1229  0.0269
   61MOL   C25825578   4.190   7.252   3.754  0.6821  0.1457  0.0357
   61MOL   C25925579   4.202   7.174   3.632 -0.0058  0.3384  0.8584
   61MOL   C26025580   4.086   7.126   3.572  0.9333 -0.1716 -0.2347
   61MOL   C26125581   3.957   7.154   3.624  0.1416 -0.8396  0.2424
   61MOL   C26225582   3.944   7.239   3.734 -0.5565 -0.1367 -0.5631
   61MOL   C26325583   4.061   7.283   3.804 -0.1759  0.2763 -0.2752
   61MOL   C26425584   4.577   7.568   4.066 -0.4398 -0.1817 -0.1849
   61MOL   H26525585   4.403   7.618   3.956  0.2145 -0.4786  2.9830
   61MOL   H26625586   4.240   7.479   3.907 -1.6577 -0.4985  2.3807
   61MOL   H26725587   4.237   7.326   3.996  2.6180 -1.8536  0.6937
   61MOL   H26825588   4.298   7.151   3.589 -2.1447  0.3208 -4.2496
   61MOL   H26925589   4.100   7.066   3.483  1.9360 -1.9588  1.0942
   61MOL   H27025590   3.863   7.123   3.580 -0.3737  0.8880  0.0882
   61MOL   H27125591   3.850   7.264   3.780  0.1641  0.2629  0.7059
   61MOL   H27225592   4.044   7.350   3.887 -1.5027 -0.2724 -0.0907
   61MOL   H27325593   4.646   7.485   4.077  0.4805  0.6583  0.4775
   61MOL   H27425594   4.654   7.641   4.039  0.1167 -0.5803  0.3087
   61MOL   C27525595   4.503   7.596   4.199 -0.7105 -0.1285  0.3259
   61MOL   O27625596   4.609   7.586   4.296  0.3321 -0.2465 -0.4580
   61MOL   C27725597   4.570   7.579   4.426  0.3413 -0.5888  0.7613
   61MOL   O27825598   4.531   7.701   4.475  0.2246  0.2063 -0.3237
   61MOL   C27925599   4.624   7.772   4.539 -0.2282  0.6704 -1.1260
   61MOL   C28025600   4.677   7.887   4.472  0.1593 -0.0364 -0.1589
   61MOL   C28125601   4.778   7.960   4.534 -0.3194 -0.4190 -0.2786
   61MOL   C28225602   4.820   7.931   4.665 -0.7861  0.0265 -0.1271
   61MOL   C28325603   4.776   7.815   4.731 -0.2834 -0.7058  0.2287
   61MOL   C28425604   4.679   7.735   4.671 -0.5100  0.3708  0.6832
   61MOL   C28525605   4.431   7.741   4.190 -0.3665 -0.7554 -0.0381
   61MOL   H28625606   4.429   7.520   4.224  1.3904 -2.0586  0.8246
   61MOL   H28725607   4.655   7.540   4.482  0.3089  2.4189  3.0544
   61MOL   H28825608   4.496   7.501   4.447 -1.5842  1.6262  2.4480
   61MOL   H28925609   4.643   7.934   4.380  2.1145  2.1291  0.1683
   61MOL   H29025610   4.827   0.061   4.476 -0.1990 -0.3733 -0.1167
   61MOL   H29125611   4.895   0.023   4.702 -1.7681  0.8737  0.3451
   61MOL   H29225612   4.808   7.791   4.832  0.8542  0.2916  0.1237
   61MOL   H29325613   4.629   7.661   4.732  0.8062 -0.8134  0.3364
   61MOL   H29425614   4.410   7.779   4.091 -3.0722 -0.5993  0.5436
   61MOL   H29525615   4.492   7.824   4.224 -1.4089 -0.1589  0.4075
   61MOL   C29625616   4.297   7.744   4.256  0.0043  0.1392 -0.1823
   61MOL   O29725617   4.250   7.881   4.259  0.3234  0.8062 -0.1806
   61MOL   C29825618   4.290   7.949   4.377 -0.6016  0.7103  0.0676
   61MOL   O29925619   4.203   7.926   4.484 -0.4276  0.0589  0.2316
   61MOL   C30025620   4.226   0.006   4.601 -0.9765 -0.1213 -0.0474
   61MOL   C30125621   4.338   0.094   4.625  0.0781 -0.4820  0.1598
   61MOL   C30225622   4.363   0.149   4.750 -0.0634  0.0013 -0.8466
   61MOL   C30325623   4.274   0.113   4.854  0.3635 -0.0043  1.1412
   61MOL   C30425624   4.165   0.024   4.836 -0.0093  0.3838  0.2638
   61MOL   C30525625   4.141   7.936   4.709  0.3871 -0.5953  0.0740
   61MOL   C30625626   4.182   7.667   4.191 -0.5146 -0.8357  0.4815
   61MOL   H30725627   4.315   7.700   4.354  1.3548 -0.7930 -0.8444
   61MOL   H30825628   4.284   0.079   4.350  0.4095  1.2465  1.8160
   61MOL   H30925629   4.391   7.919   4.404  0.0466  1.1468 -1.7993
   61MOL   H31025630   4.404   0.120   4.543  1.8011 -2.2763  0.9433
   61MOL   H31125631   4.435   0.228   4.764 -1.5919  1.7724 -2.7511
   61MOL   H31225632   4.295   0.168   4.945  3.0388 -0.2984  0.7322
   61MOL   H31325633   4.100   0.023   4.922  0.7871 -1.3850  0.8940
   61MOL   H31425634   4.046   7.887   4.695 -0.3987  0.3732  1.8789
   61MOL   H31525635   4.215   7.569   4.156 -1.5162 -1.2560  0.6840
   61MOL   H31625636   4.158   7.735   4.109  3.9509 -0.3105 -0.5021
   61MOL   C31725637   4.062   7.646   4.279  0.3459 -0.0786 -0.1089
   61MOL   O31825638   4.099   7.553   4.380 -0.8998  0.2695  0.1991
   61MOL   C31925639   4.073   7.591   4.514  0.0706  0.3093  0.2980
   61MOL   O32025640   3.945   7.634   4.539  0.3828 -0.3910  0.2189
   61MOL   C32125641   3.852   7.543   4.577  0.4520  0.2347  0.3195
   61MOL   C32225642   3.765   7.582   4.682  0.4383 -0.0541  0.2698
   61MOL   C32325643   3.681   7.480   4.734 -0.1730 -0.1725  0.2219
   61MOL   C32425644   3.677   7.348   4.676 -0.4679  0.3080 -0.3752
   61MOL   C32525645   3.758   7.317   4.569  0.1733  1.0437  1.0286
   61MOL   C32625646   3.846   7.412   4.520 -0.1839 -0.6492 -0.3513
   61MOL   C32725647   3.939   7.595   4.204 -0.0081  0.0116 -0.6743
   61MOL   H32825648   4.044   7.743   4.324  0.3694  0.1876 -0.6621
   61MOL   H32925649   4.133   7.674   4.549 -1.2602  1.0304  0.9031
   61MOL   H33025650   4.095   7.506   4.580 -3.0541  0.1542  1.2448
   61MOL   H33125651   3.765   7.680   4.727 -2.2675  1.5780 -3.0335
   61MOL   H33225652   3.624   7.494   4.825  0.2511  0.7406  0.3554
   61MOL   H33325653   3.623   7.264   4.718  0.4426  0.2669  0.7600
   61MOL   H33425654   3.741   7.219   4.528 -0.8006  0.8987  1.7527
   61MOL   H33525655   3.909   7.385   4.435  1.0250  3.8684 -1.0200
   61MOL   H33625656   3.973   7.531   4.122  1.4530  0.6383 -0.5770
   61MOL   H33725657   3.895   7.521   4.270  0.5916 -0.2945 -0.6057
   61MOL   C33825658   3.830   7.686   4.151 -0.3828 -0.9768 -0.3692
   61MOL   O33925659   3.882   7.742   4.027  0.4278  0.5791  0.3629
   61MOL   C34025660   3.888   7.879   4.025  0.3596  0.7188 -0.0956
   61MOL   O34125661   3.772   7.941   4.060 -0.1682  0.0525 -0.2036
   61MOL   C34225662   3.682   7.964   3.959 -0.3939 -0.2144 -0.2713
   61MOL   C34325663   3.679   7.905   3.835  0.1226 -0.5277  0.2066
   61MOL   C34425664   3.583   7.932   3.734 -0.3036 -0.2306 -0.0411
   61MOL   C34525665   3.483   0.052   3.767 -0.0736  0.0640  0.2386
   61MOL   C34625666   3.486   0.123   3.890 -0.3849  0.0896 -0.0216
   61MOL   C34725667   3.583   0.081   3.985  0.0984 -0.1083  0.5599
   61MOL   C34825668   3.701   7.612   4.108  0.3141  0.1073  0.0410
   61MOL   H34925669   3.814   7.763   4.227  0.9381  1.0332 -2.0569
   61MOL   H35025670   3.923   7.915   3.928  3.0067  0.2779  0.6439
   61MOL   H35125671   3.965   7.917   4.092 -0.6751 -0.3824  1.7606
   61MOL   H35225672   3.755   7.834   3.807 -0.8521 -2.6205  2.6600
   61MOL   H35325673   3.589   7.891   3.635 -0.7901 -0.5834  0.0757
   61MOL   H35425674   3.410   0.088   3.695  0.4920 -1.3253 -1.0761
   61MOL   H35525675   3.418   0.204   3.912  2.5263  2.1399  1.9126
   61MOL   H35625676   3.576   0.129   4.081 -0.3463 -0.3616  0.6533
   61MOL   H35725677   3.730   7.513   4.073 -1.4502 -0.1225 -0.8216
   61MOL   H35825678   3.651   7.676   4.036  1.7124 -0.0056 -1.0426
   61MOL   C35925679   3.597   7.589   4.218  0.3445 -0.0796 -1.2863
   61MOL   O36025680   3.507   7.486   4.193  0.0658  0.2086  0.1226
   61MOL   C36125681   3.540   7.361   4.230 -0.3467  0.1412  0.0643
   61MOL   O36225682   3.640   7.312   4.146 -0.2788 -0.1137 -0.3722
   61MOL   C36325683   3.672   7.174   4.160  0.5501 -0.2934  0.5448
   61MOL   C36425684   3.643   7.090   4.270  0.2928 -0.1672  0.2580
   61MOL   C36525685   3.699   6.959   4.271 -0.1229 -0.4350  0.0489
   61MOL   C36625686   3.771   6.905   4.163  0.1517 -0.1401  0.0500
   61MOL   C36725687   3.791   6.987   4.057 -0.1469 -0.3277 -0.2477
   61MOL   C36825688   3.740   7.122   4.054 -0.1217 -0.8317  0.3869
   61MOL   C36925689   3.515   7.720   4.247 -0.0406 -0.8782 -0.0566
   61MOL   H37025690   3.657   7.568   4.306 -0.1113 -1.3958 -1.2700
   61MOL   H37125691   3.449   7.301   4.230 -0.8183  0.8484 -0.4109
   61MOL   H37225692   3.586   7.358   4.329  1.1379 -3.7324 -0.6379
   61MOL   H37325693   3.593   7.124   4.360 -1.8258  0.8372 -1.2532
   61MOL   H37425694   3.689   6.887   4.351  0.8108 -1.7382 -0.9834
   61MOL   H37525695   3.811   6.804   4.161 -0.4045 -0.3420 -1.2465
   61MOL   H37625696   3.860   6.949   3.984 -0.4575 -0.0004 -0.7223
   61MOL   H37725697   3.762   7.193   3.975 -1.8450 -1.1589 -0.4229
   61MOL   H37825698   3.481   7.759   4.151  0.2324  0.7165  0.4798
   61MOL   H37925699   3.580   7.794   4.292 -1.6837 -0.1312  1.1547
   61MOL   C38025700   3.396   7.699   4.349 -0.0266 -0.1467  1.0103
   61MOL   O38125701   3.301   7.789   4.318 -0.0510  0.0534 -0.3541
   61MOL   C38225702   3.195   7.734   4.246 -0.0679  0.2858  0.3902
   61MOL   O38325703   3.102   7.689   4.336  0.1991 -0.1366  0.2475
   61MOL   C38425704   2.983   7.637   4.287 -0.2736 -0.1209 -0.1747
   61MOL   C38525705   2.984   7.542   4.179  0.1265 -0.0098  0.5515
   61MOL   C38625706   2.862   7.493   4.131  0.3800 -0.1679 -0.3871
   61MOL   C38725707   2.737   7.528   4.197 -0.2183  0.8792  0.1808
   61MOL   C38825708   2.739   7.621   4.301  0.6049  0.2693 -0.4557
   61MOL   C38925709   2.862   7.672   4.349  0.1861 -1.0287  0.8944
   61MOL   C39025710   3.441   7.724   4.494 -0.7355 -0.0462  0.3303
   61MOL   H39125711   3.355   7.598   4.337 -1.3339  0.6672 -1.7558
   61MOL   H39225712   3.144   7.801   4.177 -0.0194 -3.6668 -3.7412
   61MOL   H39325713   3.227   7.657   4.175  0.0315 -0.1694  0.9250
   61MOL   H39425714   3.079   7.508   4.142  1.3956  1.5102  2.2716
   61MOL   H39525715   2.861   7.433   4.041  0.2818 -0.1233 -0.4164
   61MOL   H39625716   2.642   7.504   4.152 -0.0190 -1.6612  1.0451
   61MOL   H39725717   2.647   7.652   4.348 -0.2076 -0.1536 -1.7413
   61MOL   H39825718   2.861   7.731   4.439 -0.1417 -0.9462  0.8372
   61MOL   H39925719   3.442   7.830   4.518  1.9103  0.2378 -0.8546
   61MOL   H40025720   3.535   7.675   4.520  0.1259  1.1277 -0.5243
   61MOL   C40125721   3.337   7.673   4.589 -0.6406 -0.1293  0.4074
   61MOL   O40225722   3.321   7.535   4.574 -0.5401  0.7504  0.0307
   61MOL   C40325723   3.193   7.481   4.582  1.0526 -0.1933 -0.6721
   61MOL   O40425724   3.148   7.475   4.714  0.3055  0.0342 -0.3892
   61MOL   C40525725   3.184   7.372   4.799 -0.0581 -0.0307  1.0018
   61MOL   C40625726   3.108   7.337   4.918 -0.7206 -0.2718  1.1958
   61MOL   C40725727   3.161   7.234   5.004 -0.0550  0.0561  0.6161
   61MOL   C40825728   3.280   7.171   4.976 -0.3194  0.0176  0.2599
   61MOL   C40925729   3.358   7.204   4.860  0.0491 -0.2570  0.3072
   61MOL   C41025730   3.307   7.300   4.772  0.5911 -0.5669 -0.0441
   61MOL   C41125731   3.386   7.690   4.727 -0.2884 -0.0541 -1.0015
   61MOL   H41225732   3.245   7.730   4.575 -0.0814  0.7462  0.2490
   61MOL   H41325733   3.207   7.378   4.550  2.0269  1.0324 -4.3357
   61MOL   H41425734   3.121   7.534   4.519 -1.5248 -0.9462  1.5182
   61MOL   H41525735   3.021   7.396   4.942  0.2595  0.6492  2.5638
   61MOL   H41625736   3.101   7.204   5.089 -0.0123 -0.5842  0.4220
   61MOL   H41725737   3.317   7.096   5.044  1.2597  0.4666 -0.0716
   61MOL   H41825738   3.459   7.168   4.847  0.3936  0.9215 -0.3881
   61MOL   H41925739   3.373   7.335   4.694 -0.8936  3.2520  0.3006
   61MOL   H42025740   3.480   7.641   4.753 -1.0740  0.6122  3.5469
   61MOL   H42125741   3.318   7.660   4.807  0.8617  0.2891  0.1284
   61MOL   H42225742   3.407   7.794   4.755  1.1604 -0.6116  0.0340
   62MOL     C125743   2.783   7.760   0.775  0.0280 -0.3445 -0.0337
   62MOL     O225744   2.852   7.792   0.654 -0.4492 -0.0001  0.2107
   62MOL     C325745   2.814   7.914   0.598  0.2380 -0.6027  0.5585
   62MOL     O425746   2.691   7.901   0.543 -0.2346  0.0258  0.3526
   62MOL     C525747   2.674   7.809   0.444  0.2103  0.1110  0.0399
   62MOL     C625748   2.773   7.741   0.375 -0.8418  0.1180 -0.3258
   62MOL     C725749   2.740   7.657   0.267 -0.6816  0.2309 -0.1417
   62MOL     C825750   2.607   7.632   0.232  0.5900  0.0454 -0.6593
   62MOL     C925751   2.507   7.706   0.295  0.1661 -0.0193  0.3732
   62MOL    C1025752   2.539   7.794   0.401 -0.0342 -0.3528  0.1233
   62MOL    C1125753   2.860   7.640   0.838  0.5056  0.0413  0.1901
   62MOL    H1225754   2.764   7.837   0.849  1.1182 -0.6415  0.5669
   62MOL    H1325755   2.809   0.006   0.683  0.3752  1.8585 -1.3333
   62MOL    H1425756   2.900   7.935   0.534 -0.3374  3.4769  0.9507
   62MOL    H1525757   2.876   7.755   0.404 -1.9415 -0.5442  4.1894
   62MOL    H1625758   2.822   7.611   0.214 -0.4135 -0.1201  0.5633
   62MOL    H1725759   2.581   7.563   0.153 -0.6546 -1.6904  1.2300
   62MOL    H1825760   2.403   7.701   0.266  0.0211 -0.8871  1.0100
   62MOL    H1925761   2.456   7.847   0.445  1.2651  0.8996  1.1008
   62MOL    H2025762   2.950   7.677   0.888  1.6352 -0.1533 -1.6659
   62MOL    H2125763   2.896   7.570   0.763 -0.4556 -0.5201  0.2584
   62MOL    H2225764   2.683   7.727   0.748  0.1409 -0.9771  0.3194
   62MOL    C2325765   2.776   7.572   0.950 -0.2499 -0.1154 -0.6002
   62MOL    O2425766   2.787   7.652   1.068  0.0355 -0.2481 -0.1920
   62MOL    C2525767   2.670   7.707   1.124  0.4569 -0.7184 -0.3525
   62MOL    O2625768   2.632   7.830   1.058  0.1259 -0.2122 -0.2868
   62MOL    C2725769   2.694   7.946   1.097  0.3938 -0.1380 -0.2854
   62MOL    C2825770   2.810   7.945   1.178  0.4009 -0.2583 -0.1858
   62MOL    C2925771   2.877   0.090   1.216 -0.3696 -0.2509  0.8957
   62MOL    C3025772   2.841   0.213   1.156  0.0319  0.7720 -0.5378
   62MOL    C3125773   2.731   0.216   1.074  0.4832 -0.2723 -0.4090
   62MOL    C3225774   2.653   0.099   1.053  0.6896 -0.5362  0.1091
   62MOL    C3325775   2.822   7.431   0.976  0.2954  0.0743 -0.4855
   62MOL    H3425776   2.671   7.571   0.920 -0.4126  1.5644 -0.1618
   62MOL    H3525777   2.679   7.717   1.232  2.2315  1.2418 -0.6290
   62MOL    H3625778   2.587   7.638   1.110  0.8036 -1.0001 -1.0434
   62MOL    H3725779   2.859   7.861   1.226  1.7352  1.3418  1.3219
   62MOL    H3825780   2.967   0.083   1.275 -0.2328 -0.6673  0.6361
   62MOL    H3925781   2.898   0.303   1.172  1.0363  0.0010  0.2897
   62MOL    H4025782   2.694   0.314   1.048 -0.8085 -0.3448  1.0610
   62MOL    H4125783   2.565   0.109   0.991  0.8870  2.1641  0.1886
   62MOL    H4225784   2.782   7.394   1.070 -0.0297 -2.8836 -1.7381
   62MOL    H4325785   2.931   7.438   0.983  0.4328 -1.2863 -1.1332
   62MOL    C4425786   2.771   7.324   0.873 -0.1890 -0.0569 -0.5620
   62MOL    O4525787   2.636   7.301   0.910 -0.1138 -0.6508 -0.5891
   62MOL    C4625788   2.558   7.259   0.807 -0.2988  0.0864  0.1088
   62MOL    O4725789   2.426   7.231   0.843  0.0021  0.4034 -0.8457
   62MOL    C4825790   2.389   7.100   0.838  0.4476  0.6252 -0.3276
   62MOL    C4925791   2.467   6.983   0.836  0.7946  0.2141  0.4568
   62MOL    C5025792   2.414   6.854   0.841 -0.0295 -0.3446 -0.1609
   62MOL    C5125793   2.273   6.836   0.819 -0.0959 -0.0129 -0.5092
   62MOL    C5225794   2.190   6.945   0.817 -0.0627 -0.3510 -0.6784
   62MOL    C5325795   2.250   7.074   0.838 -0.3159  0.3678 -0.0330
   62MOL    C5425796   2.852   7.197   0.866 -0.2532 -0.6044 -0.2191
   62MOL    H5525797   2.776   7.372   0.775  0.7713  0.5858 -0.1991
   62MOL    H5625798   2.595   7.179   0.743  0.0242 -0.5509  1.0781
   62MOL    H5725799   2.546   7.344   0.740  0.1943 -0.2235 -0.3847
   62MOL    H5825800   2.575   6.986   0.834  0.8504 -1.6958 -0.0550
   62MOL    H5925801   2.483   6.772   0.853  0.1828 -0.1759 -0.2309
   62MOL    H6025802   2.221   6.742   0.815 -1.2449  0.5745  0.4605
   62MOL    H6125803   2.082   6.940   0.814 -0.0074 -2.1518 -0.1948
   62MOL    H6225804   2.184   7.160   0.843  0.5837  1.1075 -0.6402
   62MOL    H6325805   2.850   7.164   0.970 -5.1944 -0.6647 -0.2145
   62MOL    H6425806   2.804   7.115   0.811  0.4565 -1.3798  0.3022
   62MOL    C6525807   2.997   7.204   0.806 -0.1453  0.6104 -0.3358
   62MOL    O6625808   3.082   7.262   0.897 -0.2738  0.2992 -0.0477
   62MOL    C6725809   3.171   7.354   0.833 -0.2947 -0.1134  0.0804
   62MOL    O6825810   3.110   7.463   0.770  0.7634  0.1857  0.2499
   62MOL    C6925811   3.178   7.534   0.677 -0.4304  0.5162  0.3492
   62MOL    C7025812   3.319   7.523   0.655  0.0299  1.1004  0.3970
   62MOL    C7125813   3.381   7.607   0.559 -0.2111  0.2839 -0.7642
   62MOL    C7225814   3.308   7.699   0.487  0.4186 -0.7111  0.0012
   62MOL    C7325815   3.168   7.699   0.501  1.0507  0.1586 -0.2002
   62MOL    C7425816   3.105   7.613   0.590 -0.3631  0.4755  0.2611
   62MOL    C7525817   3.054   7.065   0.775 -0.0719 -0.4775  0.0341
   62MOL    H7625818   2.991   7.260   0.713 -3.8154 -0.4462 -0.8136
   62MOL    H7725819   3.226   7.294   0.759  0.7939 -0.1963  0.9412
   62MOL    H7825820   3.250   7.377   0.905  0.7717 -2.2568 -0.3364
   62MOL    H7925821   3.383   7.452   0.706 -1.9848 -0.1378  1.2790
   62MOL    H8025822   3.489   7.596   0.554 -0.2361 -1.0440  1.0489
   62MOL    H8125823   3.349   7.760   0.407 -1.5797 -0.9091 -1.2068
   62MOL    H8225824   3.107   7.753   0.430 -0.6055  0.3459  1.3333
   62MOL    H8325825   2.998   7.608   0.596 -0.2628 -1.7255  0.5890
   62MOL    H8425826   3.162   7.074   0.765  0.0407 -3.2447 -1.5191
   62MOL    H8525827   3.046   6.999   0.861  0.1756 -0.0735  0.3694
   62MOL    C8625828   3.008   7.000   0.644  0.3627 -0.0683 -0.5809
   62MOL    O8725829   3.025   7.097   0.540  0.1398  0.1694  0.2390
   62MOL    C8825830   2.975   7.080   0.412  0.5367  0.4944  0.0770
   62MOL    O8925831   2.839   7.057   0.401  0.3429 -0.0103  0.5204
   62MOL    C9025832   2.752   7.158   0.431 -0.0513 -0.6679 -0.4802
   62MOL    C9125833   2.616   7.123   0.435 -0.5109  0.2882  0.4878
   62MOL    C9225834   2.515   7.219   0.452 -0.3964 -0.0607 -0.0028
   62MOL    C9325835   2.554   7.347   0.495 -0.4980 -0.4278  0.8039
   62MOL    C9425836   2.687   7.386   0.505  0.4499  0.3432 -0.4991
   62MOL    C9525837   2.792   7.288   0.474 -0.0595 -0.2241  0.4575
   62MOL    C9625838   3.068   6.855   0.611  0.6727 -0.8791 -0.0363
   62MOL    H9725839   2.900   6.989   0.644  0.0137  2.7684  1.3609
   62MOL    H9825840   3.023   7.000   0.355 -1.7362 -0.6232 -0.3188
   62MOL    H9925841   2.996   7.172   0.358 -0.5195  0.9247  0.3868
   62MOL   H10025842   2.585   7.031   0.389 -0.1558  0.2059  0.4092
   62MOL   H10125843   2.413   7.206   0.420 -0.1590  0.2385 -0.8745
   62MOL   H10225844   2.480   7.425   0.506  1.0651  1.0137  1.2850
   62MOL   H10325845   2.707   7.489   0.529 -1.5096  1.0472 -1.7721
   62MOL   H10425846   2.895   7.319   0.472 -0.3791  0.7689 -0.9180
   62MOL   H10525847   3.037   6.814   0.515  0.4135  1.3137 -0.9268
   62MOL   H10625848   3.175   6.866   0.595  0.7487  0.4722  1.2385
   62MOL   C10725849   3.047   6.745   0.718  0.2868  0.2544  0.6800
   62MOL   O10825850   2.951   6.651   0.677 -0.0214 -0.8752  0.4101
   62MOL   C10925851   2.823   6.694   0.670  0.3306  0.5780  0.1968
   62MOL   O11025852   2.788   6.756   0.550 -0.2296  0.2963 -0.6583
   62MOL   C11125853   2.807   6.684   0.432 -0.6066  0.7147  0.2143
   62MOL   C11225854   2.765   6.747   0.314  0.2946  0.4016 -0.4800
   62MOL   C11325855   2.767   6.672   0.190 -0.3587 -0.3227 -0.3738
   62MOL   C11425856   2.831   6.548   0.187  0.3937 -0.2628 -0.1828
   62MOL   C11525857   2.882   6.493   0.306  0.0321 -0.7732  0.1306
   62MOL   C11625858   2.865   6.554   0.430 -0.0334  0.5429  0.0471
   62MOL   C11725859   3.182   6.679   0.754 -0.0964 -0.7191 -0.4628
   62MOL   H11825860   3.006   6.790   0.808 -0.4776  1.9216 -0.4766
   62MOL   H11925861   2.802   6.770   0.746  0.8307 -1.5869  2.5874
   62MOL   H12025862   2.756   6.614   0.700  2.8050 -1.0988  1.3820
   62MOL   H12125863   2.716   6.843   0.330 -1.6427 -0.6836  0.3463
   62MOL   H12225864   2.726   6.711   0.098 -0.5314 -2.3666 -1.1971
   62MOL   H12325865   2.842   6.497   0.092 -2.5329  0.8676 -1.1792
   62MOL   H12425866   2.936   6.399   0.305  1.6417  0.1371 -1.1406
   62MOL   H12525867   2.906   6.502   0.516  0.1815 -1.4852 -1.2453
   62MOL   H12625868   3.237   6.765   0.792 -1.0332 -0.3519  0.0738
   62MOL   H12725869   3.233   6.651   0.662  0.3692  0.0414 -0.4395
   62MOL   C12825870   3.174   6.569   0.864  0.6240 -0.1973 -0.0665
   62MOL   O12925871   3.265   6.619   0.963  0.3918  0.1864 -0.1339
   62MOL   C13025872   3.242   6.590   1.093 -0.1181 -0.6720  0.2415
   62MOL   O13125873   3.281   6.461   1.124  0.0726  0.2308  0.2811
   62MOL   C13225874   3.196   6.372   1.193  0.1959  0.1644 -0.6331
   62MOL   C13325875   3.260   6.270   1.267  0.1343 -1.0251 -0.1734
   62MOL   C13425876   3.193   6.178   1.352  0.0366 -0.1833 -0.1958
   62MOL   C13525877   3.053   6.190   1.358  0.1065  0.3449  0.0427
   62MOL   C13625878   2.991   6.284   1.276 -0.0947 -0.4443 -0.1253
   62MOL   C13725879   3.058   6.378   1.194 -0.1849  0.7296  0.2932
   62MOL   C13825880   3.244   6.443   0.807 -0.0472 -0.4676  0.3519
   62MOL   H13925881   3.080   6.556   0.917  0.1382  3.0825 -0.0535
   62MOL   H14025882   3.141   6.616   1.124  1.1124  1.4920  2.6456
   62MOL   H14125883   3.304   6.653   1.157 -0.4103 -0.8141  0.6653
   62MOL   H14225884   3.367   6.261   1.257  0.2383 -1.7199  1.4432
   62MOL   H14325885   3.251   6.110   1.412 -1.2792 -1.1609 -0.0044
   62MOL   H14425886   2.992   6.123   1.417  0.7100  1.7500  2.3577
   62MOL   H14525887   2.883   6.281   1.273 -0.0512 -1.6619 -0.7304
   62MOL   H14625888   3.008   6.454   1.134 -0.8113  1.4760  1.7441
   62MOL   H14725889   3.331   6.474   0.750  0.1831  0.7725  1.3395
   62MOL   H14825890   3.280   6.379   0.887 -0.6233 -0.3828  0.6828
   62MOL   C14925891   3.155   6.341   0.734 -0.4190  0.2726 -0.0972
   62MOL   O15025892   3.225   6.216   0.724  0.0072  0.3072  0.7775
   62MOL   C15125893   3.239   6.168   0.591 -0.0336  0.5495  0.2644
   62MOL   O15225894   3.309   6.257   0.506  0.6367  0.1829 -0.2391
   62MOL   C15325895   3.441   6.277   0.540 -0.0048 -0.2746 -0.4882
   62MOL   C15425896   3.504   6.210   0.648 -0.7888 -0.0094  0.0849
   62MOL   C15525897   3.643   6.216   0.669 -0.1539 -0.4526  0.2539
   62MOL   C15625898   3.716   6.318   0.604 -0.2010  0.0573  0.4894
   62MOL   C15725899   3.651   6.389   0.503  0.1674  0.3665  0.1909
   62MOL   C15825900   3.516   6.363   0.465  0.7551 -0.5718 -0.7152
   62MOL   C15925901   3.019   6.316   0.816 -0.3449  0.0612 -0.3727
   62MOL   H16025902   3.139   6.394   0.639  0.1834 -1.7182 -1.3297
   62MOL   H16125903   3.280   6.067   0.596 -0.7424  0.2851  0.7308
   62MOL   H16225904   3.143   6.156   0.542 -0.3675  1.8982  0.5484
   62MOL   H16325905   3.449   6.140   0.709 -0.7557 -0.7744 -0.7576
   62MOL   H16425906   3.692   6.152   0.741 -0.9945 -1.0999  0.2423
   62MOL   H16525907   3.818   6.342   0.631  0.2608 -1.9673  0.5643
   62MOL   H16625908   3.713   6.453   0.443  2.1308 -1.7386 -0.0793
   62MOL   H16725909   3.466   6.425   0.392  2.2119  0.3487 -0.9578
   62MOL   H16825910   2.959   6.407   0.816  2.1964  1.7790  0.3458
   62MOL   H16925911   3.042   6.303   0.922  1.0451 -0.9841 -0.7829
   62MOL   C17025912   2.931   6.208   0.762 -0.4176  0.5601  0.5516
   62MOL   O17125913   2.825   6.191   0.859 -0.2534  0.2239  0.4389
   62MOL   C17225914   2.834   6.095   0.953  0.2478  0.6554  0.4298
   62MOL   O17325915   2.825   5.968   0.897 -0.2434  0.0092 -0.6553
   62MOL   C17425916   2.704   5.921   0.850  0.3284 -0.0792  0.1644
   62MOL   C17525917   2.706   5.801   0.779  0.7033  0.1110  0.7335
   62MOL   C17625918   2.595   5.753   0.714 -0.2919 -0.0165 -0.0051
   62MOL   C17725919   2.473   5.817   0.727  0.5393  0.0134 -0.3002
   62MOL   C17825920   2.463   5.939   0.797  0.3115  0.2470 -0.4282
   62MOL   C17925921   2.576   5.992   0.857  0.2550 -0.4262  0.3260
   62MOL   C18025922   2.857   6.252   0.632 -0.4327  0.0876 -0.3327
   62MOL   H18125923   2.975   6.110   0.742  1.7040  1.2233  1.8639
   62MOL   H18225924   2.755   6.116   1.025  1.2907  1.9438  1.2421
   62MOL   H18325925   2.919   6.107   1.020  0.4899 -3.2953  0.9466
   62MOL   H18425926   2.806   5.760   0.774  1.5008  2.1997 -1.2450
   62MOL   H18525927   2.597   5.655   0.671  0.6719 -0.0988  0.2218
   62MOL   H18625928   2.388   5.764   0.685 -0.2637 -1.7053  3.2671
   62MOL   H18725929   2.375   6.001   0.810  0.6213  0.5971  0.0102
   62MOL   H18825930   2.558   6.092   0.895  0.4162  0.1186 -0.9969
   62MOL   H18925931   2.787   6.334   0.646  0.4690  1.0627 -1.3790
   62MOL   H19025932   2.940   6.293   0.574 -0.6551 -0.6037 -1.1568
   62MOL   C19125933   2.780   6.151   0.542  0.2030 -0.1225 -0.7676
   62MOL   O19225934   2.882   6.083   0.465 -0.1942 -0.1876 -0.0127
   62MOL   C19325935   2.851   5.956   0.427 -0.0166 -0.6667 -0.7696
   62MOL   O19425936   2.958   5.888   0.379 -0.0147  0.1280  0.0874
   62MOL   C19525937   3.056   5.840   0.459  0.1172 -0.3869  0.6730
   62MOL   C19625938   3.172   5.783   0.401  0.2856  0.7781  0.6761
   62MOL   C19725939   3.276   5.737   0.487  0.0594  0.9726 -0.3721
   62MOL   C19825940   3.261   5.743   0.626  0.1741 -0.0824  0.0030
   62MOL   C19925941   3.142   5.792   0.688  0.2783 -0.0406  0.5154
   62MOL   C20025942   3.042   5.837   0.601 -0.0795  0.2624  0.4295
   62MOL   C20125943   2.673   6.208   0.450  0.0142 -0.6771 -0.6026
   62MOL   H20225944   2.734   6.090   0.619 -2.9007  2.2648 -0.6620
   62MOL   H20325945   2.776   5.964   0.348 -0.7507 -1.4474 -0.1473
   62MOL   H20425946   2.811   5.893   0.506 -0.2986 -1.9852 -1.9525
   62MOL   H20525947   3.189   5.783   0.294  0.1812  0.8444  0.6595
   62MOL   H20625948   3.367   5.698   0.444 -0.7179 -2.3110  0.7663
   62MOL   H20725949   3.336   5.708   0.695  0.4378 -1.2593 -0.8651
   62MOL   H20825950   3.127   5.782   0.795 -0.7581  0.2734  0.3981
   62MOL   H20925951   2.957   5.884   0.649 -0.2355  0.3976  0.0284
   62MOL   H21025952   2.728   6.262   0.373 -1.9792  2.6306  0.1790
   62MOL   H21125953   2.629   6.116   0.411  0.4962  0.1225 -3.1652
   62MOL   C21225954   2.560   6.299   0.504 -0.9564  0.7184  0.7650
   62MOL   O21325955   2.473   6.337   0.396  0.4395 -0.0485 -0.2625
   62MOL   C21425956   2.524   6.450   0.330 -0.3727  0.4596 -1.0627
   62MOL   O21525957   2.519   6.559   0.412  0.3055  0.1787 -0.4233
   62MOL   C21625958   2.400   6.633   0.419 -0.0390  0.5288  0.0441
   62MOL   C21725959   2.408   6.754   0.491 -1.0431 -0.2742  0.0290
   62MOL   C21825960   2.296   6.840   0.499  1.2709  0.3578  0.7303
   62MOL   C21925961   2.173   6.804   0.434  0.3328 -0.4949  0.4592
   62MOL   C22025962   2.169   6.678   0.372  0.5451  0.4543  0.2934
   62MOL   C22125963   2.278   6.588   0.371 -0.5400  0.1226  0.0947
   62MOL   C22225964   2.479   6.242   0.621  0.4317  0.9543 -0.3062
   62MOL   H22325965   2.610   6.387   0.543  1.9374 -0.7420  0.5155
   62MOL   H22425966   2.463   6.467   0.241 -0.7304  2.2193 -0.4964
   62MOL   H22525967   2.626   6.424   0.302 -0.6503 -1.8401 -0.0597
   62MOL   H22625968   2.507   6.782   0.524 -1.4040  0.3188  0.6203
   62MOL   H22725969   2.303   6.938   0.543 -1.8584  1.4844 -1.1344
   62MOL   H22825970   2.083   6.863   0.443  1.1560  0.4862  2.7886
   62MOL   H22925971   2.071   6.652   0.335  0.8078 -0.3288  0.1300
   62MOL   H23025972   2.251   6.490   0.335  3.1669 -1.5438  1.6038
   62MOL   H23125973   2.422   6.156   0.586 -0.6270  1.6906 -0.3873
   62MOL   H23225974   2.536   6.195   0.702  0.9067  2.4259  0.2346
   62MOL   C23325975   2.392   6.345   0.687 -0.7425 -0.1740 -0.1876
   62MOL   O23425976   2.287   6.282   0.761  0.2169 -0.6184 -0.2337
   62MOL   C23525977   2.181   6.249   0.677 -0.6067  0.0191  0.0969
   62MOL   O23625978   2.070   6.198   0.756  0.4453  0.4146 -0.1054
   62MOL   C23725979   1.997   6.286   0.828  0.0673 -0.6913  0.6058
   62MOL   C23825980   1.882   6.227   0.890  0.4560 -0.3621  0.5825
   62MOL   C23925981   1.800   6.303   0.974  0.4661 -0.5623 -0.1221
   62MOL   C24025982   1.815   6.437   0.978  0.3486  0.0045  0.1377
   62MOL   C24125983   1.921   6.503   0.920 -0.1705 -0.4769 -0.6839
   62MOL   C24225984   2.017   6.427   0.845  0.2253 -0.2307 -0.3547
   62MOL   C24325985   2.464   6.460   0.775 -0.0891  0.0518  0.0407
   62MOL   H24425986   2.350   6.393   0.599  0.2793 -1.4687 -1.3991
   62MOL   H24525987   2.210   6.171   0.606  2.9687  0.5820  0.8649
   62MOL   H24625988   2.146   6.338   0.625 -0.4213 -0.1224 -0.2703
   62MOL   H24725989   1.864   6.123   0.867 -0.4201  0.0835 -0.8210
   62MOL   H24825990   1.704   6.270   1.011 -1.7385  2.0976 -3.1664
   62MOL   H24925991   1.739   6.490   1.034  0.4661 -1.7930  2.0665
   62MOL   H25025992   1.936   6.610   0.924 -0.7080 -0.4537  1.1900
   62MOL   H25125993   2.105   6.477   0.807 -0.5032  1.6535  0.3820
   62MOL   H25225994   2.527   6.522   0.710  1.4366 -2.4448 -0.9009
   62MOL   H25325995   2.389   6.527   0.817 -0.3259  0.2423 -0.6704
   62MOL   C25425996   2.562   6.412   0.886  0.0422 -0.0968  0.5722
   62MOL   O25525997   2.631   6.522   0.936  0.2574  0.4842  0.4988
   62MOL   C25625998   2.746   6.499   1.013 -0.3904  0.7717 -0.2104
   62MOL   O25725999   2.836   6.607   1.014  0.1753  0.0675  0.4339
   62MOL   C25826000   2.808   6.708   1.105 -0.1463  0.5056 -0.2329
   62MOL   C25926001   2.908   6.810   1.131 -0.3879 -0.0172 -0.3057
   62MOL   C26026002   2.887   6.925   1.213 -0.2897 -0.8254 -0.0881
   62MOL   C26126003   2.757   6.945   1.265  0.4501  0.1137 -0.0844
   62MOL   C26226004   2.658   6.847   1.240 -0.0357 -0.0703  0.0482
   62MOL   C26326005   2.679   6.732   1.162  0.2659 -0.3377  0.8005
   62MOL   C26426006   2.492   6.329   0.997 -0.6220  0.0789  0.2143
   62MOL   H26526007   2.635   6.347   0.838 -2.2970 -1.8552 -0.7723
   62MOL   H26626008   2.801   6.420   0.962  0.2768  0.3986  1.0607
   62MOL   H26726009   2.724   6.462   1.114 -0.2943  0.2361 -0.3820
   62MOL   H26826010   3.011   6.786   1.105 -0.7399  0.1303 -1.8691
   62MOL   H26926011   2.970   6.989   1.238 -0.7435 -0.4241  0.3717
   62MOL   H27026012   2.738   7.032   1.326 -1.8338 -0.2998 -0.1551
   62MOL   H27126013   2.552   6.860   1.256 -0.2880 -1.4866 -0.4083
   62MOL   H27226014   2.601   6.664   1.130  0.3346 -0.3105  0.5721
   62MOL   H27326015   2.415   6.262   0.960 -0.9366  0.8562 -0.5497
   62MOL   H27426016   2.569   6.269   1.045 -1.9379 -0.9608  1.0768
   62MOL   C27526017   2.426   6.406   1.119  0.0493  0.0993 -0.6730
   62MOL   O27626018   2.521   6.447   1.214 -0.1741  0.2700 -0.0071
   62MOL   C27726019   2.550   6.353   1.308 -0.1595  0.0399 -0.2373
   62MOL   O27826020   2.644   6.255   1.268  0.5972 -0.1509 -1.0816
   62MOL   C27926021   2.667   6.148   1.359  0.5047 -0.3067 -0.9806
   62MOL   C28026022   2.698   6.017   1.319  0.8165 -0.3342 -0.5382
   62MOL   C28126023   2.713   5.912   1.414 -0.0155  0.8952 -0.4040
   62MOL   C28226024   2.675   5.935   1.553 -0.2449 -0.1740  0.2132
   62MOL   C28326025   2.660   6.069   1.598 -0.3394 -0.2444 -0.2543
   62MOL   C28426026   2.661   6.171   1.495  0.0539 -0.5959  0.5605
   62MOL   C28526027   2.344   6.531   1.076  0.0754 -0.0261  0.4178
   62MOL   H28626028   2.352   6.336   1.158  1.1120  0.2594  1.6987
   62MOL   H28726029   2.462   6.295   1.336 -0.2516  1.4931  2.6857
   62MOL   H28826030   2.600   6.405   1.390 -2.2129 -0.1704  1.1885
   62MOL   H28926031   2.684   5.992   1.215 -0.1813  0.0989 -0.5164
   62MOL   H29026032   2.720   5.809   1.380 -0.1436  1.3272 -1.7492
   62MOL   H29126033   2.663   5.852   1.620 -2.6354  0.4959  0.6861
   62MOL   H29226034   2.651   6.095   1.702 -1.2265 -0.5222 -0.2636
   62MOL   H29326035   2.654   6.274   1.528  0.3870 -0.4373  0.1341
   62MOL   H29426036   2.273   6.485   1.008  0.5408  1.6160 -1.2163
   62MOL   H29526037   2.401   6.606   1.021 -1.7432  1.0883  0.0048
   62MOL   C29626038   2.266   6.600   1.188 -0.0803 -0.0820  0.6090
   62MOL   O29726039   2.208   6.715   1.123 -0.2439 -0.0937  0.1572
   62MOL   C29826040   2.280   6.832   1.149 -1.0390  0.0934  0.3547
   62MOL   O29926041   2.269   6.871   1.282  0.0374 -0.3282  0.3330
   62MOL   C30026042   2.334   6.992   1.327  0.3922  0.5885  0.0202
   62MOL   C30126043   2.339   7.020   1.467  0.1156 -0.1752 -0.4286
   62MOL   C30226044   2.408   7.134   1.516  0.8852  0.1250 -0.2073
   62MOL   C30326045   2.453   7.229   1.426 -0.5508 -0.3915  0.5490
   62MOL   C30426046   2.439   7.199   1.291  0.8818 -0.5504  0.0880
   62MOL   C30526047   2.394   7.080   1.232 -1.1088  0.4524 -0.3222
   62MOL   C30626048   2.133   6.540   1.239 -0.2071  0.5773  0.4607
   62MOL   H30726049   2.325   6.645   1.268  2.9887 -0.9012 -1.1263
   62MOL   H30826050   2.229   6.905   1.087  1.1739 -0.3403 -2.0486
   62MOL   H30926051   2.382   6.828   1.112 -1.0795  0.3968  0.2071
   62MOL   H31026052   2.303   6.945   1.536 -3.5710  1.0600 -0.9352
   62MOL   H31126053   2.425   7.150   1.621  1.7058  2.4444 -0.6697
   62MOL   H31226054   2.500   7.324   1.449  0.2275 -1.2723  2.7363
   62MOL   H31326055   2.483   7.269   1.222  0.7547 -0.8183 -0.2626
   62MOL   H31426056   2.407   7.062   1.126 -0.5707 -0.1687 -0.1509
   62MOL   H31526057   2.077   6.502   1.153 -2.2517  0.4740  1.7995
   62MOL   H31626058   2.075   6.628   1.267 -2.2477  0.0967 -2.0644
   62MOL   C31726059   2.150   6.446   1.360  0.2717  0.1013  0.5615
   62MOL   O31826060   2.061   6.341   1.345 -0.2757 -0.1492  0.5650
   62MOL   C31926061   2.085   6.233   1.255  0.4298 -0.0650  0.3395
   62MOL   O32026062   2.191   6.164   1.287  0.2177  0.0887  0.0513
   62MOL   C32126063   2.207   6.047   1.219  0.4446  0.8647  0.7176
   62MOL   C32226064   2.320   5.979   1.271 -0.2789 -0.0193 -0.2172
   62MOL   C32326065   2.349   5.851   1.225  0.9257 -0.0934  0.4302
   62MOL   C32426066   2.269   5.795   1.121 -0.2787  0.3171 -0.3391
   62MOL   C32526067   2.158   5.863   1.072  0.6814 -0.0128 -1.0851
   62MOL   C32626068   2.126   5.991   1.116 -0.3949  0.0647  1.1030
   62MOL   C32726069   2.138   6.517   1.493  0.0372  0.0329 -0.0173
   62MOL   H32826070   2.245   6.394   1.345 -0.6599 -1.5898  0.3703
   62MOL   H32926071   2.110   6.279   1.160  1.6081  0.4839  0.9078
   62MOL   H33026072   1.993   6.176   1.259  1.2510 -1.3253  1.7098
   62MOL   H33126073   2.382   6.032   1.342 -0.8949 -0.8948  0.9992
   62MOL   H33226074   2.438   5.800   1.261  2.5673  2.8398  0.6510
   62MOL   H33326075   2.281   5.696   1.081 -1.9334  1.0734 -2.8871
   62MOL   H33426076   2.098   5.808   1.001 -0.9158  0.8529 -0.4524
   62MOL   H33526077   2.051   6.050   1.066 -0.4157 -0.6468  0.2868
   62MOL   H33626078   2.216   6.592   1.498  0.4971 -0.3605 -0.9780
   62MOL   H33726079   2.040   6.564   1.493  0.0399  0.0522 -1.0380
   62MOL   C33826080   2.160   6.418   1.605 -0.5970  0.0166 -0.1982
   62MOL   O33926081   2.293   6.363   1.601 -0.6125  0.5340  0.1589
   62MOL   C34026082   2.298   6.217   1.614 -0.3843 -0.2268 -0.1031
   62MOL   O34126083   2.302   6.179   1.749 -0.0517 -0.3654 -0.7766
   62MOL   C34226084   2.313   6.050   1.784 -0.4227 -0.3132 -0.1878
   62MOL   C34326085   2.263   5.936   1.715  0.2277  0.9715  0.4745
   62MOL   C34426086   2.266   5.805   1.763 -0.2172 -0.4370 -0.2001
   62MOL   C34526087   2.341   5.779   1.881  0.0208 -0.2112  0.0391
   62MOL   C34626088   2.391   5.887   1.953  0.6017  0.5218  0.1294
   62MOL   C34726089   2.383   6.017   1.907 -0.8017 -0.2327  0.5943
   62MOL   C34826090   2.140   6.488   1.740 -0.1513 -0.1103  0.2420
   62MOL   H34926091   2.079   6.346   1.597 -0.6415  0.0364  0.0623
   62MOL   H35026092   2.390   6.187   1.564 -1.3864 -2.1020 -0.8647
   62MOL   H35126093   2.209   6.170   1.573 -1.3682  0.6109  1.0492
   62MOL   H35226094   2.206   5.953   1.624  2.6386  1.1775 -1.0440
   62MOL   H35326095   2.229   5.726   1.699  1.3727 -1.5695  0.2386
   62MOL   H35426096   2.350   5.679   1.923 -1.5987 -0.9089 -1.2069
   62MOL   H35526097   2.435   5.860   2.048  0.2174  0.5070  0.3000
   62MOL   H35626098   2.423   6.096   1.967  0.7082  1.7381 -2.8873
   62MOL   H35726099   2.073   6.571   1.719  0.5256  0.3823 -0.0026
   62MOL   H35826100   2.234   6.537   1.765  0.8629 -0.8669 -1.9449
   62MOL   C35926101   2.094   6.405   1.866  0.0747  0.3431  0.6799
   62MOL   O36026102   1.956   6.395   1.858  0.3137 -0.0820 -0.4353
   62MOL   C36126103   1.895   6.266   1.847 -0.5870  0.5413  0.1417
   62MOL   O36226104   1.909   6.220   1.713 -0.0367  0.9253  0.4217
   62MOL   C36326105   1.852   6.097   1.682 -1.1536  1.0454 -0.6621
   62MOL   C36426106   1.830   6.078   1.547 -0.5702  0.3586 -0.2554
   62MOL   C36526107   1.784   5.951   1.511 -0.2654 -0.0813  0.1840
   62MOL   C36626108   1.731   5.858   1.598 -0.2062 -0.3315  0.4422
   62MOL   C36726109   1.747   5.885   1.730 -0.2795 -1.1801  0.4807
   62MOL   C36826110   1.817   5.998   1.771  0.4855 -0.3332 -0.0176
   62MOL   C36926111   2.132   6.477   2.001 -0.2588  0.0162 -0.5725
   62MOL   H37026112   2.146   6.310   1.868  1.7620  1.1149 -2.3326
   62MOL   H37126113   1.789   6.276   1.872 -0.1742 -0.7797  2.4498
   62MOL   H37226114   1.951   6.192   1.903 -0.4354 -0.4984 -1.3346
   62MOL   H37326115   1.867   6.149   1.475 -2.2160 -0.7000 -2.1733
   62MOL   H37426116   1.781   5.926   1.406 -1.0159 -1.3050  0.4897
   62MOL   H37526117   1.681   5.768   1.566 -1.1709 -0.5789  2.5990
   62MOL   H37626118   1.730   5.810   1.805 -1.1345 -2.3073 -0.8211
   62MOL   H37726119   1.838   6.007   1.877  1.6789 -1.6089 -0.1379
   62MOL   H37826120   2.070   6.567   2.003 -0.7683 -0.3455  0.4105
   62MOL   H37926121   2.239   6.499   1.995  0.1765 -1.7423  0.2897
   62MOL   C38026122   2.124   6.374   2.120  0.0361  0.3736 -0.7151
   62MOL   O38126123   2.146   6.457   2.232 -0.4019 -0.5317 -0.0734
   62MOL   C38226124   2.043   6.528   2.289 -0.2963  0.0592 -0.1659
   62MOL   O38326125   1.960   6.591   2.202  0.2123  0.0808  0.1759
   62MOL   C38426126   1.834   6.615   2.253 -0.8398 -0.0168  0.0372
   62MOL   C38526127   1.737   6.650   2.155 -0.0981  0.7091 -0.3480
   62MOL   C38626128   1.600   6.666   2.187  0.0701  0.1662 -0.0681
   62MOL   C38726129   1.564   6.650   2.319  0.0152 -0.2280  0.2414
   62MOL   C38826130   1.659   6.616   2.416 -1.0381 -0.2976 -0.4182
   62MOL   C38926131   1.794   6.589   2.387  0.1283 -0.5154 -0.0743
   62MOL   C39026132   2.246   6.277   2.120  0.0074  0.8378  0.3853
   62MOL   H39126133   2.032   6.316   2.122  2.3465 -3.4195  0.0043
   62MOL   H39226134   1.994   6.451   2.347 -1.3179  1.2440  0.5732
   62MOL   H39326135   2.086   6.595   2.364 -1.3942  0.8911 -0.2704
   62MOL   H39426136   1.764   6.667   2.052  2.5385 -2.0404 -0.1939
   62MOL   H39526137   1.526   6.699   2.115 -0.4769  0.4302  0.6026
   62MOL   H39626138   1.459   6.655   2.346  1.1169 -1.9867  5.3107
   62MOL   H39726139   1.619   6.599   2.514 -0.5052 -0.1063 -0.1655
   62MOL   H39826140   1.857   6.555   2.467  2.4086  0.8706 -1.2522
   62MOL   H39926141   2.340   6.333   2.121  0.8284 -0.5237  0.7977
   62MOL   H40026142   2.242   6.214   2.031 -0.1940 -0.0554  1.0164
   62MOL   C40126143   2.246   6.175   2.235 -0.0059  0.7744  0.7586
   62MOL   O40226144   2.219   6.045   2.185  0.1652  0.0239 -0.0059
   62MOL   C40326145   2.092   6.025   2.141 -0.1418  0.0032  0.6122
   62MOL   O40426146   1.997   6.096   2.216 -0.1939 -0.6920  0.5630
   62MOL   C40526147   1.867   6.078   2.181  1.0885  1.0126 -0.2551
   62MOL   C40626148   1.786   6.185   2.215  0.3805  0.4513 -0.9317
   62MOL   C40726149   1.647   6.166   2.198 -0.0059  0.8575 -0.7167
   62MOL   C40826150   1.584   6.054   2.142  1.2102 -0.2799 -0.3606
   62MOL   C40926151   1.665   5.945   2.111  0.4333  0.0477  0.5214
   62MOL   C41026152   1.807   5.959   2.132 -0.0272  0.5932  0.2555
   62MOL   C41126153   2.383   6.175   2.308 -0.0000 -0.5698 -0.3040
   62MOL   H41226154   2.183   6.207   2.317 -0.6527  0.8870  0.2201
   62MOL   H41326155   2.084   5.917   2.150 -0.1344  0.1056  1.9755
   62MOL   H41426156   2.085   6.047   2.034 -0.7923 -1.4514  0.3517
   62MOL   H41526157   1.828   6.274   2.260 -1.5584  1.8985 -1.8825
   62MOL   H41626158   1.579   6.246   2.223 -0.2170  0.4919 -0.0884
   62MOL   H41726159   1.476   6.055   2.138  1.0625 -2.1779  2.0176
   62MOL   H41826160   1.626   5.852   2.073  3.7249 -1.1387 -0.0780
   62MOL   H41926161   1.860   5.874   2.092 -0.0850  0.1848  1.0183
   62MOL   H42026162   2.464   6.152   2.238  1.9682  1.4957  1.2247
   62MOL   H42126163   2.384   6.102   2.390  0.4264  2.4609  2.4771
   62MOL   H42226164   2.389   6.277   2.346 -1.9696 -1.2132  1.8637
   63MOL     C126165   0.369   2.788   6.723  0.2465  0.5558  0.9367
   63MOL     O226166   0.309   2.808   6.851  0.3757  0.0230 -0.0812
   63MOL     C326167   0.303   2.941   6.898 -0.3168  0.3635  0.2417
   63MOL     O426168   0.223   3.018   6.818 -0.1869 -0.1832 -0.3094
   63MOL     C526169   0.215   3.153   6.840  0.0473 -0.3729  0.2287
   63MOL     C626170   0.132   3.233   6.754 -0.0967  0.2472 -0.3571
   63MOL     C726171   0.141   3.373   6.754  0.0202 -0.7867  0.3385
   63MOL     C826172   0.238   3.436   6.832 -0.1453  0.3330 -0.0839
   63MOL     C926173   0.311   3.363   6.925  0.2023  0.6010 -0.1946
   63MOL    C1026174   0.297   3.226   6.929  0.7275 -0.6626 -0.1359
   63MOL    C1126175   0.314   2.650   6.667  0.3844  0.1097  0.3454
   63MOL    H1226176   0.336   2.859   6.647 -2.0459 -1.2554  0.1914
   63MOL    H1326177   0.274   2.930   7.002 -1.4402 -1.4541 -0.2376
   63MOL    H1426178   0.407   2.972   6.886 -0.3088  1.0523  1.9240
   63MOL    H1526179   0.052   3.190   6.696 -0.5393 -0.8485  1.0312
   63MOL    H1626180   0.083   3.429   6.683 -1.0670 -0.0221  1.8135
   63MOL    H1726181   0.263   3.541   6.833  0.2091  0.2649 -0.9835
   63MOL    H1826182   0.370   3.416   6.998 -1.7812  0.3618  1.6111
   63MOL    H1926183   0.344   3.165   7.005 -2.1320  0.4523  2.6361
   63MOL    H2026184   0.211   2.654   6.633  0.6525  0.5476 -0.4433
   63MOL    H2126185   0.322   2.594   6.760  0.5164 -1.5411 -0.6253
   63MOL    H2226186   0.477   2.784   6.740  0.5354 -0.1253 -0.9896
   63MOL    C2326187   0.401   2.590   6.554  0.0046  0.1751  0.2469
   63MOL    O2426188   0.429   2.699   6.456  0.2168 -0.2938 -0.5597
   63MOL    C2526189   0.507   2.673   6.344 -0.2462 -0.0733 -0.5467
   63MOL    O2626190   0.623   2.600   6.375  0.0800 -0.7755 -0.0751
   63MOL    C2726191   0.725   2.660   6.439  0.0742 -0.7334  0.0071
   63MOL    C2826192   0.716   2.794   6.490 -0.3133  0.1974 -0.3445
   63MOL    C2926193   0.826   2.854   6.554 -0.0799  0.1394 -0.0494
   63MOL    C3026194   0.954   2.777   6.573 -0.1898 -0.9247  0.2044
   63MOL    C3126195   0.956   2.644   6.529  0.5014 -0.5185 -0.6586
   63MOL    C3226196   0.849   2.592   6.462 -0.4495 -0.1788  0.0982
   63MOL    C3326197   0.334   2.475   6.485 -0.1684  0.1397 -0.2165
   63MOL    H3426198   0.498   2.558   6.591  0.9986  0.8493 -1.6798
   63MOL    H3526199   0.522   2.766   6.290 -0.7861  0.7131  0.6347
   63MOL    H3626200   0.450   2.613   6.273 -0.0318 -1.4783  0.4231
   63MOL    H3726201   0.624   2.849   6.492 -0.1208  0.5319  2.5965
   63MOL    H3826202   0.814   2.952   6.597  1.9783  0.6706 -0.6743
   63MOL    H3926203   1.040   2.821   6.622 -0.5158  0.2566 -0.2638
   63MOL    H4026204   1.044   2.589   6.558  1.0354 -0.5637 -2.2872
   63MOL    H4126205   0.866   2.490   6.432  0.0819 -0.7799  2.2925
   63MOL    H4226206   0.403   2.436   6.410 -1.5207  3.2802 -3.2440
   63MOL    H4326207   0.245   2.504   6.429 -1.0586  0.3328  1.2694
   63MOL    C4426208   0.289   2.354   6.578 -0.3323  0.0007  0.0825
   63MOL    O4526209   0.164   2.388   6.639 -0.0830 -0.0663  0.1409
   63MOL    C4626210   0.064   2.299   6.623  0.5016  0.4500  0.2167
   63MOL    O4726211   0.006   2.301   6.499 -0.0502 -0.5355  0.0019
   63MOL    C4826212   7.909   2.406   6.457 -0.1264 -0.0347 -0.2349
   63MOL    C4926213   7.830   2.387   6.345  0.3516 -0.2968 -0.1116
   63MOL    C5026214   7.747   2.486   6.296  0.6274  0.4601 -0.2924
   63MOL    C5126215   7.739   2.610   6.360 -0.2291 -0.2518 -0.5842
   63MOL    C5226216   7.819   2.632   6.473  0.1905 -0.6058  0.6278
   63MOL    C5326217   7.902   2.533   6.523  0.1445 -0.2265  0.6199
   63MOL    C5426218   0.388   2.312   6.690 -0.4068  0.1679  0.3096
   63MOL    H5526219   0.274   2.270   6.511  1.0348  0.8730 -1.3506
   63MOL    H5626220   7.968   2.329   6.699 -0.7636  0.1492 -0.8418
   63MOL    H5726221   0.086   2.193   6.639 -0.3971  0.3431  0.7898
   63MOL    H5826222   7.844   2.293   6.294  3.1384 -1.0875  1.9794
   63MOL    H5926223   7.689   2.466   6.207  4.1121  1.0853 -2.8030
   63MOL    H6026224   7.679   2.691   6.320 -0.0106  1.1643  1.8599
   63MOL    H6126225   7.817   2.728   6.524  0.2772  0.5802 -1.5584
   63MOL    H6226226   7.958   2.558   6.612 -0.8104  1.0896  0.8656
   63MOL    H6326227   0.410   2.387   6.766  3.6979 -0.3324 -0.2753
   63MOL    H6426228   0.353   2.231   6.754  1.6602 -1.3482 -0.4428
   63MOL    C6526229   0.528   2.271   6.633  0.5460 -0.3131 -0.8400
   63MOL    O6626230   0.608   2.252   6.751  0.2569 -0.7707  0.0142
   63MOL    C6726231   0.692   2.366   6.777 -0.2755 -0.4009  0.3876
   63MOL    O6826232   0.625   2.479   6.824  0.5663 -0.3467  0.1765
   63MOL    C6926233   0.610   2.500   6.959 -0.3153  0.7463 -0.7340
   63MOL    C7026234   0.712   2.492   7.056  0.1325  0.3090  0.4907
   63MOL    C7126235   0.689   2.518   7.194  1.0228 -0.2442  0.1869
   63MOL    C7226236   0.561   2.559   7.239  0.3444 -0.1254  0.6058
   63MOL    C7326237   0.457   2.578   7.137  0.2006  0.1598 -0.2815
   63MOL    C7426238   0.489   2.557   7.002 -0.4299 -0.1036  0.2132
   63MOL    C7526239   0.516   2.122   6.579  0.5942  0.4948 -0.2469
   63MOL    H7626240   0.565   2.345   6.562 -0.1926  1.8010  0.9503
   63MOL    H7726241   0.760   2.387   6.694  0.3186 -1.4918  0.5846
   63MOL    H7826242   0.766   2.328   6.848  1.5004 -0.1309 -1.2532
   63MOL    H7926243   0.807   2.456   7.021 -0.5971 -0.4438 -0.7410
   63MOL    H8026244   0.769   2.507   7.265  2.6135  1.5559 -1.3048
   63MOL    H8126245   0.546   2.584   7.343  0.5960 -2.5665  1.2553
   63MOL    H8226246   0.365   2.625   7.168  0.3061  0.5842 -0.6020
   63MOL    H8326247   0.408   2.573   6.932 -1.5419  1.2650  1.7569
   63MOL    H8426248   0.523   2.052   6.662 -1.2850  1.8942  1.1528
   63MOL    H8526249   0.417   2.101   6.539  1.1502  0.8678 -1.8705
   63MOL    C8626250   0.629   2.088   6.480  0.1487  0.4699 -0.4892
   63MOL    O8726251   0.622   2.181   6.366 -0.0314 -0.2633  0.2337
   63MOL    C8826252   0.530   2.139   6.268  0.1728 -0.1066 -0.3418
   63MOL    O8926253   0.565   2.026   6.201 -0.5997  0.4606 -0.2420
   63MOL    C9026254   0.644   2.042   6.084  0.4900 -0.0234 -0.5283
   63MOL    C9126255   0.743   2.147   6.068 -0.8184  0.7237  0.2141
   63MOL    C9226256   0.810   2.163   5.945 -0.1652  0.2887 -0.0782
   63MOL    C9326257   0.773   2.077   5.835  0.0832 -0.1768 -0.8056
   63MOL    C9426258   0.684   1.970   5.853 -0.3391  0.5044 -0.4204
   63MOL    C9526259   0.620   1.955   5.978  0.2935 -0.0371  0.1013
   63MOL    C9626260   0.771   2.085   6.546  0.4094 -0.4567 -0.4357
   63MOL    H9726261   0.621   1.987   6.440  0.0032  0.8161 -1.3436
   63MOL    H9826262   0.524   2.223   6.199  2.3744  2.1316  2.1065
   63MOL    H9926263   0.432   2.109   6.303 -0.0628  0.6133 -0.3895
   63MOL   H10026264   0.766   2.212   6.151  1.1765  0.1663  0.1330
   63MOL   H10126265   0.886   2.235   5.918  2.7992 -2.6077  0.2498
   63MOL   H10226266   0.822   2.089   5.740  1.8739  0.6837  0.1897
   63MOL   H10326267   0.662   1.908   5.768 -1.0244  1.9143 -1.2939
   63MOL   H10426268   0.541   1.882   5.985  0.4774 -0.3683 -1.0584
   63MOL   H10526269   0.796   2.190   6.561  1.0993 -0.8442  1.2654
   63MOL   H10626270   0.765   2.036   6.643  0.0862  1.8019  0.7052
   63MOL   C10726271   0.879   2.024   6.460  0.1022 -0.1537  0.0760
   63MOL   O10826272   0.993   2.108   6.464 -0.3146 -0.1669  0.9367
   63MOL   C10926273   0.985   2.201   6.357  0.0938 -0.3390  0.3758
   63MOL   O11026274   1.060   2.318   6.384 -0.1824 -0.5031  0.2394
   63MOL   C11126275   1.197   2.310   6.384 -0.4153 -0.0413 -1.3089
   63MOL   C11226276   1.273   2.190   6.359 -0.5684 -1.0358 -0.3501
   63MOL   C11326277   1.412   2.192   6.356 -0.7175  0.1573 -0.9019
   63MOL   C11426278   1.479   2.317   6.385  0.0805 -0.0058  0.0166
   63MOL   C11526279   1.408   2.428   6.424  0.4051  0.2405  0.7406
   63MOL   C11626280   1.269   2.426   6.419 -0.5129 -0.1271 -0.0821
   63MOL   C11726281   0.925   1.884   6.507 -0.1969 -0.3481 -0.1762
   63MOL   H11826282   0.844   2.015   6.357  0.0282 -1.7296  0.2244
   63MOL   H11926283   0.890   2.250   6.337  0.1879 -1.0106 -1.8306
   63MOL   H12026284   1.015   2.159   6.261 -0.9866  0.4409 -0.3156
   63MOL   H12126285   1.227   2.094   6.339 -0.4423 -1.2310  0.2840
   63MOL   H12226286   1.472   2.110   6.318  0.4960  0.4454  0.3353
   63MOL   H12326287   1.585   2.324   6.367 -0.0084  0.0151 -0.5012
   63MOL   H12426288   1.457   2.523   6.435 -0.0622  0.8193 -1.9634
   63MOL   H12526289   1.214   2.515   6.447 -1.2395  0.0144 -1.9166
   63MOL   H12626290   0.976   1.889   6.604 -0.6421  1.7760 -0.0260
   63MOL   H12726291   1.005   1.859   6.438  0.5959  0.1610  0.5559
   63MOL   C12826292   0.819   1.773   6.497 -0.1656  0.2005  0.0266
   63MOL   O12926293   0.858   1.633   6.530 -0.1516 -0.5596 -0.4180
   63MOL   C13026294   0.924   1.622   6.654  0.9370 -0.0913  0.5153
   63MOL   O13126295   0.850   1.686   6.759  0.1012 -0.2652 -0.1878
   63MOL   C13226296   0.721   1.644   6.786  0.1193 -0.0187  0.1761
   63MOL   C13326297   0.651   1.544   6.712  0.6032  0.1849  0.0400
   63MOL   C13426298   0.524   1.504   6.756  0.6224  1.1140 -0.4856
   63MOL   C13526299   0.463   1.567   6.862  0.2182  0.4928  0.7253
   63MOL   C13626300   0.531   1.666   6.939 -0.9838 -0.0426 -0.4223
   63MOL   C13726301   0.660   1.703   6.901  0.1236  0.4689 -0.1690
   63MOL   C13826302   0.756   1.762   6.352 -0.3942 -0.3499  0.4637
   63MOL   H13926303   0.739   1.801   6.565  0.2429 -0.5486  0.8317
   63MOL   H14026304   1.022   1.666   6.634  0.9076 -1.4373 -3.0444
   63MOL   H14126305   0.927   1.514   6.667 -1.1119 -0.5230 -2.1734
   63MOL   H14226306   0.693   1.493   6.627 -1.1949 -0.2468 -0.5907
   63MOL   H14326307   0.457   1.438   6.703  0.6654 -3.1073  4.3850
   63MOL   H14426308   0.357   1.549   6.876  0.4232  0.6970  2.7804
   63MOL   H14526309   0.482   1.719   7.020 -0.9944  0.6186 -0.8542
   63MOL   H14626310   0.713   1.781   6.955  1.1389 -0.2225 -0.1644
   63MOL   H14726311   0.742   1.859   6.305 -1.5058 -0.7190  0.0084
   63MOL   H14826312   0.831   1.716   6.287  0.5653  1.5315  0.2294
   63MOL   C14926313   0.620   1.676   6.350 -0.0732 -0.1073 -0.2920
   63MOL   O15026314   0.526   1.734   6.445  0.0190 -0.5974  0.1284
   63MOL   C15126315   0.422   1.650   6.489  0.6277 -0.8328  0.5176
   63MOL   O15226316   0.326   1.642   6.390  0.5018  0.3120  0.1184
   63MOL   C15326317   0.230   1.741   6.385 -0.2068  0.1110  0.0935
   63MOL   C15426318   0.094   1.705   6.373 -0.1491  0.0262  0.1631
   63MOL   C15526319   7.971   1.804   6.370 -0.1573  0.1372  0.0214
   63MOL   C15626320   0.027   1.940   6.378 -0.0154 -0.4157 -0.5272
   63MOL   C15726321   0.162   1.978   6.401  0.5285 -0.0110 -0.1204
   63MOL   C15826322   0.261   1.880   6.415  0.0727 -0.2257  0.3227
   63MOL   C15926323   0.561   1.674   6.201  0.9531  0.6460  0.5140
   63MOL   H16026324   0.652   1.581   6.393  2.2492  1.3137  1.2559
   63MOL   H16126325   0.454   1.547   6.505  0.9130 -0.5836  1.6268
   63MOL   H16226326   0.376   1.685   6.581 -1.6809  0.6761 -1.1661
   63MOL   H16326327   0.074   1.600   6.357 -0.6440  0.1047  0.2732
   63MOL   H16426328   7.869   1.769   6.359 -0.0677  0.1994 -1.0506
   63MOL   H16526329   7.921   2.011   6.372  0.7102  0.6807  1.7712
   63MOL   H16626330   0.180   2.083   6.419 -0.5325  0.3063 -0.8314
   63MOL   H16726331   0.361   1.914   6.434  0.3259 -0.0034 -1.3592
   63MOL   H16826332   0.640   1.709   6.134 -0.1245 -0.7598 -1.5505
   63MOL   H16926333   0.478   1.744   6.197  0.3141 -0.1298 -0.1355
   63MOL   C17026334   0.518   1.535   6.147 -0.2719 -0.2062  0.2973
   63MOL   O17126335   0.466   1.549   6.011  0.3034 -0.8172  0.8991
   63MOL   C17226336   0.327   1.595   6.011 -0.3897  0.1401 -0.2539
   63MOL   O17326337   0.247   1.492   6.057 -0.0718  0.8359  0.4174
   63MOL   C17426338   0.111   1.523   6.081 -0.1701 -0.0497  0.6938
   63MOL   C17526339   0.034   1.434   6.153 -0.3654  0.0995 -0.0969
   63MOL   C17626340   7.877   1.465   6.186 -0.1257 -0.1713 -0.4530
   63MOL   C17726341   7.816   1.573   6.117 -0.0826  0.0372 -0.4042
   63MOL   C17826342   7.889   1.659   6.043 -0.2418 -0.2494 -0.9053
   63MOL   C17926343   0.049   1.643   6.028 -0.5324  0.6628  0.0098
   63MOL   C18026344   0.633   1.424   6.148  0.6977 -0.2906 -0.2518
   63MOL   H18126345   0.440   1.499   6.213 -0.1091 -0.2516  0.4657
   63MOL   H18226346   0.300   1.630   5.912 -0.3133  0.2319 -0.2418
   63MOL   H18326347   0.312   1.686   6.068 -1.6149 -0.1081 -0.1738
   63MOL   H18426348   0.085   1.348   6.194 -0.3967  0.0744 -0.1105
   63MOL   H18526349   7.828   1.406   6.262  1.0878 -1.9000 -0.9944
   63MOL   H18626350   7.709   1.587   6.124 -0.3165 -1.2701 -1.1835
   63MOL   H18726351   7.840   1.745   6.001  1.6099  1.6820  0.7211
   63MOL   H18826352   0.102   1.709   5.962  0.6148 -1.7375 -1.5392
   63MOL   H18926353   0.724   1.477   6.118  2.3095 -2.4663  0.6541
   63MOL   H19026354   0.653   1.396   6.252  0.0001  0.8270  0.1899
   63MOL   C19126355   0.620   1.286   6.078  0.6454 -0.3275 -0.8510
   63MOL   O19226356   0.738   1.213   6.109 -0.6071  0.1898 -0.0689
   63MOL   C19326357   0.747   1.133   6.222 -0.0306  0.6240  0.1132
   63MOL   O19426358   0.751   1.200   6.348  0.0492 -0.5036  0.1866
   63MOL   C19526359   0.778   1.128   6.460 -0.4030  0.7129  0.3250
   63MOL   C19626360   0.789   0.985   6.466  0.7244 -0.1876 -0.7380
   63MOL   C19726361   0.810   0.922   6.594 -0.9307 -0.2803  0.7247
   63MOL   C19826362   0.832   1.001   6.702  0.3503 -0.3533  0.5176
   63MOL   C19926363   0.823   1.144   6.697  0.1620  0.1153 -0.1418
   63MOL   C20026364   0.793   1.206   6.575  0.0351 -0.6565 -0.2016
   63MOL   C20126365   0.617   1.295   5.928  0.5794  0.2142  0.5886
   63MOL   H20226366   0.529   1.243   6.119  0.9955 -1.3776 -1.1704
   63MOL   H20326367   0.850   1.097   6.215  0.2413  1.1639  1.2785
   63MOL   H20426368   0.669   1.058   6.232 -0.6742  1.3857  0.8546
   63MOL   H20526369   0.779   0.918   6.382 -0.8179 -0.2553 -0.5061
   63MOL   H20626370   0.804   0.814   6.597  0.3857 -0.3746  0.2633
   63MOL   H20726371   0.846   0.957   6.799 -0.0323 -0.8958  0.3322
   63MOL   H20826372   0.831   1.204   6.787 -1.0365  1.8338 -1.1525
   63MOL   H20926373   0.789   1.314   6.581 -4.6862 -0.7114 -0.6572
   63MOL   H21026374   0.515   1.326   5.903  0.3037 -0.4113  0.9330
   63MOL   H21126375   0.682   1.371   5.884 -0.4082  0.6832 -0.0662
   63MOL   C21226376   0.633   1.156   5.859 -0.3538  0.1349 -0.7309
   63MOL   O21326377   0.505   1.088   5.873  0.2653 -0.2938  0.3224
   63MOL   C21426378   0.501   0.951   5.839 -0.5969  0.4375  0.5102
   63MOL   O21526379   0.584   0.874   5.913 -1.0722 -0.6391  0.0975
   63MOL   C21626380   0.550   0.861   6.049 -0.2439  0.1290 -0.2312
   63MOL   C21726381   0.609   0.758   6.124  0.0375  0.2667  1.1336
   63MOL   C21826382   0.599   0.734   6.259 -0.2786 -0.0728 -0.1668
   63MOL   C21926383   0.487   0.795   6.326 -0.7015  0.4086 -0.5533
   63MOL   C22026384   0.410   0.886   6.249  0.7270  0.9749 -0.4050
   63MOL   C22126385   0.440   0.920   6.116 -0.0777 -0.5819  0.5464
   63MOL   C22226386   0.684   1.160   5.716  0.3703  0.3330  0.0751
   63MOL   H22326387   0.705   1.093   5.911  0.1384  1.0752 -0.2535
   63MOL   H22426388   0.510   0.938   5.731  1.6575 -0.4849  0.7867
   63MOL   H22526389   0.400   0.913   5.857  0.0770 -1.8050 -0.2150
   63MOL   H22626390   0.688   0.702   6.076 -1.6977  0.3706 -1.9596
   63MOL   H22726391   0.652   0.658   6.315  2.3401 -0.0889 -2.5985
   63MOL   H22826392   0.464   0.767   6.428  0.7926 -2.7073 -0.9911
   63MOL   H22926393   0.323   0.931   6.293  0.9476  2.0750 -1.0611
   63MOL   H23026394   0.380   0.990   6.059  0.4057  0.6586  1.5257
   63MOL   H23126395   0.688   1.060   5.673 -0.0289  0.2576  0.2129
   63MOL   H23226396   0.617   1.206   5.644  0.2194  0.5595  0.3559
   63MOL   C23326397   0.829   1.207   5.712 -0.4267  0.4308 -0.2172
   63MOL   O23426398   0.911   1.096   5.749 -0.1450 -0.0020 -0.4320
   63MOL   C23526399   0.999   1.138   5.855  0.3788  0.3981  0.0317
   63MOL   O23626400   1.085   1.240   5.802 -0.2425  0.2592  0.2875
   63MOL   C23726401   1.109   1.355   5.878 -0.1911 -0.1251 -0.3182
   63MOL   C23826402   1.022   1.407   5.974  0.2469  0.4591 -0.5093
   63MOL   C23926403   1.063   1.514   6.055 -0.4658  0.1199  0.0156
   63MOL   C24026404   1.181   1.585   6.037 -0.1768 -0.3883  0.6217
   63MOL   C24126405   1.260   1.549   5.927  0.1394  0.0717 -0.0825
   63MOL   C24226406   1.224   1.430   5.850  0.0100  0.2463 -0.5489
   63MOL   C24326407   0.870   1.237   5.568  0.1125  0.4823  0.2486
   63MOL   H24426408   0.844   1.296   5.773 -0.0693  1.0127 -1.1464
   63MOL   H24526409   1.055   1.046   5.870 -0.9514 -0.4312 -0.0402
   63MOL   H24626410   0.955   1.166   5.950  2.2128  2.6807  0.2496
   63MOL   H24726411   0.921   1.370   5.983 -0.4041  1.9671 -1.3998
   63MOL   H24826412   0.992   1.553   6.126  0.2522 -0.1457  0.8885
   63MOL   H24926413   1.207   1.662   6.108 -0.3942 -0.3508  0.6619
   63MOL   H25026414   1.350   1.601   5.898  2.1055 -2.7217  0.7776
   63MOL   H25126415   1.296   1.400   5.776 -0.2889 -3.3346  0.5253
   63MOL   H25226416   0.977   1.223   5.552 -0.7121 -3.8418 -2.1411
   63MOL   H25326417   0.825   1.171   5.495  0.6192 -1.4644  1.6557
   63MOL   C25426418   0.834   1.379   5.527 -0.4751  0.3979  0.4754
   63MOL   O25526419   0.874   1.474   5.631  0.3872  0.2324 -0.4990
   63MOL   C25626420   0.773   1.565   5.686 -0.2223  0.1829  0.2461
   63MOL   O25726421   0.761   1.673   5.600 -0.0670 -0.3782 -0.6996
   63MOL   C25826422   0.869   1.761   5.590 -0.5429  0.1210  0.2611
   63MOL   C25926423   1.000   1.744   5.644  0.4389  0.3026 -0.1256
   63MOL   C26026424   1.109   1.838   5.635  0.0738 -0.1435 -0.4305
   63MOL   C26126425   1.089   1.947   5.548  0.6737 -0.0720  0.0297
   63MOL   C26226426   0.958   1.973   5.496 -0.0636  0.1363 -0.2023
   63MOL   C26326427   0.850   1.883   5.518 -0.1175 -0.3143 -0.4037
   63MOL   C26426428   0.904   1.406   5.396  0.2647  0.0630 -0.5248
   63MOL   H26526429   0.727   1.382   5.505 -0.9513  1.5222  2.7509
   63MOL   H26626430   0.811   1.590   5.786 -1.5467 -0.2619  0.8791
   63MOL   H26726431   0.679   1.511   5.689  0.2090 -0.4972  2.7200
   63MOL   H26826432   1.030   1.656   5.699 -0.6846  1.2610  2.0977
   63MOL   H26926433   1.202   1.801   5.675 -0.6811 -3.0485 -1.2656
   63MOL   H27026434   1.163   2.019   5.517 -1.6481  1.1370 -3.0054
   63MOL   H27126435   0.945   2.048   5.420  1.5018 -1.0390 -1.6725
   63MOL   H27226436   0.750   1.903   5.481 -0.1317 -1.1123 -0.8070
   63MOL   H27326437   1.007   1.439   5.408 -0.8059  2.5779  2.2914
   63MOL   H27426438   0.905   1.313   5.338 -0.7922 -0.3806  0.1514
   63MOL   C27526439   0.831   1.507   5.301  0.0175 -0.2053 -0.5611
   63MOL   O27626440   0.925   1.561   5.210 -0.2731 -0.0261 -0.0586
   63MOL   C27726441   0.988   1.683   5.243 -0.3315 -0.3052  0.0673
   63MOL   O27826442   0.920   1.788   5.199  0.4686 -0.2897  0.2761
   63MOL   C27926443   0.939   1.824   5.067 -0.2201  0.1585  0.6354
   63MOL   C28026444   0.966   1.735   4.960  0.6375  0.5059  0.1776
   63MOL   C28126445   0.985   1.790   4.826 -0.3303 -0.3025  0.0823
   63MOL   C28226446   0.969   1.927   4.804  0.2396 -0.0667  0.6504
   63MOL   C28326447   0.941   2.011   4.912  0.5666 -0.2464 -0.3433
   63MOL   C28426448   0.915   1.962   5.042 -0.3740 -0.4947  0.1921
   63MOL   C28526449   0.723   1.437   5.219 -0.1155  0.2381 -0.4120
   63MOL   H28626450   0.791   1.589   5.359 -1.7558 -1.1763 -0.3817
   63MOL   H28726451   1.081   1.688   5.186  0.1821  0.2712  0.9447
   63MOL   H28826452   1.016   1.703   5.346  0.4665  0.2676 -0.2469
   63MOL   H28926453   0.992   1.631   4.974 -0.3492  0.3538  0.9384
   63MOL   H29026454   1.015   1.731   4.741 -2.2940 -2.2285  0.6627
   63MOL   H29126455   0.988   1.969   4.707  0.0782 -0.3637  0.4903
   63MOL   H29226456   0.930   2.118   4.903  1.3142 -0.1998 -0.6929
   63MOL   H29326457   0.887   2.028   5.123 -0.8358  0.4316 -0.7207
   63MOL   H29426458   0.673   1.359   5.276  2.0918 -2.3300 -1.8515
   63MOL   H29526459   0.777   1.384   5.141 -2.0631 -2.1076 -0.2189
   63MOL   C29626460   0.619   1.537   5.157 -0.1794  0.2466 -0.2362
   63MOL   O29726461   0.555   1.461   5.051  0.1860 -0.1996 -0.5460
   63MOL   C29826462   0.616   1.483   4.927 -0.4548  0.7793  0.3866
   63MOL   O29926463   0.574   1.593   4.860 -0.1459  0.1252  0.4389
   63MOL   C30026464   0.635   1.617   4.740 -0.1276 -1.0766  0.9023
   63MOL   C30126465   0.607   1.743   4.676  0.1432 -0.5020 -0.3307
   63MOL   C30226466   0.652   1.769   4.545  0.3978 -0.5223 -0.0088
   63MOL   C30326467   0.710   1.670   4.467 -0.8423 -0.1222 -0.1313
   63MOL   C30426468   0.748   1.550   4.527 -0.0889 -0.3079  0.0590
   63MOL   C30526469   0.710   1.519   4.656 -0.8530 -0.4969 -1.3822
   63MOL   C30626470   0.507   1.563   5.263 -0.5354  0.8490  0.5414
   63MOL   H30726471   0.668   1.624   5.114  1.0624  0.2162  1.0931
   63MOL   H30826472   0.581   1.398   4.869 -0.2851  1.6258 -0.9938
   63MOL   H30926473   0.724   1.466   4.933 -0.6292 -0.6297 -0.3059
   63MOL   H31026474   0.547   1.814   4.731  0.9763  0.8707 -1.1815
   63MOL   H31126475   0.621   1.865   4.506 -0.4392 -0.9057 -0.2992
   63MOL   H31226476   0.754   1.700   4.373  0.3285 -2.0223 -0.2218
   63MOL   H31326477   0.801   1.473   4.474 -0.9013 -0.5384 -0.4293
   63MOL   H31426478   0.737   1.421   4.692 -1.5259 -0.6314 -1.2383
   63MOL   H31526479   0.545   1.558   5.365  0.0084  1.0846  0.3514
   63MOL   H31626480   0.449   1.471   5.258  2.3094 -1.1176  2.4334
   63MOL   C31726481   0.428   1.698   5.249  0.3772  0.0429 -0.1551
   63MOL   O31826482   0.334   1.697   5.359  0.9556 -0.4884  0.0060
   63MOL   C31926483   0.364   1.736   5.487 -0.1153  0.1157  0.8171
   63MOL   O32026484   0.425   1.629   5.557  0.1592 -0.4433  0.6069
   63MOL   C32126485   0.341   1.520   5.581 -0.2326  0.2535 -0.6498
   63MOL   C32226486   0.387   1.428   5.680 -0.2926  0.2246 -0.6965
   63MOL   C32326487   0.307   1.311   5.714 -0.1328 -0.1175 -0.2333
   63MOL   C32426488   0.187   1.289   5.651 -0.0737  0.3465  0.0758
   63MOL   C32526489   0.143   1.375   5.547  1.1232 -0.4044  0.0412
   63MOL   C32626490   0.216   1.495   5.514 -0.4588 -0.0306  0.6711
   63MOL   C32726491   0.357   1.697   5.109 -0.6755  0.1233  0.3681
   63MOL   H32826492   0.494   1.784   5.259 -0.0872  0.1901  1.8445
   63MOL   H32926493   0.271   1.768   5.534 -1.6847 -2.8275 -0.1961
   63MOL   H33026494   0.432   1.821   5.483 -0.1313  0.0538 -1.3588
   63MOL   H33126495   0.481   1.433   5.732 -1.6280  2.2080  1.6582
   63MOL   H33226496   0.335   1.243   5.794  0.3254  1.9874  1.4633
   63MOL   H33326497   0.122   1.211   5.687 -0.9468  0.8988 -0.2772
   63MOL   H33426498   0.046   1.369   5.502  1.6114  1.3698 -1.2917
   63MOL   H33526499   0.179   1.570   5.446 -2.0585 -1.2000  0.2374
   63MOL   H33626500   0.437   1.707   5.036  0.4997 -0.1238  1.5922
   63MOL   H33726501   0.309   1.599   5.108 -0.0736 -0.2798  3.7694
   63MOL   C33826502   0.258   1.815   5.088  0.4448  0.4893 -0.4067
   63MOL   O33926503   0.337   1.929   5.053  0.1881 -0.0998 -0.3421
   63MOL   C34026504   0.320   2.034   5.137  0.6853 -0.6002  0.6351
   63MOL   O34126505   0.365   2.009   5.266  0.1285  0.4904 -0.3559
   63MOL   C34226506   0.463   2.080   5.318  0.4025  0.4815  0.6751
   63MOL   C34326507   0.587   2.097   5.251  0.3293 -0.1726 -0.3285
   63MOL   C34426508   0.682   2.192   5.288 -0.2799 -0.4508 -0.8824
   63MOL   C34526509   0.656   2.271   5.402  0.1874 -0.2209  0.2024
   63MOL   C34626510   0.537   2.250   5.484 -0.5776 -0.1342 -0.1853
   63MOL   C34726511   0.442   2.153   5.437 -0.0709 -0.0688 -0.1452
   63MOL   C34826512   0.166   1.785   4.960 -0.3737 -0.0264  0.1534
   63MOL   H34926513   0.201   1.811   5.182  2.0211 -1.3576  0.5055
   63MOL   H35026514   0.217   2.069   5.130  1.0500  0.5037  0.6779
   63MOL   H35126515   0.370   2.124   5.102  0.0363 -0.3813  0.2497
   63MOL   H35226516   0.609   2.046   5.158  1.2641 -0.4368  0.0318
   63MOL   H35326517   0.779   2.197   5.240  0.8481  0.9156  1.4396
   63MOL   H35426518   0.721   2.350   5.437 -1.0142  1.6634 -1.7160
   63MOL   H35526519   0.514   2.312   5.570 -1.6074  0.0673 -0.5987
   63MOL   H35626520   0.342   2.148   5.478 -0.2537  1.2834 -0.3912
   63MOL   H35726521   0.154   1.677   4.953  0.6277 -0.0894 -0.7559
   63MOL   H35826522   0.216   1.821   4.870  0.3343 -0.6048  0.3112
   63MOL   C35926523   0.025   1.841   4.958  0.6638  0.0647  0.3105
   63MOL   O36026524   7.936   1.786   5.070 -0.4417  0.7449 -0.6221
   63MOL   C36126525   7.877   1.871   5.165  0.0019 -0.1101  0.5637
   63MOL   O36226526   7.975   1.959   5.218  0.5520  0.6021 -0.1544
   63MOL   C36326527   7.933   2.019   5.334 -0.3809 -0.4194 -0.1943
   63MOL   C36426528   0.057   2.067   5.419 -0.4240  0.4157  0.2220
   63MOL   C36526529   0.029   2.139   5.535 -0.2724 -0.1809  0.2583
   63MOL   C36626530   7.874   2.155   5.579 -0.0024  0.3314  0.6565
   63MOL   C36726531   7.774   2.093   5.509 -0.2551  0.0238 -0.0379
   63MOL   C36826532   7.801   2.032   5.379 -0.2480 -0.4734 -0.4840
   63MOL   C36926533   7.931   1.808   4.820 -0.2009  0.1216 -0.5948
   63MOL   H37026534   0.030   1.950   4.963 -1.8056  0.3845 -2.4644
   63MOL   H37126535   7.842   1.811   5.248 -0.0907  1.0252  1.3626
   63MOL   H37226536   7.786   1.916   5.124  0.6502 -1.4438 -2.5275
   63MOL   H37326537   0.161   2.047   5.395 -0.4786  0.3295  0.0590
   63MOL   H37426538   0.111   2.185   5.587 -1.3986  2.6659 -0.3624
   63MOL   H37526539   7.854   2.208   5.671 -3.3615 -1.1397  0.8601
   63MOL   H37626540   7.672   2.099   5.542 -1.0590 -3.3137 -1.7246
   63MOL   H37726541   7.717   1.993   5.324 -0.8628 -0.7377  0.6246
   63MOL   H37826542   7.912   1.701   4.827  0.2492  0.0702 -0.0927
   63MOL   H37926543   0.017   1.824   4.731 -0.3103 -0.4664 -0.7800
   63MOL   C38026544   7.801   1.886   4.808 -0.4825  0.2316 -0.0014
   63MOL   O38126545   7.713   1.829   4.708  0.4267 -0.0338  0.8208
   63MOL   C38226546   7.631   1.730   4.769  0.2591 -0.1201 -0.0091
   63MOL   O38326547   7.518   1.796   4.828  0.0677 -0.0705 -0.0483
   63MOL   C38426548   7.407   1.826   4.752  0.3907  0.2918 -0.5584
   63MOL   C38526549   7.290   1.862   4.820 -0.5568 -0.0545 -0.4014
   63MOL   C38626550   7.169   1.893   4.757  0.1809  0.3862 -0.4232
   63MOL   C38726551   7.161   1.878   4.617 -0.8953  1.4952  0.5210
   63MOL   C38826552   7.277   1.845   4.545 -0.6822 -0.1908 -0.3051
   63MOL   C38926553   7.401   1.821   4.608  0.2890 -0.0366 -0.6042
   63MOL   C39026554   7.819   2.033   4.769  0.0702  0.5153 -0.0198
   63MOL   H39126555   7.761   1.884   4.910  0.2118 -0.3739  0.2655
   63MOL   H39226556   7.584   1.659   4.701 -3.0289  0.3950  1.6290
   63MOL   H39326557   7.674   1.667   4.846  1.0451 -2.0360 -1.9682
   63MOL   H39426558   7.292   1.842   4.926  2.3370 -0.3608 -0.4800
   63MOL   H39526559   7.083   1.916   4.819  1.2737 -0.8735  1.6433
   63MOL   H39626560   7.069   1.899   4.565  0.2875  0.0899 -2.2940
   63MOL   H39726561   7.272   1.850   4.437 -2.6153  1.9587 -0.1538
   63MOL   H39826562   7.489   1.800   4.548 -0.0626 -0.4660 -0.9689
   63MOL   H39926563   7.839   2.042   4.662  2.6099  1.1909  0.4827
   63MOL   H40026564   7.914   2.068   4.809 -0.2343 -0.0286  1.1971
   63MOL   C40126565   7.719   2.133   4.828  0.3017  0.7314  0.6623
   63MOL   O40226566   7.692   2.125   4.962  0.3581 -0.2443  0.0359
   63MOL   C40326567   7.566   2.094   5.004  0.3057 -0.0351 -0.0912
   63MOL   O40426568   7.549   2.095   5.146 -0.5675  0.3954 -0.0054
   63MOL   C40526569   7.543   2.220   5.211  0.3893  0.2258 -0.4358
   63MOL   C40626570   7.504   2.218   5.345 -0.1339 -0.7223  0.1550
   63MOL   C40726571   7.494   2.341   5.424  0.5535 -0.1294  0.5206
   63MOL   C40826572   7.536   2.460   5.363 -0.1612  0.9437  0.2151
   63MOL   C40926573   7.579   2.459   5.229  0.4066  0.1570 -0.7085
   63MOL   C41026574   7.571   2.342   5.155 -0.0856 -0.6455 -0.3289
   63MOL   C41126575   7.750   2.280   4.787 -0.7101  0.2399  0.9957
   63MOL   H41226576   7.633   2.103   4.768  1.4103  0.4268 -0.7857
   63MOL   H41326577   7.538   1.995   4.969 -0.4636  0.6526 -1.4631
   63MOL   H41426578   7.502   2.167   4.953  0.7553  0.5465  0.1666
   63MOL   H41526579   7.471   2.126   5.391  0.4371 -0.9464  0.1135
   63MOL   H41626580   7.466   2.344   5.528 -0.0756  0.8211  0.3292
   63MOL   H41726581   7.530   2.557   5.410  0.1989  0.0764  2.0777
   63MOL   H41826582   7.603   2.544   5.167 -0.1211 -0.9078 -2.4328
   63MOL   H41926583   7.605   2.356   5.054 -2.4520 -0.4234 -1.1395
   63MOL   H42026584   7.769   2.284   4.679 -0.8100  0.2649  0.9792
   63MOL   H42126585   7.849   2.308   4.822 -0.0254 -2.2279  1.1299
   63MOL   H42226586   7.685   2.357   4.827 -0.6858  0.3153  0.8945
   64MOL     C126587   2.980   1.929   1.198 -0.2796 -0.5491  0.5126
   64MOL     O226588   2.927   1.836   1.108  0.2430 -0.1552 -0.6338
   64MOL     C326589   2.922   1.703   1.154  0.0675 -0.0674 -0.0109
   64MOL     O426590   3.045   1.648   1.178 -0.0017  0.1651 -0.3643
   64MOL     C526591   3.123   1.627   1.067 -0.2100 -0.5036  0.0217
   64MOL     C626592   3.081   1.633   0.931 -0.4843 -0.0681 -0.3876
   64MOL     C726593   3.179   1.626   0.827  0.0544 -0.4390 -0.0616
   64MOL     C826594   3.310   1.596   0.863  0.2341  0.1397 -0.2098
   64MOL     C926595   3.350   1.584   0.996  0.3439  0.4465 -0.2752
   64MOL    C1026596   3.257   1.605   1.102 -0.0233  0.7572  0.1460
   64MOL    C1126597   2.975   2.060   1.132  0.0057 -0.0947  0.6822
   64MOL    H1226598   2.908   1.931   1.280 -0.9407  1.1856 -0.0891
   64MOL    H1326599   2.885   1.716   1.256  0.4276  3.0053 -0.2354
   64MOL    H1426600   2.856   1.635   1.101  0.6221  1.1608 -2.3344
   64MOL    H1526601   2.979   1.656   0.904  0.7954  2.1059 -3.6270
   64MOL    H1626602   3.156   1.642   0.723  1.9227  0.0498 -0.4124
   64MOL    H1726603   3.381   1.573   0.785 -2.0765 -1.7707 -1.8315
   64MOL    H1826604   3.452   1.557   1.019  0.4296  2.2380  1.5110
   64MOL    H1926605   3.280   1.592   1.207  0.2270 -0.1820 -0.0236
   64MOL    H2026606   3.005   2.142   1.197 -1.2642 -0.1072  1.3113
   64MOL    H2126607   2.874   2.081   1.095  0.2741 -0.4193 -0.2598
   64MOL    H2226608   3.077   1.912   1.245 -0.2045 -4.8530 -0.9627
   64MOL    C2326609   3.089   2.062   1.029 -0.3938  0.0036 -0.0650
   64MOL    O2426610   3.219   2.070   1.095  0.5193  0.1929  0.4059
   64MOL    C2526611   3.318   1.994   1.045  0.7197  0.3889 -0.7069
   64MOL    O2626612   3.386   2.053   0.937 -0.1206 -0.6325 -0.0696
   64MOL    C2726613   3.476   1.977   0.865 -0.4741  0.1568 -0.1378
   64MOL    C2826614   3.524   2.036   0.744 -0.4738  0.1038  0.3618
   64MOL    C2926615   3.620   1.973   0.667 -0.4332 -0.4310  0.2807
   64MOL    C3026616   3.667   1.840   0.703  0.7712 -0.1748  0.2759
   64MOL    C3126617   3.611   1.781   0.820  0.1469 -0.0110  0.4967
   64MOL    C3226618   3.528   1.855   0.906  0.2083 -1.2586 -0.1529
   64MOL    C3326619   3.070   2.180   0.925 -0.1786 -0.6228  0.0994
   64MOL    H3426620   3.089   1.966   0.977  0.2360  0.0394 -0.1355
   64MOL    H3526621   3.286   1.890   1.033 -0.6971  0.5403  1.4629
   64MOL    H3626622   3.393   1.991   1.125 -1.2108 -1.8164  1.0965
   64MOL    H3726623   3.486   2.131   0.707 -1.8500 -0.5721  0.0189
   64MOL    H3826624   3.660   2.019   0.578  0.0908 -0.7605  0.3409
   64MOL    H3926625   3.747   1.790   0.651 -1.6741 -1.6806 -2.1512
   64MOL    H4026626   3.639   1.683   0.856 -0.2436 -0.4021 -0.2589
   64MOL    H4126627   3.490   1.806   0.994  1.1191 -0.4714  0.6858
   64MOL    H4226628   3.130   2.270   0.942 -2.6326  0.5725  2.7693
   64MOL    H4326629   2.965   2.210   0.926 -1.0395 -3.4575 -1.1463
   64MOL    C4426630   3.103   2.140   0.782 -0.2540 -0.2791  0.0295
   64MOL    O4526631   3.093   2.265   0.717  0.4744 -0.3671  0.1043
   64MOL    C4626632   3.215   2.316   0.673 -0.2324  0.2693 -0.0616
   64MOL    O4726633   3.269   2.241   0.566 -0.3879 -0.5497  0.0979
   64MOL    C4826634   3.319   2.308   0.454  0.0720  0.2330  0.0299
   64MOL    C4926635   3.336   2.229   0.335 -0.8331 -0.0601  0.1267
   64MOL    C5026636   3.382   2.290   0.217  1.1065 -0.2410  0.1254
   64MOL    C5126637   3.412   2.425   0.207 -0.2620 -0.3921 -0.4152
   64MOL    C5226638   3.397   2.505   0.325  0.1433  0.0001 -0.2366
   64MOL    C5326639   3.359   2.443   0.450  0.3672 -0.5136  1.0720
   64MOL    C5426640   2.995   2.042   0.720 -0.2837 -0.1844  0.1615
   64MOL    H5526641   3.205   2.103   0.774  0.1643  1.2008 -1.7398
   64MOL    H5626642   3.294   2.326   0.747 -0.6354  2.1448  0.1541
   64MOL    H5726643   3.189   2.420   0.652  1.7008  0.5015 -1.4151
   64MOL    H5826644   3.305   2.128   0.357 -0.4904 -0.5286 -1.4918
   64MOL    H5926645   3.396   2.225   0.132  1.2854 -1.0914  0.7896
   64MOL    H6026646   3.446   2.477   0.119  1.2703 -0.0470  0.3545
   64MOL    H6126647   3.421   2.610   0.316  0.7893 -0.0400  0.8814
   64MOL    H6226648   3.364   2.506   0.537  1.7186  0.2540  0.4688
   64MOL    H6326649   2.961   1.964   0.788  1.4224 -1.9092 -0.8845
   64MOL    H6426650   2.907   2.097   0.688 -0.1748 -0.0485  0.0913
   64MOL    C6526651   3.056   1.974   0.592 -0.0182 -0.4836 -0.0572
   64MOL    O6626652   3.138   1.860   0.619  0.2543 -0.3401  0.3109
   64MOL    C6726653   3.278   1.871   0.590 -0.8315 -0.0194 -0.3868
   64MOL    O6826654   3.318   1.897   0.462  1.0632  0.1132 -0.7282
   64MOL    C6926655   3.264   1.820   0.360 -0.4168  0.4080  0.2419
   64MOL    C7026656   3.273   1.860   0.223  0.7104  0.4906  0.1128
   64MOL    C7126657   3.214   1.792   0.113 -0.4963  0.5456 -0.0636
   64MOL    C7226658   3.153   1.671   0.141 -0.6894 -0.0171 -0.1065
   64MOL    C7326659   3.143   1.619   0.274  0.3992  0.0246  0.3832
   64MOL    C7426660   3.205   1.695   0.379 -0.4856  0.1486 -0.0895
   64MOL    C7526661   2.945   1.928   0.494  0.1206  0.0319 -0.0062
   64MOL    H7626662   3.119   2.047   0.542 -0.3642 -0.0715  0.0995
   64MOL    H7726663   3.327   1.780   0.623 -2.2575 -0.9562 -0.7804
   64MOL    H7826664   3.323   1.954   0.643 -1.0366  0.6127 -1.1813
   64MOL    H7926665   3.327   1.948   0.192  1.6561 -0.2246 -0.2749
   64MOL    H8026666   3.219   1.837   0.015  0.6983  0.1491 -0.1941
   64MOL    H8126667   3.100   1.616   0.064 -0.8570 -0.8674  0.6046
   64MOL    H8226668   3.083   1.531   0.295 -1.1409  0.5151 -1.8072
   64MOL    H8326669   3.199   1.647   0.476  1.0759  4.2973  2.2098
   64MOL    H8426670   2.985   1.837   0.449 -0.2970  1.2224 -2.8934
   64MOL    H8526671   2.852   1.905   0.547 -0.0879  0.2158 -0.2892
   64MOL    C8626672   2.913   2.033   0.380 -0.4409 -0.0175 -0.3204
   64MOL    O8726673   2.814   1.978   0.298 -0.4481  0.4202 -0.3941
   64MOL    C8826674   2.859   1.896   0.191  0.5708 -0.2712 -0.4037
   64MOL    O8926675   2.744   1.859   0.120  0.0979  0.1672 -0.4658
   64MOL    C9026676   2.746   1.739   0.057  0.0998  0.2041 -0.6103
   64MOL    C9126677   2.831   1.707   7.926 -0.2680  0.6537 -0.3865
   64MOL    C9226678   2.815   1.583   7.867  0.1151 -0.3826 -0.0577
   64MOL    C9326679   2.726   1.481   7.903 -0.3850 -0.6473 -0.1650
   64MOL    C9426680   2.646   1.510   0.040 -0.3464 -0.0038  0.6601
   64MOL    C9526681   2.665   1.633   0.108 -0.2763 -0.2665 -0.7415
   64MOL    C9626682   2.869   2.172   0.440  0.4284  0.2810 -0.1125
   64MOL    H9726683   3.001   2.062   0.323 -0.2314 -1.4441 -0.7302
   64MOL    H9826684   2.906   1.801   0.219  0.1562 -0.4895 -0.4439
   64MOL    H9926685   2.927   1.949   0.124  4.2172 -2.0015  1.7110
   64MOL   H10026686   2.914   1.768   7.895  0.1165  0.2228 -0.2119
   64MOL   H10126687   2.878   1.556   7.784 -0.2228  2.2277 -1.1912
   64MOL   H10226688   2.733   1.385   7.854  0.6125 -0.9301  0.5194
   64MOL   H10326689   2.575   1.437   0.076 -0.9645 -0.1259 -0.7870
   64MOL   H10426690   2.602   1.656   0.193 -0.9276  2.6008 -1.9379
   64MOL   H10526691   2.796   2.171   0.521 -0.9323 -1.8508 -1.3268
   64MOL   H10626692   2.957   2.212   0.491  0.1633  0.3402  0.3000
   64MOL   C10726693   2.823   2.292   0.346 -0.3357  0.0476  0.0482
   64MOL   O10826694   2.916   2.334   0.242 -0.9257  0.5601  0.1351
   64MOL   C10926695   3.012   2.416   0.270 -0.2894  0.0600  0.4769
   64MOL   O11026696   2.961   2.536   0.314 -0.6339  0.4320 -0.1939
   64MOL   C11126697   3.054   2.620   0.370 -0.1719  0.4693 -0.5416
   64MOL   C11226698   3.074   2.609   0.506  0.9597  0.5806 -1.2662
   64MOL   C11326699   3.133   2.708   0.585  0.5977  0.2546  0.6085
   64MOL   C11426700   3.179   2.823   0.524  0.2930  0.1662 -0.1757
   64MOL   C11526701   3.159   2.837   0.386 -0.0122  0.0264  0.7608
   64MOL   C11626702   3.100   2.734   0.312 -1.2530  0.1965  0.2589
   64MOL   C11726703   2.696   2.258   0.268 -0.1999 -0.2139 -0.7075
   64MOL   H11826704   2.803   2.375   0.414  0.2968  0.6842 -0.5345
   64MOL   H11926705   3.072   2.430   0.180  0.3985 -0.8864  0.7803
   64MOL   H12026706   3.084   2.369   0.338 -0.8984 -2.7787 -0.7561
   64MOL   H12126707   3.019   2.532   0.558  2.1950  0.4100 -0.1780
   64MOL   H12226708   3.140   2.692   0.691 -1.9170 -1.4390  0.5612
   64MOL   H12326709   3.221   2.904   0.583  1.1694 -0.0290 -0.5264
   64MOL   H12426710   3.195   2.922   0.331  0.5848  0.3541  1.6484
   64MOL   H12526711   3.083   2.747   0.206 -3.2213 -1.6521  0.3275
   64MOL   H12626712   2.706   2.176   0.197 -0.2785 -0.2463 -0.6811
   64MOL   H12726713   2.683   2.342   0.201  1.6911  3.7567  3.6628
   64MOL   C12826714   2.566   2.235   0.354 -0.0434 -0.1470 -0.2685
   64MOL   O12926715   2.473   2.166   0.268  0.4457  0.2495 -0.1966
   64MOL   C13026716   2.464   2.024   0.281 -0.4268 -0.2594 -0.2169
   64MOL   O13126717   2.365   1.965   0.204  0.0048 -0.5436  0.2876
   64MOL   C13226718   2.232   1.988   0.231 -0.3857 -0.7786  0.1028
   64MOL   C13326719   2.184   2.050   0.348  0.7779  0.2935 -0.5976
   64MOL   C13426720   2.045   2.061   0.380  0.3344  0.2840  0.2435
   64MOL   C13526721   1.952   2.028   0.280 -0.5297 -0.8143 -0.3917
   64MOL   C13626722   2.000   1.979   0.158  0.1582 -1.0387 -0.2187
   64MOL   C13726723   2.136   1.951   0.136  0.7675 -0.6160 -0.0539
   64MOL   C13826724   2.513   2.374   0.416  0.3520  0.0578  0.8650
   64MOL   H13926725   2.580   2.173   0.442 -2.2636 -1.4560 -0.7922
   64MOL   H14026726   2.453   2.000   0.387 -0.7619 -0.3668 -0.2766
   64MOL   H14126727   2.564   1.982   0.268 -0.6458 -0.5862 -0.8404
   64MOL   H14226728   2.252   2.081   0.425  0.4577 -0.6303  0.0632
   64MOL   H14326729   2.007   2.097   0.475  0.6405  1.2551  0.0024
   64MOL   H14426730   1.847   2.051   0.291  0.0067  0.4650  2.2400
   64MOL   H14526731   1.936   1.952   0.075  1.2636 -2.6546 -0.5743
   64MOL   H14626732   2.173   1.918   0.040 -0.0744  1.3570 -1.0805
   64MOL   H14726733   2.592   2.432   0.464 -1.5665  2.0243  1.7501
   64MOL   H14826734   2.474   2.439   0.337  0.0211  1.2636  2.0044
   64MOL   C14926735   2.405   2.349   0.517  0.1396  0.0415  0.3515
   64MOL   O15026736   2.482   2.332   0.641  0.5024  0.0255 -0.2707
   64MOL   C15126737   2.453   2.226   0.718 -0.0686 -0.5506 -0.2442
   64MOL   O15226738   2.477   2.104   0.649 -0.1608  0.3880  0.3027
   64MOL   C15326739   2.541   2.009   0.724  0.0982  0.3700 -0.5192
   64MOL   C15426740   2.567   2.015   0.864  0.5358 -0.4404 -0.7129
   64MOL   C15526741   2.642   1.920   0.928 -0.8500 -0.7746 -0.1336
   64MOL   C15626742   2.699   1.807   0.866  0.9422 -0.2541 -0.0105
   64MOL   C15726743   2.675   1.801   0.728  0.1236 -0.9572 -0.5361
   64MOL   C15826744   2.597   1.902   0.652 -0.8046  0.3293 -0.1019
   64MOL   C15926745   2.292   2.459   0.522 -0.7304  0.7602 -0.0318
   64MOL   H16026746   2.351   2.257   0.494 -1.6829  0.7137  1.8121
   64MOL   H16126747   2.519   2.248   0.802 -1.3891 -1.6098  1.1115
   64MOL   H16226748   2.349   2.236   0.750 -0.1260 -0.9226 -0.3036
   64MOL   H16326749   2.521   2.095   0.920 -0.1557  0.0828 -2.0008
   64MOL   H16426750   2.657   1.930   1.035  0.2591  0.9754 -0.4330
   64MOL   H16526751   2.754   1.729   0.916  0.7673  0.8759  2.0066
   64MOL   H16626752   2.730   1.721   0.680 -1.6668 -2.8613  0.5042
   64MOL   H16726753   2.594   1.880   0.546  1.7587  0.0087 -0.1570
   64MOL   H16826754   2.233   2.439   0.432  0.1938  0.6604 -0.6186
   64MOL   H16926755   2.337   2.556   0.501  0.1171  0.8954  2.3014
   64MOL   C17026756   2.202   2.457   0.644 -0.5091 -0.1308  0.3442
   64MOL   O17126757   2.132   2.580   0.646  0.4193 -0.4870 -0.3650
   64MOL   C17226758   2.206   2.694   0.696  0.0106 -0.1056 -0.0155
   64MOL   O17326759   2.126   2.799   0.757 -0.0580  0.0647 -0.0794
   64MOL   C17426760   2.190   2.899   0.827 -0.5108  0.7128 -0.3186
   64MOL   C17526761   2.116   2.978   0.912  0.9186  0.2939  0.4815
   64MOL   C17626762   2.170   3.091   0.978 -0.1126 -0.0757 -0.1428
   64MOL   C17726763   2.309   3.118   0.974  0.1290 -0.2506  0.1856
   64MOL   C17826764   2.385   3.038   0.888 -0.3738 -0.1869 -0.2231
   64MOL   C17926765   2.330   2.931   0.816 -0.6909 -0.2091  0.3109
   64MOL   C18026766   2.102   2.343   0.643 -0.3954  0.0626  0.2670
   64MOL   H18126767   2.270   2.449   0.730  1.1045 -1.8740 -1.0555
   64MOL   H18226768   2.266   2.735   0.615 -1.6698  1.5023 -0.4898
   64MOL   H18326769   2.267   2.658   0.779 -1.6536  1.5417  1.9695
   64MOL   H18426770   2.014   2.956   0.941 -0.2722  3.3556 -1.1992
   64MOL   H18526771   2.111   3.157   1.040 -2.8756 -1.4789 -1.1750
   64MOL   H18626772   2.347   3.201   1.032  0.8258 -0.8979  0.6538
   64MOL   H18726773   2.493   3.051   0.890 -0.3447 -0.4816  0.1843
   64MOL   H18826774   2.395   2.872   0.753 -0.5247 -0.9783  1.1864
   64MOL   H18926775   2.023   2.368   0.572 -0.5194 -4.3503 -1.3222
   64MOL   H19026776   2.150   2.251   0.610  0.9922  0.4639  1.1315
   64MOL   C19126777   2.040   2.321   0.776 -0.5739 -0.1930 -0.1706
   64MOL   O19226778   2.127   2.273   0.874  0.2497  0.7549 -0.0339
   64MOL   C19326779   2.106   2.297   1.011 -0.5064 -0.1478 -0.6339
   64MOL   O19426780   2.114   2.431   1.051 -0.0375 -0.0682  0.3747
   64MOL   C19526781   2.235   2.497   1.047 -0.0200 -0.3135  0.7073
   64MOL   C19626782   2.226   2.641   1.054  0.3701 -1.2057 -0.0357
   64MOL   C19726783   2.341   2.718   1.068  0.4367 -0.6437 -0.0161
   64MOL   C19826784   2.465   2.652   1.074 -0.2116 -0.0615  0.2743
   64MOL   C19926785   2.472   2.509   1.055 -0.0624 -0.3399 -0.0504
   64MOL   C20026786   2.360   2.428   1.051  0.0271 -0.2438 -0.6213
   64MOL   C20126787   1.924   2.214   0.766  0.4760  0.5976 -0.0224
   64MOL   H20226788   1.993   2.412   0.812 -1.8615 -1.0989  0.4708
   64MOL   H20326789   2.178   2.244   1.074 -1.4668 -0.1089  0.5137
   64MOL   H20426790   2.001   2.273   1.029 -0.6885  0.2742 -1.1445
   64MOL   H20526791   2.130   2.687   1.034 -0.0133 -2.1014 -0.3014
   64MOL   H20626792   2.325   2.825   1.065 -0.1972 -0.7440 -0.3998
   64MOL   H20726793   2.561   2.700   1.085 -1.2748  2.6432 -1.8249
   64MOL   H20826794   2.569   2.461   1.062 -0.9141 -2.2786 -1.1385
   64MOL   H20926795   2.368   2.323   1.027  3.5634  0.3190 -2.1993
   64MOL   H21026796   1.972   2.125   0.725 -1.7593 -0.8406  0.4298
   64MOL   H21126797   1.888   2.178   0.862  2.3965 -0.2195  0.4284
   64MOL   C21226798   1.804   2.255   0.680  0.3246  0.1912  0.4645
   64MOL   O21326799   1.728   2.138   0.688  0.0068  0.1318 -0.2508
   64MOL   C21426800   1.689   2.079   0.570  0.0644 -0.5988 -0.9510
   64MOL   O21526801   1.605   1.972   0.596  0.2026  0.1560 -0.6395
   64MOL   C21626802   1.661   1.858   0.651  0.2240 -0.4982  0.0269
   64MOL   C21726803   1.799   1.852   0.690  0.0625 -0.4114 -0.4354
   64MOL   C21826804   1.849   1.740   0.757  0.0036  0.4722 -1.0701
   64MOL   C21926805   1.768   1.627   0.781 -0.1671  0.5885 -0.0091
   64MOL   C22026806   1.641   1.625   0.717 -0.0418  0.1847  0.0534
   64MOL   C22126807   1.584   1.740   0.668 -0.3077  1.0509 -0.1812
   64MOL   C22226808   1.717   2.367   0.736 -0.1897  0.4785 -0.2852
   64MOL   H22326809   1.829   2.261   0.574 -2.4825  0.8492 -0.1839
   64MOL   H22426810   1.778   2.067   0.508  2.1878 -1.3853  2.0982
   64MOL   H22526811   1.624   2.152   0.522 -1.8731 -2.6339 -1.4799
   64MOL   H22626812   1.865   1.936   0.678  0.8055 -0.8855  0.3116
   64MOL   H22726813   1.952   1.732   0.788 -0.0002 -1.6227 -1.5230
   64MOL   H22826814   1.809   1.540   0.829 -1.0624  0.2979  0.2514
   64MOL   H22926815   1.576   1.539   0.723  1.6177 -1.2820 -2.2722
   64MOL   H23026816   1.478   1.744   0.645 -0.3507  1.6715  0.1154
   64MOL   H23126817   1.647   2.341   0.815  0.8322 -0.0990  0.4369
   64MOL   H23226818   1.788   2.433   0.785  1.0875 -1.0976  0.0211
   64MOL   C23326819   1.661   2.454   0.620  0.2430 -0.6022  0.5597
   64MOL   O23426820   1.524   2.427   0.631  0.2727 -0.7187  0.1171
   64MOL   C23526821   1.456   2.421   0.511 -0.7371  0.4910 -0.7804
   64MOL   O23626822   1.442   2.541   0.434  0.3880  0.3781 -0.4824
   64MOL   C23726823   1.373   2.650   0.487 -0.5754 -0.1216 -0.0505
   64MOL   C23826824   1.275   2.636   0.587  0.1775 -0.2308 -0.2674
   64MOL   C23926825   1.217   2.750   0.645 -0.3588  0.6573  0.2613
   64MOL   C24026826   1.244   2.870   0.579 -0.1145 -0.4888  0.2719
   64MOL   C24126827   1.344   2.892   0.480  0.6332  0.5766 -0.3142
   64MOL   C24226828   1.409   2.779   0.437  0.0318 -0.4368 -0.0131
   64MOL   C24326829   1.670   2.612   0.650  0.4944  0.9112  0.2403
   64MOL   H24426830   1.701   2.436   0.521 -0.4519  0.8799 -0.0066
   64MOL   H24526831   1.358   2.378   0.533 -0.7200 -0.5388 -2.6284
   64MOL   H24626832   1.512   2.346   0.455 -1.2457  0.4878 -1.2881
   64MOL   H24726833   1.229   2.546   0.624 -0.4641  0.1659 -0.0896
   64MOL   H24826834   1.144   2.747   0.724  1.1796 -2.4651  1.6296
   64MOL   H24926835   1.191   2.955   0.621 -0.1793 -1.2020  1.6653
   64MOL   H25026836   1.352   2.989   0.433 -0.2603  1.5320  1.4275
   64MOL   H25126837   1.474   2.775   0.351  0.0506  0.5942 -0.0532
   64MOL   H25226838   1.582   2.668   0.620  0.0705  1.0915  1.8162
   64MOL   H25326839   1.697   2.624   0.754 -0.3350  1.8931  0.3499
   64MOL   C25426840   1.790   2.669   0.561  0.0554 -0.1309  0.8253
   64MOL   O25526841   1.744   2.702   0.431 -0.1631 -0.3309 -0.1041
   64MOL   C25626842   1.845   2.686   0.327 -0.1112  0.0141 -0.9103
   64MOL   O25726843   1.878   2.551   0.318  0.0323 -0.6234 -0.2244
   64MOL   C25826844   1.974   2.520   0.225 -0.1751  0.8466  0.0468
   64MOL   C25926845   2.040   2.398   0.250 -0.1294 -0.2111  0.3209
   64MOL   C26026846   2.154   2.360   0.172  0.5893  0.0750  1.3112
   64MOL   C26126847   2.189   2.445   0.061 -0.0999  0.3173 -0.5578
   64MOL   C26226848   2.124   2.567   0.039  0.5764  0.5162 -0.1032
   64MOL   C26326849   2.020   2.603   0.121  0.0583  0.1146  0.7966
   64MOL   C26426850   1.838   2.800   0.631 -0.2278 -0.5577  0.1665
   64MOL   H26526851   1.867   2.593   0.565 -1.0212 -1.2136  1.2644
   64MOL   H26626852   1.928   2.752   0.349 -0.0856 -0.7052  1.3192
   64MOL   H26726853   1.799   2.720   0.234 -1.1740 -0.3614 -0.5368
   64MOL   H26826854   2.010   2.340   0.337  2.1936 -3.0709 -0.6656
   64MOL   H26926855   2.210   2.269   0.188 -2.0700 -1.8069  0.4759
   64MOL   H27026856   2.279   2.421   0.006 -1.0819  3.1761 -3.5516
   64MOL   H27126857   2.165   2.629   7.936  0.9568  1.0856  0.5475
   64MOL   H27226858   1.973   2.700   0.110 -0.5983 -0.4284 -1.3562
   64MOL   H27326859   1.885   2.777   0.727  0.3199 -1.5359 -0.3342
   64MOL   H27426860   1.921   2.831   0.569 -0.2503  1.3370  1.0479
   64MOL   C27526861   1.737   2.914   0.647 -0.2339 -0.0516  0.1511
   64MOL   O27626862   1.678   2.906   0.777  0.2461 -0.7765 -0.4290
   64MOL   C27726863   1.542   2.939   0.784 -0.1981  0.6962  0.1289
   64MOL   O27826864   1.495   2.932   0.913 -0.0684 -0.1696  0.0428
   64MOL   C27926865   1.533   3.025   1.008  1.4045  0.1492 -0.0577
   64MOL   C28026866   1.500   2.987   1.138 -0.4551 -0.1354  0.2377
   64MOL   C28126867   1.543   3.064   1.245 -0.5000  0.0197  0.1713
   64MOL   C28226868   1.605   3.183   1.220  0.4827 -0.1596 -0.0651
   64MOL   C28326869   1.642   3.220   1.084 -0.1503  0.2949  0.0605
   64MOL   C28426870   1.605   3.139   0.980 -0.2675 -0.1196  0.5162
   64MOL   C28526871   1.802   3.059   0.627  0.0850 -0.4142  0.0773
   64MOL   H28626872   1.668   2.898   0.564  0.3983  2.2316 -0.8520
   64MOL   H28726873   1.492   2.875   0.712  1.8326  1.2535 -1.8588
   64MOL   H28826874   1.515   3.031   0.732 -1.7850  0.2339  0.1104
   64MOL   H28926875   1.452   2.891   1.152 -0.0883 -0.6175 -1.7083
   64MOL   H29026876   1.531   3.031   1.347 -0.1327  0.3204  0.3132
   64MOL   H29126877   1.639   3.239   1.306 -1.3412 -2.7188  2.4275
   64MOL   H29226878   1.702   3.308   1.065 -1.2348  1.3029  1.2274
   64MOL   H29326879   1.618   3.167   0.877  2.4004 -1.3529  0.4733
   64MOL   H29426880   1.911   3.056   0.636  0.3904  0.9977 -2.5461
   64MOL   H29526881   1.769   3.117   0.714  0.4286  0.2923 -0.2584
   64MOL   C29626882   1.766   3.120   0.496  0.0147 -0.0376 -0.2486
   64MOL   O29726883   1.637   3.191   0.514  0.4781 -0.1721  0.6810
   64MOL   C29826884   1.566   3.241   0.404  0.1578  0.0795 -0.4760
   64MOL   O29926885   1.567   3.149   0.305 -0.4713  0.6947  0.6806
   64MOL   C30026886   1.484   3.170   0.193 -0.2084 -0.8024  0.0678
   64MOL   C30126887   1.416   3.290   0.162 -0.2640  0.1254  0.3796
   64MOL   C30226888   1.350   3.306   0.038 -0.4544 -0.7993  0.1530
   64MOL   C30326889   1.345   3.195   7.926  0.3726  0.8012 -0.1519
   64MOL   C30426890   1.411   3.077   7.957  0.2705  0.3125  0.1690
   64MOL   C30526891   1.490   3.067   0.097  0.3458 -0.2608 -0.3356
   64MOL   C30626892   1.870   3.220   0.450  0.2312 -0.1616  0.1348
   64MOL   H30726893   1.758   3.043   0.419  0.6964 -0.9790  0.6189
   64MOL   H30826894   1.618   3.332   0.373  1.0380  0.0277  0.7960
   64MOL   H30926895   1.473   3.291   0.432  0.3377  0.2215 -0.1215
   64MOL   H31026896   1.419   3.371   0.233  2.9119 -0.8532  1.4375
   64MOL   H31126897   1.293   3.397   0.026 -0.6665 -1.1329 -1.3804
   64MOL   H31226898   1.297   3.207   7.829  1.2183  0.7825 -0.5769
   64MOL   H31326899   1.412   2.989   7.894  1.0489 -0.7694  1.6576
   64MOL   H31426900   1.551   2.978   0.105  0.2582 -0.2599  0.3107
   64MOL   H31526901   1.883   3.279   0.540  0.7274  1.8333 -1.2276
   64MOL   H31626902   1.835   3.283   0.369 -0.5637  0.3932  0.9061
   64MOL   C31726903   2.005   3.164   0.408 -0.3158 -0.0288  0.0252
   64MOL   O31826904   2.103   3.267   0.430 -0.4981  0.2502  0.0140
   64MOL   C31926905   2.165   3.283   0.556  0.2383 -0.3017 -0.2089
   64MOL   O32026906   2.290   3.341   0.550 -0.2688  0.5449 -0.3052
   64MOL   C32126907   2.297   3.477   0.506  0.7145  0.1617 -0.4786
   64MOL   C32226908   2.421   3.546   0.511  0.1880  0.8938 -0.1065
   64MOL   C32326909   2.426   3.680   0.463  0.7512  0.2587 -0.1564
   64MOL   C32426910   2.313   3.748   0.421 -0.3158 -0.8032  0.0591
   64MOL   C32526911   2.188   3.676   0.412  0.3446 -0.4531  0.2052
   64MOL   C32626912   2.180   3.548   0.461 -0.0856  0.0604  0.0143
   64MOL   C32726913   2.020   3.129   0.261  0.4011  0.8897  0.0800
   64MOL   H32826914   2.036   3.074   0.461 -0.7226  1.2211  2.4630
   64MOL   H32926915   2.181   3.185   0.600  1.0313 -0.0296  0.1208
   64MOL   H33026916   2.095   3.327   0.627 -1.0076 -0.2860 -1.4169
   64MOL   H33126917   2.508   3.502   0.557  0.1175  0.9172  0.0515
   64MOL   H33226918   2.521   3.732   0.465  0.5850  0.5581  0.1739
   64MOL   H33326919   2.323   3.847   0.379 -0.7674  1.3917  4.7633
   64MOL   H33426920   2.094   3.716   0.377  1.1589  0.7722 -0.5777
   64MOL   H33526921   2.079   3.509   0.458 -0.6254  1.2965  1.5454
   64MOL   H33626922   1.941   3.058   0.238 -1.3414  2.7626  0.1119
   64MOL   H33726923   2.004   3.223   0.208 -0.9418  1.0829  0.7879
   64MOL   C33826924   2.151   3.055   0.215  0.3684 -0.7381  0.0378
   64MOL   O33926925   2.135   2.919   0.243 -0.1690  0.6369  0.1800
   64MOL   C34026926   2.255   2.842   0.245 -0.4932  0.0925  0.0119
   64MOL   O34126927   2.330   2.890   0.352  0.5281  0.1338  0.0230
   64MOL   C34226928   2.454   2.835   0.377  0.6840  0.0889 -0.6627
   64MOL   C34326929   2.529   2.896   0.483  0.0235  0.3154  0.1635
   64MOL   C34426930   2.663   2.853   0.503 -0.5957  0.0150 -0.0931
   64MOL   C34526931   2.724   2.751   0.430  0.2332  0.5089 -0.0807
   64MOL   C34626932   2.642   2.686   0.333  0.7062  0.3045  0.0059
   64MOL   C34726933   2.506   2.725   0.307 -0.7085  0.2976  0.4099
   64MOL   C34826934   2.191   3.089   0.065 -0.1515 -0.1446 -0.3447
   64MOL   H34926935   2.227   3.084   0.288 -0.8160 -1.3673  1.5347
   64MOL   H35026936   2.306   2.848   0.149  1.0077 -0.3948  0.7687
   64MOL   H35126937   2.225   2.741   0.273 -2.1440  0.6042  0.1717
   64MOL   H35226938   2.490   2.989   0.522  1.6209  1.1581 -0.1757
   64MOL   H35326939   2.721   2.913   0.572  1.5497 -2.5371  0.3980
   64MOL   H35426940   2.822   2.710   0.448 -0.0997 -0.3834 -0.2768
   64MOL   H35526941   2.684   2.600   0.285 -1.7771 -0.6288 -0.5459
   64MOL   H35626942   2.458   2.674   0.224 -0.5740  0.1088  0.4494
   64MOL   H35726943   2.111   3.151   0.023 -0.0908  0.4171  0.3487
   64MOL   H35826944   2.197   2.994   0.013 -0.5889  0.2855 -1.1844
   64MOL   C35926945   2.321   3.178   0.052  0.1907 -0.2145 -0.1689
   64MOL   O36026946   2.313   3.301   0.114  0.2123  0.1146 -0.0932
   64MOL   C36126947   2.404   3.328   0.218 -1.0715  0.0277 -0.0190
   64MOL   O36226948   2.536   3.357   0.163  0.4524  0.0440 -0.4597
   64MOL   C36326949   2.643   3.277   0.197 -0.2481 -0.6899  0.5578
   64MOL   C36426950   2.643   3.138   0.236  0.3687  0.1132  0.3491
   64MOL   C36526951   2.760   3.067   0.251 -0.4047  0.5404  0.1589
   64MOL   C36626952   2.883   3.133   0.220  0.0863 -0.3268  0.0415
   64MOL   C36726953   2.887   3.264   0.175 -0.1174  0.0358  0.3436
   64MOL   C36826954   2.769   3.339   0.173  0.4844  0.2943  0.0840
   64MOL   C36926955   2.337   3.218   7.889  0.5105  0.5241 -0.6740
   64MOL   H37026956   2.407   3.120   0.085 -0.3933 -0.3609  1.1129
   64MOL   H37126957   2.400   3.242   0.284 -1.4253 -0.9855 -1.3286
   64MOL   H37226958   2.369   3.420   0.265 -1.0025 -0.1250  0.3320
   64MOL   H37326959   2.546   3.094   0.256  0.7632 -1.0933 -0.3139
   64MOL   H37426960   2.767   2.964   0.280 -0.2704  0.8075  1.0775
   64MOL   H37526961   2.974   3.075   0.210  0.0900 -0.2587 -0.3124
   64MOL   H37626962   2.982   3.299   0.135 -0.1711 -0.6401 -0.3884
   64MOL   H37726963   2.774   3.435   0.125 -0.4488  0.8963  1.1723
   64MOL   H37826964   2.413   3.296   7.886  0.3735  0.5947 -2.6020
   64MOL   H37926965   2.236   3.252   7.871 -0.6164 -0.1652  3.6928
   64MOL   C38026966   2.382   3.112   7.789 -0.7281  0.0534 -0.5704
   64MOL   O38126967   2.526   3.126   7.776 -0.2983 -0.4814 -0.3924
   64MOL   C38226968   2.601   3.037   7.852  0.0708  0.0815  0.2672
   64MOL   O38326969   2.577   2.909   7.798 -0.4925 -0.0844 -0.0891
   64MOL   C38426970   2.632   2.798   7.853 -0.3836  0.1051  0.1323
   64MOL   C38526971   2.747   2.797   7.929 -0.1908  0.5859  0.6966
   64MOL   C38626972   2.807   2.678   0.006  0.4773 -0.6102 -0.4005
   64MOL   C38726973   2.737   2.555   7.968  0.4331  0.3117 -0.5795
   64MOL   C38826974   2.617   2.552   7.890 -0.2761 -0.0050  0.4084
   64MOL   C38926975   2.561   2.672   7.841  0.4625 -0.2672  0.4161
   64MOL   C39026976   2.319   3.134   7.645  1.2992 -0.3604  0.4774
   64MOL   H39126977   2.352   3.012   7.818 -0.5298  0.5356  1.3938
   64MOL   H39226978   2.704   3.072   7.838  0.2150 -0.3155  0.3256
   64MOL   H39326979   2.583   3.034   7.959 -1.3941  1.4005  0.0761
   64MOL   H39426980   2.798   2.887   7.958  0.6479 -0.1845  1.6580
   64MOL   H39526981   2.896   2.683   0.066  0.7344 -2.0952 -0.6381
   64MOL   H39626982   2.780   2.465   0.034  0.1022  0.8412  0.9753
   64MOL   H39726983   2.557   2.463   7.879  0.5962 -0.4587 -0.8269
   64MOL   H39826984   2.470   2.672   7.783  1.5827  0.5966 -1.3871
   64MOL   H39926985   2.325   3.242   7.630 -1.1292 -0.0106  1.7972
   64MOL   H40026986   2.213   3.116   7.663  1.4854 -0.5195  1.4200
   64MOL   C40126987   2.371   3.038   7.538  0.6703  0.0288 -0.1685
   64MOL   O40226988   2.319   2.906   7.570  0.3937 -0.3693 -0.1386
   64MOL   C40326989   2.377   2.785   7.529  0.8717  0.1528 -0.5353
   64MOL   O40426990   2.301   2.677   7.576 -0.6500 -0.1067  0.4560
   64MOL   C40526991   2.164   2.670   7.549  0.9420  0.0316 -0.6795
   64MOL   C40626992   2.092   2.757   7.467  0.0041  0.0605  0.3245
   64MOL   C40726993   1.947   2.750   7.468 -0.4111 -0.7931  0.5394
   64MOL   C40826994   1.880   2.657   7.542 -0.3110 -0.4795 -0.1066
   64MOL   C40926995   1.954   2.572   7.625 -0.5083 -0.5184 -0.6720
   64MOL   C41026996   2.097   2.579   7.632 -0.1266  0.5867  0.0821
   64MOL   C41126997   2.314   3.071   7.394  0.3428 -0.3428  0.0079
   64MOL   H41226998   2.477   3.019   7.525  0.1087 -1.9189 -2.1129
   64MOL   H41326999   2.476   2.789   7.574  0.2985  0.7704  0.6923
   64MOL   H41427000   2.372   2.773   7.420 -1.0780 -2.6345 -0.1856
   64MOL   H41527001   2.148   2.829   7.409 -0.6115 -1.8684 -2.7957
   64MOL   H41627002   1.881   2.820   7.420  0.7870  0.0714  0.1476
   64MOL   H41727003   1.772   2.660   7.546 -0.2532  1.6371  0.6090
   64MOL   H41827004   1.908   2.500   7.691  1.4124 -0.3996  0.8223
   64MOL   H41927005   2.160   2.522   7.699  1.7996  2.7774  0.1982
   64MOL   H42027006   2.350   3.163   7.350 -1.8768 -0.5363 -2.3100
   64MOL   H42127007   2.206   3.067   7.406  0.5974  0.3020  2.8674
   64MOL   H42227008   2.345   2.989   7.329 -0.4872  0.9176 -2.0088
   65MOL     C127009   3.967   3.498   0.124  0.5218  0.6309  0.2080
   65MOL     O227010   4.017   3.441   0.243  0.1756  0.3786  0.4290
   65MOL     C327011   4.101   3.332   0.227 -0.5159 -0.5138 -0.1025
   65MOL     O427012   4.231   3.375   0.188  0.8261  0.3697  0.0413
   65MOL     C527013   4.321   3.266   0.186  0.2909 -0.9066 -0.0873
   65MOL     C627014   4.452   3.302   0.162 -0.3261  0.4883 -0.1665
   65MOL     C727015   4.553   3.205   0.178  0.1285  0.0871  0.3435
   65MOL     C827016   4.528   3.078   0.229  0.9726 -0.3406 -0.3612
   65MOL     C927017   4.396   3.040   0.262  0.0297  0.0037  0.6776
   65MOL    C1027018   4.293   3.134   0.232  0.1448  0.3332  0.1672
   65MOL    C1127019   3.955   3.647   0.156  0.2459 -0.0944  0.4690
   65MOL    H1227020   4.042   3.500   0.045  2.0976 -0.7881  1.6406
   65MOL    H1327021   4.093   3.277   0.321 -0.9947  0.2357  0.3053
   65MOL    H1427022   4.055   3.269   0.151 -0.3934 -1.4295  0.5726
   65MOL    H1527023   4.477   3.402   0.129 -0.2052  1.2365  2.1317
   65MOL    H1627024   4.656   3.232   0.161  0.1211  0.6102  1.1157
   65MOL    H1727025   4.616   3.019   0.249  0.5605  0.0331  2.7683
   65MOL    H1827026   4.389   2.938   0.296  0.5809 -0.2240  0.1294
   65MOL    H1927027   4.197   3.097   0.265 -1.5707  3.9711 -0.5007
   65MOL    H2027028   4.041   3.700   0.198  0.4034  1.4485 -1.7584
   65MOL    H2127029   3.882   3.668   0.235 -0.6518  2.5397 -0.9933
   65MOL    H2227030   3.871   3.456   0.093  0.5430  1.7573 -1.4826
   65MOL    C2327031   3.916   3.745   0.044  0.3001  0.9766 -0.1974
   65MOL    O2427032   4.034   3.746   7.941  0.1130  0.1642 -0.0942
   65MOL    C2527033   4.022   3.760   7.804  0.1313  0.2926 -0.8649
   65MOL    O2627034   3.941   3.656   7.756  0.1543 -0.5740  0.5000
   65MOL    C2727035   3.998   3.535   7.729  0.3184 -0.2302  0.5956
   65MOL    C2827036   3.903   3.441   7.675 -0.9424  0.5565 -0.2493
   65MOL    C2927037   3.944   3.312   7.627 -0.1626  0.1802 -0.2153
   65MOL    C3027038   4.076   3.264   7.646 -0.7588  0.3433 -0.1435
   65MOL    C3127039   4.169   3.353   7.708  0.3306 -0.8553 -0.2200
   65MOL    C3227040   4.127   3.484   7.749  0.3345 -0.2680 -0.5975
   65MOL    C3327041   3.875   3.886   0.088 -0.0599  0.6484  0.2763
   65MOL    H3427042   3.845   3.684   7.963 -0.0765  1.2090  0.0276
   65MOL    H3527043   4.121   3.769   7.759 -0.2495  1.7117 -1.4283
   65MOL    H3627044   3.970   3.853   7.781 -0.1483  0.0567 -1.1845
   65MOL    H3727045   3.798   3.464   7.670 -0.7201  1.2029 -2.1295
   65MOL    H3827046   3.864   3.246   7.596 -1.3565  1.2706  0.4392
   65MOL    H3927047   4.096   3.158   7.637 -2.3201  0.1402 -1.4526
   65MOL    H4027048   4.267   3.311   7.724 -0.1087 -1.8948 -0.2484
   65MOL    H4127049   4.200   3.549   7.796  0.0455 -1.1443  1.1142
   65MOL    H4227050   3.874   3.948   7.974 -1.2380 -2.4853 -1.9417
   65MOL    H4327051   3.961   3.924   0.145  0.1400  1.5895 -0.6340
   65MOL    C4427052   3.743   3.909   0.168  0.0737 -0.0426  0.2072
   65MOL    O4527053   3.634   3.857   0.083 -0.5252 -0.3662 -0.6654
   65MOL    C4627054   3.528   3.814   0.167 -0.1559  1.0032 -0.0562
   65MOL    O4727055   3.550   3.692   0.224  0.1882 -0.5251  0.5834
   65MOL    C4827056   3.560   3.584   0.140 -0.3751  0.6701  0.3184
   65MOL    C4927057   3.566   3.460   0.208 -0.2756 -0.0185  0.4689
   65MOL    C5027058   3.582   3.343   0.131  0.2705 -0.3402 -0.0891
   65MOL    C5127059   3.572   3.346   7.963 -0.5000  0.0232 -0.2810
   65MOL    C5227060   3.570   3.466   7.894 -0.9124  0.2383 -0.4414
   65MOL    C5327061   3.567   3.589   7.970  0.5442  0.2511 -0.2116
   65MOL    C5427062   3.724   4.060   0.197  0.4083 -0.6057  0.2369
   65MOL    H5527063   3.753   3.858   0.264  1.2301  0.3485  0.3064
   65MOL    H5627064   3.445   3.801   0.097 -0.0521 -2.3000  0.3690
   65MOL    H5727065   3.488   3.885   0.240  0.0806 -0.3891  1.4481
   65MOL    H5827066   3.558   3.463   0.315  0.7851  1.3835  0.5287
   65MOL    H5927067   3.593   3.247   0.179 -1.3870 -1.0807 -1.1467
   65MOL    H6027068   3.567   3.257   7.902  0.3425  0.3577 -0.8562
   65MOL    H6127069   3.559   3.462   7.787 -0.7951  0.8917 -0.4779
   65MOL    H6227070   3.556   3.680   7.914  0.8780  0.5766  0.2499
   65MOL    H6327071   3.741   4.125   0.111 -1.1800  1.9736  1.8015
   65MOL    H6427072   3.615   4.069   0.198  0.5119  0.8899 -0.3340
   65MOL    C6527073   3.784   4.117   0.327  0.4798 -0.8154 -0.4078
   65MOL    O6627074   3.905   4.186   0.282  0.1876  0.3130 -0.0136
   65MOL    C6727075   4.018   4.152   0.350 -0.4646 -1.1657 -0.1778
   65MOL    O6827076   4.126   4.232   0.321 -0.0915  0.0139 -0.7853
   65MOL    C6927077   4.131   4.358   0.376 -0.4397  0.5209 -0.1483
   65MOL    C7027078   4.028   4.457   0.376  0.3313 -0.5918 -0.4250
   65MOL    C7127079   4.050   4.586   0.427  0.2785 -0.1709 -0.5956
   65MOL    C7227080   4.176   4.616   0.486 -0.6182  0.1524 -0.4775
   65MOL    C7327081   4.276   4.512   0.492  0.3478 -0.2191  0.7253
   65MOL    C7427082   4.252   4.389   0.431  0.9463 -0.0988  0.2765
   65MOL    C7527083   3.706   4.226   0.407 -0.1763  0.7484 -0.3413
   65MOL    H7627084   3.810   4.037   0.397 -0.6241 -1.6396 -0.9311
   65MOL    H7727085   4.041   4.053   0.312 -1.4237 -0.5917 -2.2904
   65MOL    H7827086   4.004   4.133   0.457  1.5640  0.1433  0.3377
   65MOL    H7927087   3.930   4.437   0.334  0.2055  1.1761 -1.0266
   65MOL    H8027088   3.966   4.654   0.418  0.8202  0.4943 -0.6489
   65MOL    H8127089   4.199   4.719   0.507 -0.9416 -0.2210  1.8346
   65MOL    H8227090   4.377   4.531   0.524  0.0900  1.1931  0.7431
   65MOL    H8327091   4.331   4.317   0.419  0.8703  0.2282 -2.5834
   65MOL    H8427092   3.770   4.276   0.480  1.8646 -3.1769  0.6857
   65MOL    H8527093   3.676   4.306   0.339 -0.0593 -0.7864 -2.2570
   65MOL    C8627094   3.583   4.175   0.486 -0.5652  0.2070  0.1453
   65MOL    O8727095   3.628   4.084   0.581 -0.4179  0.0639  0.4956
   65MOL    C8827096   3.556   3.975   0.619  0.1443  0.1178  0.1189
   65MOL    O8927097   3.564   3.859   0.536  0.6804 -0.1336  0.1605
   65MOL    C9027098   3.690   3.789   0.537 -0.6276  0.3123 -0.1651
   65MOL    C9127099   3.807   3.833   0.601 -0.2620  0.2995 -0.4369
   65MOL    C9227100   3.930   3.776   0.591  0.3730  0.1368  0.1286
   65MOL    C9327101   3.937   3.649   0.521 -0.3045 -0.3606 -0.3483
   65MOL    C9427102   3.816   3.586   0.473  0.9241 -0.4939 -0.1567
   65MOL    C9527103   3.699   3.668   0.469 -0.6123  0.5963 -0.1090
   65MOL    C9627104   3.505   4.282   0.561 -0.7553 -0.2764 -0.7661
   65MOL    H9727105   3.516   4.130   0.413 -0.3130  1.4366 -0.8568
   65MOL    H9827106   3.456   4.015   0.638  0.7982  1.3568  0.9938
   65MOL    H9927107   3.582   3.946   0.721 -0.6971 -0.6152  0.1327
   65MOL   H10027108   3.807   3.931   0.648 -0.3779  0.3591 -0.5609
   65MOL   H10127109   4.023   3.814   0.631 -0.9932  0.8313  2.7121
   65MOL   H10227110   4.030   3.595   0.516  1.1274  2.0257 -0.3223
   65MOL   H10327111   3.825   3.484   0.439 -2.5087 -0.1151 -2.4271
   65MOL   H10427112   3.606   3.624   0.435  0.8533 -4.1928  1.6609
   65MOL   H10527113   3.430   4.222   0.613  0.1922 -0.5111  0.3357
   65MOL   H10627114   3.570   4.318   0.640 -1.1055 -2.0563  0.3595
   65MOL   C10727115   3.427   4.378   0.474  0.2913 -0.7773  0.1098
   65MOL   O10827116   3.287   4.386   0.522 -0.3130  0.6284  0.2863
   65MOL   C10927117   3.201   4.332   0.420 -0.8844  0.3475 -0.3044
   65MOL   O11027118   3.212   4.194   0.399 -0.4059 -0.3053 -0.1219
   65MOL   C11127119   3.176   4.105   0.502  0.1959 -0.2910 -0.0909
   65MOL   C11227120   3.209   3.969   0.481 -0.2905  0.2824 -0.3437
   65MOL   C11327121   3.162   3.877   0.572 -0.9511 -0.1526 -0.1502
   65MOL   C11427122   3.084   3.910   0.688 -0.3090 -0.6966 -0.1940
   65MOL   C11527123   3.048   4.047   0.705  0.0248  0.6285 -0.2305
   65MOL   C11627124   3.099   4.142   0.616 -0.0417  0.2670  0.2232
   65MOL   C11727125   3.484   4.517   0.481  0.0775  0.3192  0.0139
   65MOL   H11827126   3.425   4.337   0.373  0.0357  1.5538 -0.8516
   65MOL   H11927127   3.219   4.382   0.324 -1.4592  0.5426 -0.3116
   65MOL   H12027128   3.095   4.347   0.443 -1.3062 -0.7462 -1.4859
   65MOL   H12127129   3.266   3.938   0.395 -0.4893  1.4359 -0.8962
   65MOL   H12227130   3.190   3.773   0.566 -1.0606 -0.3313  1.8996
   65MOL   H12327131   3.045   3.846   0.766 -0.1838 -0.7469 -0.1721
   65MOL   H12427132   2.985   4.082   0.785 -1.3237 -0.6533 -0.7160
   65MOL   H12527133   3.075   4.246   0.634 -0.0983  0.6521 -1.9289
   65MOL   H12627134   3.591   4.507   0.463  0.4189  0.7294  1.7965
   65MOL   H12727135   3.473   4.544   0.586  0.1621 -0.7836  0.3083
   65MOL   C12827136   3.429   4.610   0.377  0.1593 -0.2938  0.4070
   65MOL   O12927137   3.524   4.719   0.368 -0.2109  0.5929  0.1123
   65MOL   C13027138   3.600   4.720   0.242  0.6244  0.0503  0.1593
   65MOL   O13127139   3.670   4.601   0.223  0.0925 -0.8053  0.3748
   65MOL   C13227140   3.747   4.580   0.108  0.3163 -0.0983 -0.1126
   65MOL   C13327141   3.792   4.452   0.081 -0.1319 -0.3763  0.7216
   65MOL   C13427142   3.876   4.432   7.949  0.7714  0.7022  0.6379
   65MOL   C13527143   3.916   4.539   7.862  0.7266  0.3510  0.0524
   65MOL   C13627144   3.874   4.664   7.889  0.1357 -0.3401  0.1116
   65MOL   C13727145   3.785   4.685   0.024 -0.4356  0.0454 -0.2737
   65MOL   C13827146   3.295   4.681   0.407 -0.3629  0.5501  0.2340
   65MOL   H13927147   3.433   4.562   0.279  1.3888  0.3320  0.1310
   65MOL   H14027148   3.672   4.802   0.239  0.6438 -0.0111 -1.6731
   65MOL   H14127149   3.527   4.736   0.162 -0.2558  1.5761  1.2419
   65MOL   H14227150   3.779   4.373   0.154  0.5337  0.1062  1.3589
   65MOL   H14327151   3.908   4.330   7.931  0.7453  0.9811 -1.1381
   65MOL   H14427152   3.985   4.510   7.783  0.4726 -1.8684  0.6081
   65MOL   H14527153   3.905   4.743   7.823  0.6194 -1.1828 -0.6816
   65MOL   H14627154   3.761   4.784   0.058 -0.5086  0.7864 -2.3668
   65MOL   H14727155   3.236   4.612   0.468  0.0052 -0.0416 -0.0808
   65MOL   H14827156   3.323   4.764   0.472  0.0629 -0.6972  1.6654
   65MOL   C14927157   3.215   4.713   0.276 -0.0500 -0.1834 -0.4063
   65MOL   O15027158   3.141   4.605   0.229  0.0460 -0.2138  0.5606
   65MOL   C15127159   3.188   4.539   0.113  0.3795  0.3555 -0.2239
   65MOL   O15227160   3.182   4.623   0.004  0.3172  0.1319 -0.6816
   65MOL   C15327161   3.066   4.691   7.947 -0.7468  0.3178 -0.9435
   65MOL   C15427162   2.940   4.667   0.030  0.6476 -1.1540 -0.1219
   65MOL   C15527163   2.834   4.754   7.968 -0.4449  0.1909 -0.5128
   65MOL   C15627164   2.851   4.844   7.863  0.4547  0.6425  0.1765
   65MOL   C15727165   2.979   4.871   7.810  0.3314 -0.0115 -0.7196
   65MOL   C15827166   3.088   4.794   7.853 -0.1507 -0.3093 -0.4464
   65MOL   C15927167   3.135   4.841   0.292  0.3169 -0.1989  0.3660
   65MOL   H16027168   3.278   4.754   0.197 -0.5938 -1.1928 -1.3724
   65MOL   H16127169   3.291   4.513   0.136 -0.1109 -1.3893  0.1006
   65MOL   H16227170   3.123   4.453   0.093  0.7875  0.4520 -1.9812
   65MOL   H16327171   2.918   4.584   0.095 -2.7431  0.8946  1.5122
   65MOL   H16427172   2.738   4.750   0.043  0.0892  1.7652  0.6770
   65MOL   H16527173   2.758   4.891   7.833  0.1936  0.5789  0.8886
   65MOL   H16627174   2.985   4.950   7.737 -3.6797  2.2485  1.2471
   65MOL   H16727175   3.187   4.804   7.812  0.8531 -0.2013  1.9325
   65MOL   H16827176   3.091   4.871   0.197 -3.2681  0.4911  2.1829
   65MOL   H16927177   3.204   4.919   0.324  0.6240  0.7334 -2.4020
   65MOL   C17027178   3.012   4.849   0.386  0.1080  0.2410  0.7719
   65MOL   O17127179   2.979   4.987   0.418  0.5801  0.2676  0.4475
   65MOL   C17227180   2.987   5.023   0.549  0.3242 -0.2286  0.0308
   65MOL   O17327181   3.118   5.020   0.602  0.4886  0.1231 -0.2923
   65MOL   C17427182   3.208   5.107   0.552  0.1676  0.1900 -0.0977
   65MOL   C17527183   3.333   5.103   0.618  0.3492 -1.1277  0.3004
   65MOL   C17627184   3.438   5.182   0.577  0.3459  1.3520 -0.7924
   65MOL   C17727185   3.414   5.276   0.478  0.2135 -0.1333 -0.2723
   65MOL   C17827186   3.295   5.279   0.408 -0.0055  0.4628 -0.2546
   65MOL   C17927187   3.188   5.199   0.452 -0.4246 -0.1042 -0.4609
   65MOL   C18027188   2.876   4.788   0.339  0.8307 -0.5219 -0.1951
   65MOL   H18127189   3.046   4.785   0.467  1.9038  1.1414  0.7557
   65MOL   H18227190   2.928   4.950   0.605  0.1207 -0.4383 -0.4492
   65MOL   H18327191   2.945   5.123   0.557  1.9909  0.6493 -1.8425
   65MOL   H18427192   3.339   5.030   0.697 -0.1287 -2.3101 -0.7318
   65MOL   H18527193   3.524   5.174   0.642  0.6343  1.3302 -1.1726
   65MOL   H18627194   3.496   5.342   0.451 -0.6751  1.5239  1.0013
   65MOL   H18727195   3.269   5.350   0.332 -3.8941  2.0397  2.3982
   65MOL   H18827196   3.097   5.222   0.399  0.4272  2.3545 -0.9026
   65MOL   H18927197   2.815   4.848   0.272  0.9309  0.5144  0.6225
   65MOL   H19027198   2.905   4.704   0.276 -0.5209 -0.4427 -0.9440
   65MOL   C19127199   2.805   4.742   0.475  0.1178  0.1837 -0.2916
   65MOL   O19227200   2.771   4.603   0.469 -0.3470  0.0519 -0.0922
   65MOL   C19327201   2.879   4.523   0.495 -0.1524 -0.0088 -0.4595
   65MOL   O19427202   2.907   4.507   0.635 -0.0940  0.0811 -0.5365
   65MOL   C19527203   2.813   4.445   0.717  0.3901  0.0614  0.0889
   65MOL   C19627204   2.691   4.390   0.666 -0.0660  0.2991 -0.6278
   65MOL   C19727205   2.604   4.315   0.757 -0.1397 -0.3987  0.1609
   65MOL   C19827206   2.643   4.302   0.887  0.5738 -0.1604 -0.2624
   65MOL   C19927207   2.754   4.364   0.943 -0.0778  0.4003  0.4265
   65MOL   C20027208   2.838   4.433   0.855  0.0997 -0.3534  0.2702
   65MOL   C20127209   2.675   4.828   0.499  0.2010  0.7567 -0.4870
   65MOL   H20227210   2.871   4.756   0.561 -3.3300 -0.2338  2.5490
   65MOL   H20327211   2.969   4.572   0.458 -0.3637  0.6470 -0.1112
   65MOL   H20427212   2.877   4.428   0.441  1.3144  0.2605 -0.9982
   65MOL   H20527213   2.668   4.397   0.561  0.9742  0.6094 -0.8380
   65MOL   H20627214   2.511   4.280   0.714 -0.7147 -0.9259  1.7597
   65MOL   H20727215   2.585   4.239   0.953 -0.1601 -1.3322 -1.9826
   65MOL   H20827216   2.778   4.363   1.048  2.1196 -0.4421 -0.0480
   65MOL   H20927217   2.923   4.486   0.897 -0.0289 -1.1191  1.4897
   65MOL   H21027218   2.692   4.931   0.468  0.0354  1.3811  1.4438
   65MOL   H21127219   2.597   4.796   0.430  1.1912  1.2270 -1.8308
   65MOL   C21227220   2.620   4.808   0.641 -0.0118 -0.1337  0.1562
   65MOL   O21327221   2.698   4.885   0.729 -0.3890 -0.1096  0.6468
   65MOL   C21427222   2.729   4.823   0.846  0.3501 -0.4611  0.0741
   65MOL   O21527223   2.626   4.792   0.934  0.4104  0.1196 -0.3766
   65MOL   C21627224   2.653   4.733   1.054 -0.6630  0.0020  0.5012
   65MOL   C21727225   2.791   4.716   1.095 -0.0430 -0.2357 -0.0138
   65MOL   C21827226   2.813   4.622   1.201 -0.0743  0.4876 -0.6303
   65MOL   C21927227   2.708   4.559   1.270 -0.7173  0.9987  0.2747
   65MOL   C22027228   2.577   4.588   1.246  0.7748 -0.6104  0.2626
   65MOL   C22127229   2.550   4.670   1.133  0.1603 -0.5835 -0.0720
   65MOL   C22227230   2.470   4.847   0.657 -0.5056 -0.0474  0.2270
   65MOL   H22327231   2.630   4.702   0.666 -1.2512 -0.2402  0.2284
   65MOL   H22427232   2.794   4.898   0.891  0.7421 -0.8348  0.1300
   65MOL   H22527233   2.796   4.738   0.833  1.5774  0.4515  0.4234
   65MOL   H22627234   2.872   4.758   1.038  0.3785  0.2685  0.9434
   65MOL   H22727235   2.914   4.593   1.225 -0.7692  0.2318  2.1197
   65MOL   H22827236   2.732   4.490   1.349 -1.9556  0.4106  0.1621
   65MOL   H22927237   2.505   4.543   1.313 -0.5660  1.4692  0.2760
   65MOL   H23027238   2.450   4.697   1.104 -0.0450 -1.2887 -0.0278
   65MOL   H23127239   2.449   4.900   0.750 -3.3330 -0.3230 -0.2107
   65MOL   H23227240   2.446   4.922   0.581  2.0850 -0.7355 -1.3168
   65MOL   C23327241   2.388   4.717   0.647 -0.4435  0.4486  1.0083
   65MOL   O23427242   2.261   4.747   0.703  0.1810 -0.1878 -0.0902
   65MOL   C23527243   2.255   4.725   0.841 -0.1311  0.1120  0.7328
   65MOL   O23627244   2.270   4.591   0.865 -0.1447 -0.1577  0.2687
   65MOL   C23727245   2.236   4.538   0.985 -0.8287  0.7539  0.4936
   65MOL   C23827246   2.265   4.398   0.991  0.3041  0.4979  0.5094
   65MOL   C23927247   2.235   4.329   1.111 -0.5008 -0.1554  0.1075
   65MOL   C24027248   2.171   4.390   1.223  0.4297 -0.4501  0.7069
   65MOL   C24127249   2.155   4.532   1.218  0.0702  0.2072  0.4160
   65MOL   C24227250   2.191   4.613   1.102  0.3885  0.8979  0.2187
   65MOL   C24327251   2.373   4.661   0.497  0.8401  0.5663 -0.3191
   65MOL   H24427252   2.432   4.640   0.710  0.0131 -3.6087 -4.0337
   65MOL   H24527253   2.151   4.756   0.856  0.1593  1.0034  0.9393
   65MOL   H24627254   2.307   4.797   0.904 -1.6014  0.2628  1.8181
   65MOL   H24727255   2.311   4.347   0.908  1.2256 -0.3698  1.5331
   65MOL   H24827256   2.245   4.222   1.117  1.7463  0.0370 -0.0168
   65MOL   H24927257   2.159   4.338   1.317  2.4363 -3.0842 -0.4460
   65MOL   H25027258   2.132   4.589   1.307 -0.7778  1.7631 -0.7823
   65MOL   H25127259   2.182   4.718   1.124  0.9637  1.4868 -2.2026
   65MOL   H25227260   2.336   4.732   0.423 -0.1940 -0.2064 -0.5522
   65MOL   H25327261   2.473   4.632   0.465  0.4459 -1.0725 -0.0943
   65MOL   C25427262   2.285   4.532   0.478 -0.1620  0.3497  0.6595
   65MOL   O25527263   2.275   4.494   0.342 -0.4304 -0.3575 -0.1724
   65MOL   C25627264   2.157   4.538   0.285 -0.0465 -0.0216 -0.1721
   65MOL   O25727265   2.147   4.497   0.151  0.5351  0.6395  0.7840
   65MOL   C25827266   2.202   4.585   0.065  0.1216 -0.4416  0.1299
   65MOL   C25927267   2.324   4.647   0.078  0.2369 -0.2707  0.2298
   65MOL   C26027268   2.379   4.731   7.953 -0.4803  0.2329  0.4091
   65MOL   C26127269   2.313   4.743   7.837  0.4360 -0.0850  0.3013
   65MOL   C26227270   2.186   4.690   7.820  0.0284 -0.0181  0.4610
   65MOL   C26327271   2.133   4.602   7.918  0.4849  0.1383  0.3845
   65MOL   C26427272   2.334   4.412   0.553  0.0422  0.1556 -0.3986
   65MOL   H26527273   2.186   4.558   0.515 -1.0755 -1.3714 -0.5316
   65MOL   H26627274   2.154   4.647   0.286  1.4870  0.0263 -0.3165
   65MOL   H26727275   2.070   4.497   0.336  1.8891 -2.4466  1.2495
   65MOL   H26827276   2.388   4.625   0.162  0.3571 -0.6886  0.0292
   65MOL   H26927277   2.477   4.774   7.966 -0.6159  1.1082 -1.3787
   65MOL   H27027278   2.354   4.811   7.764 -1.0103 -1.5190 -1.8955
   65MOL   H27127279   2.127   4.720   7.735 -0.5201 -0.7227  0.5940
   65MOL   H27227280   2.039   4.554   7.895 -0.5102  1.9526  0.5771
   65MOL   H27327281   2.428   4.384   0.505  0.8519  3.5059 -0.8550
   65MOL   H27427282   2.371   4.442   0.651 -0.9620  1.6803 -0.4777
   65MOL   C27527283   2.242   4.294   0.558  0.3101 -0.2929 -0.3646
   65MOL   O27627284   2.318   4.190   0.625  0.1701  0.5797 -0.0916
   65MOL   C27727285   2.349   4.074   0.555  0.3886 -0.2132 -0.5407
   65MOL   O27827286   2.449   4.000   0.626  0.1766 -0.0991 -0.4728
   65MOL   C27927287   2.412   3.928   0.735  0.6734  0.3342 -0.4991
   65MOL   C28027288   2.306   3.958   0.825 -0.5877 -0.1349 -0.4655
   65MOL   C28127289   2.295   3.894   0.944  0.4592 -0.5575  0.1320
   65MOL   C28227290   2.374   3.782   0.974 -0.0501 -0.5059 -0.2063
   65MOL   C28327291   2.482   3.749   0.890  0.5663  0.7033 -0.4905
   65MOL   C28427292   2.499   3.821   0.773 -0.0844 -0.2228  0.3755
   65MOL   C28527293   2.114   4.319   0.647  0.1146 -0.0369  0.5312
   65MOL   H28627294   2.214   4.267   0.456  0.6923 -0.8475 -0.3255
   65MOL   H28727295   2.391   4.086   0.455 -0.1907  0.9592 -0.6500
   65MOL   H28827296   2.260   4.012   0.547  0.4522 -0.6941  1.9075
   65MOL   H28927297   2.248   4.047   0.805 -0.0621  0.1340 -0.7804
   65MOL   H29027298   2.223   3.943   1.008  0.4342 -0.3375 -0.0630
   65MOL   H29127299   2.361   3.739   1.072  0.6299  1.4854  0.7876
   65MOL   H29227300   2.546   3.670   0.926 -2.0401 -0.9000  0.7132
   65MOL   H29327301   2.581   3.796   0.707 -0.5347 -0.3390 -0.1432
   65MOL   H29427302   2.058   4.401   0.601 -2.7684 -2.5637 -0.6030
   65MOL   H29527303   2.151   4.363   0.739  0.9509 -0.2859  0.3186
   65MOL   C29627304   2.017   4.208   0.675  0.2948 -0.7152 -0.3737
   65MOL   O29727305   1.912   4.253   0.762 -0.0076 -0.3730 -0.0880
   65MOL   C29827306   1.934   4.208   0.895  0.6147  0.0376  0.1120
   65MOL   O29927307   1.901   4.078   0.916  0.3434  0.0890 -0.2912
   65MOL   C30027308   1.922   4.033   1.043  0.0963 -0.4936  0.2362
   65MOL   C30127309   1.977   4.111   1.146 -0.6134 -0.4960  0.2466
   65MOL   C30227310   2.011   4.062   1.273  0.8180  0.3636  0.1170
   65MOL   C30327311   1.983   3.932   1.295  0.1534 -0.0631 -0.1079
   65MOL   C30427312   1.936   3.846   1.199  0.0706 -0.1705  0.4734
   65MOL   C30527313   1.911   3.897   1.072 -0.4120 -0.2304 -0.0434
   65MOL   C30627314   1.940   4.153   0.551 -1.1171  0.1494  0.1636
   65MOL   H30727315   2.065   4.120   0.717 -0.0702  0.6509  3.0480
   65MOL   H30827316   1.875   4.271   0.961  0.1049 -0.6985  0.3671
   65MOL   H30927317   2.039   4.224   0.916  0.6126 -2.2457  2.1322
   65MOL   H31027318   1.980   4.219   1.139 -2.3954 -0.5338 -1.5268
   65MOL   H31127319   2.038   4.126   1.356  1.9941  0.6577 -0.4939
   65MOL   H31227320   2.013   3.887   1.389 -0.8975 -0.9058 -0.1727
   65MOL   H31327321   1.918   3.740   1.203 -0.2312 -0.2126 -1.3622
   65MOL   H31427322   1.876   3.832   0.993  0.7725 -0.8570 -0.0628
   65MOL   H31527323   2.011   4.153   0.469 -0.0164 -0.0051  1.1053
   65MOL   H31627324   1.856   4.215   0.519 -1.3154 -0.8238 -1.2307
   65MOL   C31727325   1.894   4.013   0.582  0.6953 -0.3873  0.2869
   65MOL   O31827326   2.006   3.921   0.557  0.2498  0.0671 -0.5033
   65MOL   C31927327   2.033   3.819   0.652 -0.5028 -0.2511 -0.5272
   65MOL   O32027328   1.933   3.726   0.650  0.3920 -0.7928 -0.6344
   65MOL   C32127329   1.956   3.608   0.720 -0.2589  0.1566 -0.0959
   65MOL   C32227330   2.064   3.582   0.807 -0.1842 -0.7870  0.6004
   65MOL   C32327331   2.051   3.467   0.892  0.0724  0.0302  0.1299
   65MOL   C32427332   1.942   3.378   0.879  0.8860  0.1698 -0.0534
   65MOL   C32527333   1.840   3.410   0.794 -0.2669  0.3363 -0.2800
   65MOL   C32627334   1.845   3.523   0.713 -0.3861 -0.0924 -0.7715
   65MOL   C32727335   1.769   3.968   0.504 -0.2592 -0.5056  0.9016
   65MOL   H32827336   1.863   3.991   0.685 -1.4974 -1.6694 -0.6186
   65MOL   H32927337   2.036   3.860   0.754 -0.1041 -2.2290  0.2753
   65MOL   H33027338   2.135   3.782   0.645  0.3036  1.4880  1.5065
   65MOL   H33127339   2.151   3.645   0.820 -0.6062 -0.2217  0.7122
   65MOL   H33227340   2.131   3.460   0.964  0.4669  0.6817 -0.2354
   65MOL   H33327341   1.925   3.307   0.959  1.5266  0.1947  0.1094
   65MOL   H33427342   1.749   3.352   0.803  0.7989 -1.4115 -0.5530
   65MOL   H33527343   1.758   3.555   0.658  0.2106 -1.3165 -2.4482
   65MOL   H33627344   1.753   4.039   0.423 -1.3887 -0.7573  0.8979
   65MOL   H33727345   1.806   3.876   0.459 -0.6323 -0.8072  1.2128
   65MOL   C33827346   1.649   3.944   0.597  0.1003  0.8413  0.1052
   65MOL   O33927347   1.627   4.058   0.669 -0.4572 -0.2858  0.5020
   65MOL   C34027348   1.563   4.049   0.794 -0.6967 -0.6588  0.4864
   65MOL   O34127349   1.440   3.985   0.793 -0.5728  0.0807 -0.2164
   65MOL   C34227350   1.382   3.935   0.907  0.1355  0.2929  0.2769
   65MOL   C34327351   1.278   3.849   0.879 -1.1181  0.2773  0.0257
   65MOL   C34427352   1.199   3.808   0.988 -0.8209 -0.3602  0.1067
   65MOL   C34527353   1.226   3.851   1.121 -0.2060  0.0336  0.4586
   65MOL   C34627354   1.342   3.924   1.151 -0.5672 -0.4462  0.1744
   65MOL   C34727355   1.422   3.964   1.041  0.5927  0.0759 -0.0846
   65MOL   C34827356   1.532   3.893   0.518  0.3817 -0.0615  0.0184
   65MOL   H34927357   1.673   3.871   0.674 -2.9832  1.4501  1.7218
   65MOL   H35027358   1.551   4.145   0.843 -1.3530 -1.2310  1.4558
   65MOL   H35127359   1.626   3.989   0.859  1.6881 -1.6862 -2.6486
   65MOL   H35227360   1.254   3.815   0.780  0.4500 -0.9039  0.0294
   65MOL   H35327361   1.116   3.741   0.969 -0.9967 -0.1337  0.0689
   65MOL   H35427362   1.158   3.823   1.200 -3.3502 -0.0751 -2.1745
   65MOL   H35527363   1.383   3.935   1.250  3.6145 -3.6322 -1.0538
   65MOL   H35627364   1.503   4.028   1.072  1.6377 -2.4545  2.5534
   65MOL   H35727365   1.507   3.961   0.436  4.8017 -0.6642 -1.9651
   65MOL   H35827366   1.442   3.903   0.578  1.3685 -1.3711  1.7772
   65MOL   C35927367   1.545   3.751   0.463 -0.3507  0.1429 -0.1914
   65MOL   O36027368   1.614   3.761   0.339 -0.1306  0.3158 -0.3692
   65MOL   C36127369   1.691   3.645   0.308 -0.1473  0.3884  0.1473
   65MOL   O36227370   1.727   3.654   0.172  0.1698 -0.1709  0.4542
   65MOL   C36327371   1.853   3.616   0.130  0.3061  0.2380  0.4450
   65MOL   C36427372   1.929   3.526   0.201 -0.2881  0.0240  0.4949
   65MOL   C36527373   2.056   3.505   0.158 -0.2920  0.3874 -0.5245
   65MOL   C36627374   2.110   3.556   0.032  0.5219 -0.0652 -0.1863
   65MOL   C36727375   2.026   3.637   7.930  0.3345  0.1285  1.1978
   65MOL   C36827376   1.892   3.658   0.002 -0.4681 -0.3899  0.6338
   65MOL   C36927377   1.406   3.687   0.435 -0.0482  0.5145 -0.0944
   65MOL   H37027378   1.596   3.688   0.536 -2.4399 -0.7203  0.5824
   65MOL   H37127379   1.626   3.558   0.311  1.8574 -1.1193  1.0613
   65MOL   H37227380   1.771   3.638   0.382 -1.0522 -1.5928  0.9693
   65MOL   H37327381   1.889   3.488   0.294 -1.9212  1.5224  0.4474
   65MOL   H37427382   2.121   3.438   0.212 -0.3993  0.1758 -0.6589
   65MOL   H37527383   2.213   3.533   0.009  0.3850 -1.3204  0.3940
   65MOL   H37627384   2.066   3.672   7.837 -0.7018 -1.3685  0.1564
   65MOL   H37727385   1.836   3.730   7.920  0.5385 -0.0623  0.0625
   65MOL   H37827386   1.420   3.599   0.373  0.3892  2.0298 -2.2001
   65MOL   H37927387   1.344   3.765   0.390 -0.8982  0.3847  0.8194
   65MOL   C38027388   1.340   3.626   0.561 -0.1525 -0.1639  0.2378
   65MOL   O38127389   1.422   3.515   0.610  0.6343 -0.1924  0.0815
   65MOL   C38227390   1.411   3.486   0.752  0.4733  0.5595 -0.9147
   65MOL   O38327391   1.488   3.580   0.822 -0.0392  0.5332  0.2157
   65MOL   C38427392   1.501   3.573   0.961 -0.2860  0.0732  0.0445
   65MOL   C38527393   1.400   3.510   1.044  0.2123  0.7978 -0.3911
   65MOL   C38627394   1.432   3.497   1.184  0.2358  0.3873  0.9013
   65MOL   C38727395   1.537   3.575   1.238  0.0771  0.0906 -0.0562
   65MOL   C38827396   1.619   3.652   1.159  0.1753 -1.0441  0.0419
   65MOL   C38927397   1.607   3.643   1.017  0.6844  0.0919  0.1029
   65MOL   C39027398   1.189   3.595   0.548 -0.4571  0.3621 -0.7037
   65MOL   H39127399   1.350   3.710   0.630  0.6769 -0.4888  0.5194
   65MOL   H39227400   1.306   3.477   0.781  0.9376 -1.4534  0.1877
   65MOL   H39327401   1.451   3.386   0.763  0.3510  0.3120 -2.5700
   65MOL   H39427402   1.310   3.473   0.996  0.4173  3.5424 -3.0172
   65MOL   H39527403   1.360   3.459   1.256  0.8839 -2.5626  0.0451
   65MOL   H39627404   1.535   3.587   1.345 -0.5273  2.0376 -0.2579
   65MOL   H39727405   1.701   3.708   1.203  0.5376 -1.2784 -0.3290
   65MOL   H39827406   1.673   3.693   0.948  1.1686  0.6076  0.9185
   65MOL   H39927407   1.134   3.689   0.560 -1.1978 -0.1020 -0.4495
   65MOL   H40027408   1.159   3.528   0.629 -0.9978 -0.0047 -1.2020
   65MOL   C40127409   1.157   3.510   0.419  0.4559  0.2609  0.1303
   65MOL   O40227410   1.059   3.407   0.445  0.0892  0.3542  0.7772
   65MOL   C40327411   1.106   3.274   0.446  0.5403  0.6669 -1.2763
   65MOL   O40427412   1.205   3.256   0.541  0.0919 -0.0306 -0.0261
   65MOL   C40527413   1.164   3.248   0.677  0.2574 -0.1656  1.3802
   65MOL   C40627414   1.040   3.310   0.727  0.1512 -0.1768 -0.8164
   65MOL   C40727415   1.010   3.297   0.868 -0.4180 -0.2991 -0.2215
   65MOL   C40827416   1.100   3.237   0.960  0.2498  0.1489 -0.4308
   65MOL   C40927417   1.220   3.178   0.910  0.2987 -0.3574  0.1766
   65MOL   C41027418   1.248   3.175   0.769 -0.0276  0.0959 -0.4896
   65MOL   C41127419   1.101   3.596   0.298 -0.7918  0.0614 -0.7726
   65MOL   H41227420   1.255   3.481   0.382 -0.0086 -0.6353 -0.4093
   65MOL   H41327421   1.139   3.238   0.348 -0.2700  0.3802 -1.4541
   65MOL   H41427422   1.026   3.206   0.477  1.6488  0.1236  0.4560
   65MOL   H41527423   0.975   3.365   0.660  0.0959  0.5638 -0.1644
   65MOL   H41627424   0.921   3.344   0.907 -1.4428 -0.2620 -2.5658
   65MOL   H41727425   1.071   3.227   1.063  0.5083  3.8132  0.0627
   65MOL   H41827426   1.282   3.136   0.987  3.3603 -0.5160 -2.2513
   65MOL   H41927427   1.338   3.132   0.727 -0.0195 -0.7252  0.3488
   65MOL   H42027428   1.177   3.644   0.236 -0.3582  1.8932  1.1233
   65MOL   H42127429   1.027   3.669   0.331  0.6849  1.0307  0.4467
   65MOL   H42227430   1.055   3.529   0.225 -1.8690 -0.6795  0.5513
   66MOL     C127431   7.205   3.971   0.645  0.2324  0.6785 -0.2032
   66MOL     O227432   7.272   4.055   0.743  0.3625  0.0895  0.5757
   66MOL     C327433   7.394   4.107   0.697 -0.5388 -0.3096 -0.1313
   66MOL     O427434   7.493   4.006   0.697 -0.3603 -0.2662  0.7044
   66MOL     C527435   7.625   4.046   0.674  0.1948 -0.6070 -0.0707
   66MOL     C627436   7.731   3.955   0.709 -0.3380 -0.0700  0.1064
   66MOL     C727437   7.864   3.990   0.672  0.4849  0.3276  0.1356
   66MOL     C827438   7.892   4.105   0.605 -0.4896 -0.1093  0.5782
   66MOL     C927439   7.786   4.184   0.560 -0.0120 -0.4668  0.3976
   66MOL    C1027440   7.655   4.160   0.598  0.4566  0.6552 -0.5690
   66MOL    C1127441   7.084   3.914   0.723 -0.5902  0.1576 -0.3293
   66MOL    H1227442   7.172   4.034   0.562 -0.5432  1.5858  0.7726
   66MOL    H1327443   7.384   4.149   0.597 -0.0872 -1.3593 -0.6301
   66MOL    H1427444   7.423   4.189   0.763 -0.3050  0.8181 -1.6147
   66MOL    H1527445   7.712   3.864   0.764 -0.7456  0.0524  0.1684
   66MOL    H1627446   7.936   3.916   0.706 -0.3165 -0.3585  0.3594
   66MOL    H1727447   0.018   4.134   0.581 -0.8950  1.6804  0.9411
   66MOL    H1827448   7.794   4.274   0.502 -0.6585  0.7568  2.1331
   66MOL    H1927449   7.578   4.223   0.557  0.4436  1.7040  1.0412
   66MOL    H2027450   7.034   3.998   0.772 -1.8439 -0.4742 -0.5029
   66MOL    H2127451   7.120   3.859   0.810  1.3488  1.1741 -0.4559
   66MOL    H2227452   7.271   3.897   0.602  1.2720  1.3265  0.2738
   66MOL    C2327453   6.985   3.834   0.635  0.4200 -0.3499  0.0460
   66MOL    O2427454   6.869   3.818   0.711 -0.6206 -0.2783  0.3376
   66MOL    C2527455   6.748   3.871   0.661 -0.3547  0.1445 -0.2150
   66MOL    O2627456   6.752   4.009   0.646  0.5340  0.2824 -0.3400
   66MOL    C2727457   6.748   4.092   0.755 -0.5522  0.3110 -0.2094
   66MOL    C2827458   6.762   4.226   0.717  0.1860 -0.2824 -0.7457
   66MOL    C2927459   6.773   4.330   0.813  0.1870 -0.0627  0.1268
   66MOL    C3027460   6.755   4.298   0.951  0.1947  0.1315  0.3169
   66MOL    C3127461   6.749   4.159   0.993 -0.1780  0.1518 -0.2811
   66MOL    C3227462   6.748   4.059   0.893  0.5195  0.3117  0.2671
   66MOL    C3327463   7.034   3.694   0.602 -0.2887 -0.5882 -0.3292
   66MOL    H3427464   6.968   3.893   0.545  0.0331  0.4279  0.6309
   66MOL    H3527465   6.681   3.847   0.744  2.2254 -1.3979  1.5179
   66MOL    H3627466   6.717   3.816   0.572 -0.4555 -1.9466  1.0592
   66MOL    H3727467   6.774   4.247   0.612 -0.0999  0.0588 -0.7141
   66MOL    H3827468   6.796   4.432   0.787  1.5864 -0.7927 -1.5965
   66MOL    H3927469   6.756   4.374   1.028 -0.3446 -3.3728  3.9742
   66MOL    H4027470   6.737   4.134   1.097 -0.9356 -2.1908 -0.8996
   66MOL    H4127471   6.737   3.955   0.920 -1.4825  0.4267  0.0448
   66MOL    H4227472   7.036   3.654   0.703 -1.7705 -1.3001 -0.5799
   66MOL    H4327473   7.141   3.689   0.578 -0.3481 -0.2114 -0.6853
   66MOL    C4427474   6.954   3.596   0.517 -0.4570 -0.7335  0.3216
   66MOL    O4527475   6.977   3.458   0.557 -0.1769  0.0607 -0.0976
   66MOL    C4627476   6.905   3.407   0.671  0.1152  0.0431  0.3221
   66MOL    O4727477   6.976   3.417   0.797  0.0367  0.1392 -0.4948
   66MOL    C4827478   7.093   3.352   0.816  0.0804  0.0794  0.0370
   66MOL    C4927479   7.158   3.287   0.715  0.0532  0.2769 -0.3579
   66MOL    C5027480   7.289   3.234   0.725 -0.1801  0.4406  0.5417
   66MOL    C5127481   7.350   3.242   0.851  0.0660 -0.9075  0.6483
   66MOL    C5227482   7.287   3.302   0.960 -0.0079  0.0510  0.8676
   66MOL    C5327483   7.158   3.361   0.940  0.1846  0.3906 -0.0465
   66MOL    C5427484   6.996   3.608   0.368 -0.2715  0.2189  0.0057
   66MOL    H5527485   6.846   3.613   0.526 -0.8226 -1.7776 -1.6530
   66MOL    H5627486   6.862   3.310   0.649  2.7730 -0.6759 -1.9172
   66MOL    H5727487   6.824   3.479   0.687 -0.8031 -0.7730 -0.5688
   66MOL    H5827488   7.103   3.284   0.622  1.9874 -0.0765 -1.5100
   66MOL    H5927489   7.322   3.184   0.635  0.2948  1.1262  0.3281
   66MOL    H6027490   7.447   3.194   0.860  1.3349  1.1508 -1.4507
   66MOL    H6127491   7.341   3.307   1.053  1.0041 -1.1642  0.3518
   66MOL    H6227492   7.109   3.417   1.017 -1.8353 -0.5194 -0.6406
   66MOL    H6327493   7.029   3.710   0.348  2.4665 -0.9659 -1.7109
   66MOL    H6427494   7.090   3.553   0.360 -0.7837 -0.5645 -0.7266
   66MOL    C6527495   6.907   3.554   0.250  0.1236  0.2481 -0.6107
   66MOL    O6627496   6.814   3.658   0.206 -0.2631  0.8607 -0.2772
   66MOL    C6727497   6.688   3.657   0.260  0.1406 -0.4324 -0.2383
   66MOL    O6827498   6.614   3.756   0.190  0.1804 -0.0682  0.4562
   66MOL    C6927499   6.642   3.890   0.218 -0.6856  0.0962  0.6553
   66MOL    C7027500   6.554   3.986   0.165  0.2804  0.5513 -0.2476
   66MOL    C7127501   6.578   4.119   0.189 -0.4601  0.7208 -0.1219
   66MOL    C7227502   6.676   4.169   0.276 -0.3309 -0.7456 -0.6639
   66MOL    C7327503   6.770   4.073   0.329 -0.0493 -0.5595 -0.2617
   66MOL    C7427504   6.754   3.933   0.301 -0.8361 -0.5059  0.5065
   66MOL    C7527505   6.986   3.517   0.127 -0.1707 -1.2358  1.3549
   66MOL    H7627506   6.844   3.474   0.288 -0.7625  2.0656  1.9022
   66MOL    H7727507   6.678   3.676   0.367 -0.6275 -1.9860 -0.0272
   66MOL    H7827508   6.638   3.565   0.231 -0.8995  0.6612 -2.0000
   66MOL    H7927509   6.475   3.950   0.101  0.1680  0.7302 -0.2122
   66MOL    H8027510   6.506   4.184   0.140 -1.0642  0.6913  0.7149
   66MOL    H8127511   6.696   4.273   0.300  4.5357 -1.3919 -1.3690
   66MOL    H8227512   6.850   4.110   0.391 -0.6913 -0.2161  0.3720
   66MOL    H8327513   6.825   3.865   0.347 -1.0225  0.2035  1.8788
   66MOL    H8427514   6.933   3.533   0.033  0.8868 -0.0486  0.9486
   66MOL    H8527515   7.061   3.596   0.127 -2.9752  1.6442 -1.9738
   66MOL    C8627516   7.049   3.373   0.133 -0.5439 -0.3132  0.3228
   66MOL    O8727517   6.939   3.294   0.176 -0.0534 -0.4103  0.0783
   66MOL    C8827518   6.977   3.197   0.270 -0.0933  0.2870 -0.6019
   66MOL    O8927519   7.020   3.086   0.191 -0.1000 -0.5643 -0.9911
   66MOL    C9027520   7.087   2.984   0.260 -0.0455  0.8680  0.2358
   66MOL    C9127521   7.150   2.886   0.189 -0.2504  0.6060  0.0395
   66MOL    C9227522   7.225   2.782   0.251 -0.3111 -0.0110 -0.3175
   66MOL    C9327523   7.241   2.783   0.388 -1.2293  0.5787 -0.1171
   66MOL    C9427524   7.174   2.885   0.465 -0.3314  0.0859 -0.2878
   66MOL    C9527525   7.096   2.982   0.403  0.8900  0.0072  0.4451
   66MOL    C9627526   7.092   3.329   7.965  0.2890  0.1129 -0.2120
   66MOL    H9727527   7.131   3.365   0.205  0.8442 -1.7133 -1.3382
   66MOL    H9827528   6.897   3.176   0.341 -1.7704  3.0789 -1.6038
   66MOL    H9927529   7.056   3.225   0.340 -0.9807 -0.6900  0.8213
   66MOL   H10027530   7.143   2.898   0.082  0.7414  0.6484 -0.0235
   66MOL   H10127531   7.288   2.718   0.191  0.0404  0.4227 -0.4212
   66MOL   H10227532   7.305   2.710   0.434 -3.1615  0.0808  1.8765
   66MOL   H10327533   7.204   2.885   0.569  1.1582 -2.3597 -0.6672
   66MOL   H10427534   7.048   3.050   0.472 -2.8754  0.9487 -2.9015
   66MOL   H10527535   7.114   3.222   7.964  4.4788  0.8754  0.0130
   66MOL   H10627536   7.005   3.354   7.906 -0.6474  1.0850  1.5330
   66MOL   C10727537   7.216   3.409   7.915  0.5886 -0.1577  0.1643
   66MOL   O10827538   7.333   3.373   0.011  0.4937  0.7673 -0.3096
   66MOL   C10927539   7.409   3.482   0.051 -0.3584 -0.5392  0.1762
   66MOL   O11027540   7.352   3.555   0.153  0.2288 -0.2546  0.2608
   66MOL   C11127541   7.440   3.636   0.230  0.2879 -0.0040 -0.3300
   66MOL   C11227542   7.559   3.697   0.181 -0.1586  1.0157  0.9809
   66MOL   C11327543   7.632   3.786   0.258 -0.0962  0.0935  0.3210
   66MOL   C11427544   7.584   3.825   0.383  0.9754 -0.6292 -0.0960
   66MOL   C11527545   7.467   3.760   0.431  0.2356  0.0176 -0.1504
   66MOL   C11627546   7.401   3.661   0.361 -0.5681  0.2956  0.5406
   66MOL   C11727547   7.234   3.382   7.766  0.3854 -0.2582  0.0106
   66MOL   H11827548   7.186   3.513   7.934  2.3737  1.1297 -3.5562
   66MOL   H11927549   7.421   3.549   7.942  2.3310  1.2366  1.9043
   66MOL   H12027550   7.506   3.434   0.059  0.4719  0.7009 -2.0725
   66MOL   H12127551   7.603   3.678   0.084 -0.5802  4.0185  0.1385
   66MOL   H12227552   7.720   3.831   0.216 -0.3254 -0.3412 -0.6365
   66MOL   H12327553   7.643   3.879   0.455 -0.5548 -1.4860  1.8214
   66MOL   H12427554   7.446   3.781   0.535  2.0661 -1.9967  0.6671
   66MOL   H12527555   7.315   3.610   0.402 -1.1522  1.1340  0.3582
   66MOL   H12627556   7.145   3.425   7.718  1.7337  4.1901  1.2642
   66MOL   H12727557   7.237   3.275   7.749 -0.3613 -0.5681  1.7839
   66MOL   C12827558   7.351   3.460   7.690 -0.0231 -0.0130 -0.0928
   66MOL   O12927559   7.327   3.601   7.705  0.6711  0.4770 -0.0834
   66MOL   C13027560   7.218   3.672   7.661 -0.1474  0.2007  0.2686
   66MOL   O13127561   7.115   3.675   7.759 -0.3564  0.1551 -0.2529
   66MOL   C13227562   7.027   3.784   7.762 -0.5363  0.7855  0.6025
   66MOL   C13327563   7.026   3.889   7.663  0.0566  0.0447  0.0926
   66MOL   C13427564   6.933   3.992   7.672  0.1491 -0.2810 -0.0067
   66MOL   C13527565   6.840   3.998   7.775 -0.0029 -0.9492 -0.5559
   66MOL   C13627566   6.847   3.898   7.876  0.0635 -1.0002 -1.0903
   66MOL   C13727567   6.940   3.792   7.874  0.3140  0.2409  0.0611
   66MOL   C13827568   7.380   3.417   7.538 -0.6018 -0.1009  0.3130
   66MOL   H13927569   7.437   3.441   7.754 -1.2550 -2.1440  0.9955
   66MOL   H14027570   7.171   3.646   7.566  0.9607  0.9110 -0.4811
   66MOL   H14127571   7.266   3.769   7.653 -1.6952  0.8983 -0.8227
   66MOL   H14227572   7.103   3.893   7.587 -1.3136  1.8304 -1.2347
   66MOL   H14327573   6.937   4.070   7.598  1.5805  0.2192  0.5789
   66MOL   H14427574   6.770   4.081   7.770  1.2822  0.1157 -1.1770
   66MOL   H14527575   6.787   3.911   7.965  0.2381 -1.6246 -0.8822
   66MOL   H14627576   6.945   3.722   7.956  1.2362 -0.7156 -0.7828
   66MOL   H14727577   7.390   3.309   7.539  1.7662  0.1127  2.5853
   66MOL   H14827578   7.293   3.432   7.473  0.4316  3.0730 -0.4298
   66MOL   C14927579   7.509   3.485   7.492 -0.7402  0.1069  0.7593
   66MOL   O15027580   7.614   3.395   7.521  0.6531 -0.0887  0.2309
   66MOL   C15127581   7.743   3.448   7.537  0.0187  0.7098 -0.2823
   66MOL   O15227582   7.797   3.481   7.418 -0.1571  0.7133 -0.0396
   66MOL   C15327583   7.849   3.381   7.342  0.2385 -0.0588  0.2623
   66MOL   C15427584   7.843   3.246   7.373  0.7755  0.3842 -0.1238
   66MOL   C15527585   7.901   3.147   7.293  0.2656 -0.2127  0.0282
   66MOL   C15627586   7.967   3.192   7.178 -0.3608  0.2200  0.2830
   66MOL   C15727587   0.004   3.328   7.140 -0.5331  0.1027 -0.2457
   66MOL   C15827588   7.921   3.423   7.225  0.4802  0.4219  0.2822
   66MOL   C15927589   7.518   3.503   7.335  0.1931 -0.2234 -0.0028
   66MOL   H16027590   7.529   3.575   7.550  2.1758  0.4410 -0.7008
   66MOL   H16127591   7.738   3.536   7.602  0.7770  1.0695 -0.7102
   66MOL   H16227592   7.806   3.382   7.597 -0.4202  1.7573  1.3775
   66MOL   H16327593   7.790   3.207   7.459  0.1584 -1.7282 -1.4409
   66MOL   H16427594   7.899   3.041   7.312  0.3501 -0.5538 -1.7352
   66MOL   H16527595   0.039   3.116   7.118  0.1105  0.7854 -0.0783
   66MOL   H16627596   0.035   3.363   7.042 -2.2755  0.7520 -0.5805
   66MOL   H16727597   7.910   3.524   7.187  0.1446  0.3574  0.2108
   66MOL   H16827598   7.430   3.472   7.278  1.5464 -1.7341 -1.3254
   66MOL   H16927599   7.597   3.436   7.299 -0.3003 -0.0672 -1.4350
   66MOL   C17027600   7.528   3.649   7.301  0.2764  0.1797 -0.2938
   66MOL   O17127601   7.548   3.662   7.161  0.0345 -0.0836  0.7134
   66MOL   C17227602   7.637   3.764   7.118 -0.3227 -0.2937 -0.2311
   66MOL   O17327603   7.628   3.793   6.986  0.0413  0.2232  0.3194
   66MOL   C17427604   7.672   3.707   6.896  0.4357 -0.0014  0.3594
   66MOL   C17527605   7.679   3.743   6.763  0.0560  0.4592  0.1288
   66MOL   C17627606   7.732   3.652   6.664 -0.3620  0.6477 -0.6293
   66MOL   C17727607   7.762   3.520   6.701  0.6467 -0.3569 -0.4721
   66MOL   C17827608   7.746   3.480   6.833  0.1681  0.5883  0.9279
   66MOL   C17927609   7.706   3.574   6.933 -0.1073  0.4136 -0.0524
   66MOL   C18027610   7.399   3.722   7.341  0.5225 -0.5680 -0.1677
   66MOL   H18127611   7.614   3.686   7.358 -0.2156 -0.9678  1.2237
   66MOL   H18227612   7.737   3.726   7.140  0.1347  0.9670 -0.0817
   66MOL   H18327613   7.629   3.856   7.176  0.2814 -0.8712  0.7780
   66MOL   H18427614   7.653   3.843   6.733  0.1120 -0.1127 -1.9546
   66MOL   H18527615   7.758   3.675   6.562  0.8019  1.6223 -0.1280
   66MOL   H18627616   7.787   3.438   6.634  1.2840 -0.3209 -0.2865
   66MOL   H18727617   7.778   3.380   6.856  0.9731  0.3624 -1.1055
   66MOL   H18827618   7.699   3.540   7.035  0.1633  0.3790 -0.0458
   66MOL   H18927619   7.308   3.686   7.293 -1.4341  1.5671  1.8040
   66MOL   H19027620   7.379   3.694   7.445 -2.1024  0.2047 -0.4123
   66MOL   C19127621   7.408   3.875   7.321 -0.1486  0.1979 -0.1059
   66MOL   O19227622   7.342   3.933   7.430  0.3926  0.1145 -0.0537
   66MOL   C19327623   7.421   3.980   7.538 -0.0145  0.1695 -0.4822
   66MOL   O19427624   7.492   3.876   7.611  0.7577 -0.4939  0.0508
   66MOL   C19527625   7.575   3.915   7.715 -0.8009  0.4159 -0.6749
   66MOL   C19627626   7.663   3.818   7.766 -0.0165  0.3208  0.7016
   66MOL   C19727627   7.750   3.848   7.872 -0.2196 -0.2568 -0.0982
   66MOL   C19827628   7.746   3.974   7.933 -0.3291 -0.0951 -0.8723
   66MOL   C19927629   7.656   4.074   7.885 -0.3505 -0.2923  0.1757
   66MOL   C20027630   7.576   4.047   7.774  0.1912  0.0287  0.2743
   66MOL   C20127631   7.332   3.913   7.186  0.8001 -0.3830 -0.3596
   66MOL   H20227632   7.506   3.924   7.322 -0.4956  0.9231 -0.7232
   66MOL   H20327633   7.359   4.039   7.606 -0.0071 -0.7654  0.3468
   66MOL   H20427634   7.502   4.037   7.492  0.9646 -0.3448  0.5881
   66MOL   H20527635   7.663   3.717   7.728 -0.7889  1.3443 -2.1356
   66MOL   H20627636   7.823   3.776   7.904 -0.9783 -0.4355  1.2697
   66MOL   H20727637   7.815   4.002   0.035 -1.0703  0.4091 -0.3919
   66MOL   H20827638   7.663   4.175   7.922 -4.4726 -0.3026  1.3023
   66MOL   H20927639   7.504   4.125   7.751 -0.7558 -1.0151 -0.3750
   66MOL   H21027640   7.388   3.855   7.113  3.2167  1.0741  0.2717
   66MOL   H21127641   7.229   3.879   7.195  1.9293 -3.5114  1.8962
   66MOL   C21227642   7.336   4.061   7.135  0.0521 -0.1729  0.1429
   66MOL   O21327643   7.477   4.087   7.117  0.2940  0.2445 -0.1778
   66MOL   C21427644   7.528   4.210   7.130  0.8746 -0.9012 -0.0176
   66MOL   O21527645   7.532   4.245   7.264 -0.4218 -0.3702 -0.6883
   66MOL   C21627646   7.442   4.339   7.314 -0.2725  0.1553  0.7869
   66MOL   C21727647   7.330   4.396   7.238  0.2300  0.2721  0.0669
   66MOL   C21827648   7.259   4.509   7.287  0.3344 -0.0444 -0.2829
   66MOL   C21927649   7.279   4.558   7.414 -0.2879  0.1170  0.4444
   66MOL   C22027650   7.379   4.492   7.493 -0.0873 -0.0373 -0.8075
   66MOL   C22127651   7.465   4.393   7.440 -0.0186 -0.6204  0.2316
   66MOL   C22227652   7.272   4.076   6.995  0.3836  0.8616  0.3558
   66MOL   H22327653   7.287   4.116   7.216  1.2669  0.8934  0.1753
   66MOL   H22427654   7.493   4.288   7.061  1.8003 -0.2491  0.2298
   66MOL   H22527655   7.635   4.211   7.109  0.8133  0.4815 -0.3225
   66MOL   H22627656   7.309   4.366   7.136  1.0027  1.1037 -0.3373
   66MOL   H22727657   7.185   4.560   7.227  0.5639 -0.4057 -0.8736
   66MOL   H22827658   7.225   4.645   7.446  0.9528  1.3383 -0.7429
   66MOL   H22927659   7.403   4.526   7.592 -0.8688  0.2137 -0.7007
   66MOL   H23027660   7.546   4.359   7.503  0.1264 -2.8093 -1.0953
   66MOL   H23127661   7.285   4.174   6.950  1.4833 -0.1937 -1.7059
   66MOL   H23227662   7.328   4.012   6.927 -0.0331  0.8667  0.0093
   66MOL   C23327663   7.123   4.059   6.981 -0.0391  0.6540  0.8379
   66MOL   O23427664   7.064   4.181   7.020 -0.6333 -0.2927  0.3325
   66MOL   C23527665   6.976   4.187   7.135  0.0091  0.1271 -0.1006
   66MOL   O23627666   7.029   4.150   7.259  0.1089  0.7161  0.1286
   66MOL   C23727667   7.020   4.236   7.366  0.1202  0.0684  0.9433
   66MOL   C23827668   7.129   4.239   7.456  0.7676  0.3741  0.1225
   66MOL   C23927669   7.125   4.312   7.578  0.0873  0.6181 -0.1440
   66MOL   C24027670   7.008   4.390   7.602 -0.5621 -0.4792  0.8397
   66MOL   C24127671   6.904   4.392   7.510  0.0758  0.8713  0.2750
   66MOL   C24227672   6.908   4.320   7.393  0.4079 -0.6813 -0.2323
   66MOL   C24327673   7.091   4.031   6.833 -0.1461 -0.3919 -0.6475
   66MOL   H24427674   7.077   3.981   7.043  1.4355 -1.8063 -1.0585
   66MOL   H24527675   6.885   4.128   7.122  0.8734 -1.4519  0.7742
   66MOL   H24627676   6.955   4.294   7.145 -1.9014 -0.2854  0.4625
   66MOL   H24727677   7.216   4.178   7.434 -0.1325  0.1030 -2.8378
   66MOL   H24827678   7.193   4.298   7.660 -0.6782 -1.8015  0.1064
   66MOL   H24927679   6.991   4.458   7.684 -0.2947 -0.2439  0.7005
   66MOL   H25027680   6.817   4.450   7.537  0.8350  2.5702 -0.8740
   66MOL   H25127681   6.818   4.309   7.334 -0.2760 -1.4514  0.9539
   66MOL   H25227682   7.086   4.128   6.785 -0.7150 -0.2750 -0.3509
   66MOL   H25327683   7.175   3.979   6.786  0.1549 -0.1372 -0.3952
   66MOL   C25427684   6.953   3.963   6.806 -1.2500 -0.1483  0.2860
   66MOL   O25527685   6.855   4.047   6.848 -0.4164 -0.0704 -0.2750
   66MOL   C25627686   6.734   3.997   6.902  0.4587  0.3379  0.1012
   66MOL   O25727687   6.758   3.928   7.020  0.3119  0.4540 -0.2274
   66MOL   C25827688   6.670   3.940   7.129  0.1930  0.3452  0.6773
   66MOL   C25927689   6.722   3.916   7.257 -0.4529 -0.3171  0.0269
   66MOL   C26027690   6.653   3.954   7.372  0.0391  0.2572 -0.1540
   66MOL   C26127691   6.521   4.003   7.357 -0.8620  0.7360  0.3657
   66MOL   C26227692   6.462   4.009   7.230 -0.3593  0.6852 -0.5543
   66MOL   C26327693   6.536   3.978   7.114 -0.3304 -0.7587 -0.1081
   66MOL   C26427694   6.928   3.938   6.658 -0.0025 -0.9479  0.2145
   66MOL   H26527695   6.938   3.862   6.843 -2.2356 -0.9321 -2.1703
   66MOL   H26627696   6.685   3.926   6.835 -0.6626 -0.1070  1.3679
   66MOL   H26727697   6.667   4.083   6.913  0.4396  0.3062  0.2238
   66MOL   H26827698   6.828   3.903   7.277 -0.7350  0.1231  1.9096
   66MOL   H26927699   6.693   3.949   7.473 -2.0785 -0.4902  0.6782
   66MOL   H27027700   6.465   4.032   7.445 -1.0154  0.2597  0.4265
   66MOL   H27127701   6.357   4.031   7.222 -0.1916  0.8547 -2.5888
   66MOL   H27227702   6.495   3.993   7.016  1.2267 -0.1714 -0.6790
   66MOL   H27327703   6.823   3.965   6.648  0.6340  3.0436  2.8864
   66MOL   H27427704   6.980   4.015   6.599 -0.2132 -1.6947 -0.9596
   66MOL   C27527705   6.954   3.798   6.601 -0.0102  0.1094  0.1468
   66MOL   O27627706   6.905   3.807   6.468  0.2562  0.1827  0.0593
   66MOL   C27727707   6.810   3.710   6.442 -0.1318  0.2346  0.2183
   66MOL   O27827708   6.683   3.759   6.469  0.2677 -0.6168  0.0087
   66MOL   C27927709   6.621   3.841   6.377  0.5000 -0.1697  0.0642
   66MOL   C28027710   6.695   3.930   6.292 -0.1445 -0.1188 -0.4527
   66MOL   C28127711   6.626   4.017   6.207  0.1713 -0.2602  0.5415
   66MOL   C28227712   6.485   4.008   6.192 -0.2110 -0.1527 -0.6210
   66MOL   C28327713   6.414   3.918   6.273  0.4704  0.5642 -0.7103
   66MOL   C28427714   6.480   3.836   6.364  0.2068  0.6132  1.2541
   66MOL   C28527715   7.106   3.770   6.598  0.4807 -0.5887 -0.2885
   66MOL   H28627716   6.898   3.730   6.666 -1.2915  0.2416 -0.7863
   66MOL   H28727717   6.822   3.625   6.509 -0.7376 -0.4032 -0.4687
   66MOL   H28827718   6.823   3.677   6.339  1.6575  2.5761 -0.3441
   66MOL   H28927719   6.803   3.936   6.294 -0.1124 -0.3720 -1.1985
   66MOL   H29027720   6.679   4.093   6.153  2.5129 -2.5957 -0.5119
   66MOL   H29127721   6.436   4.069   6.117  0.9942  1.0173 -0.4759
   66MOL   H29227722   6.307   3.908   6.259  0.1331  0.9462  1.4143
   66MOL   H29327723   6.429   3.770   6.433 -0.0879  2.1616  2.5304
   66MOL   H29427724   7.152   3.781   6.696  2.0457 -3.3163 -0.6797
   66MOL   H29527725   7.173   3.833   6.539  0.3239 -0.3449 -0.2072
   66MOL   C29627726   7.141   3.626   6.547  0.7359 -0.4961  0.0139
   66MOL   O29727727   7.209   3.638   6.427 -0.2363  0.6797 -0.2413
   66MOL   C29827728   7.225   3.522   6.350 -0.1448 -0.2613  1.0182
   66MOL   O29927729   7.104   3.466   6.318  0.1500  0.6666  0.5323
   66MOL   C30027730   7.018   3.521   6.219  0.0770 -0.7122 -0.4970
   66MOL   C30127731   6.910   3.448   6.168  1.1378  0.2333  0.0852
   66MOL   C30227732   6.826   3.510   6.069 -0.3528 -1.7392 -0.8680
   66MOL   C30327733   6.864   3.635   6.011 -0.7534 -0.1412  0.5221
   66MOL   C30427734   6.976   3.707   6.068 -0.1248 -1.0094  0.7229
   66MOL   C30527735   7.045   3.654   6.173  0.3250  0.2852 -0.0207
   66MOL   C30627736   7.216   3.538   6.652  0.1263 -0.6052  0.5443
   66MOL   H30727737   7.047   3.578   6.519  1.1160 -1.1892 -0.0977
   66MOL   H30827738   7.280   3.436   6.389 -0.2144  0.2080  2.1983
   66MOL   H30927739   7.274   3.554   6.258  1.1800 -1.7660  1.1733
   66MOL   H31027740   6.884   3.354   6.214 -2.0391 -0.4309 -2.8667
   66MOL   H31127741   6.743   3.448   6.040 -1.0838 -1.1627 -0.0103
   66MOL   H31227742   6.799   3.676   5.935 -0.2168 -3.4542 -1.8248
   66MOL   H31327743   7.014   3.793   6.015 -2.7084 -2.0282 -3.0267
   66MOL   H31427744   7.128   3.712   6.210  2.7662 -2.0460 -1.6092
   66MOL   H31527745   7.313   3.587   6.664 -0.6050  1.1175 -0.4376
   66MOL   H31627746   7.229   3.438   6.610 -1.8828 -1.2090  1.2920
   66MOL   C31727747   7.138   3.523   6.789 -0.1102  0.5236 -0.5072
   66MOL   O31827748   7.235   3.511   6.895 -0.0862 -0.0424  0.1760
   66MOL   C31927749   7.260   3.626   6.973  0.1742 -0.3675 -0.2412
   66MOL   O32027750   7.148   3.680   7.021 -0.4406 -0.0952  0.3932
   66MOL   C32127751   7.110   3.622   7.140  0.2590 -0.6689  0.5858
   66MOL   C32227752   7.149   3.490   7.181  0.4605 -0.1348 -0.2458
   66MOL   C32327753   7.092   3.436   7.300  0.0743  0.1213 -0.0077
   66MOL   C32427754   7.007   3.517   7.374 -0.7744 -0.0836 -0.5557
   66MOL   C32527755   6.963   3.645   7.336  0.4902  0.2128 -0.3573
   66MOL   C32627756   7.017   3.697   7.218  0.1006  0.2667 -0.3864
   66MOL   C32727757   7.039   3.406   6.793 -0.0409 -0.3757  0.1988
   66MOL   H32827758   7.075   3.606   6.823  0.4890  1.1345 -0.8912
   66MOL   H32927759   7.306   3.696   6.903 -1.0448  0.7937  0.0997
   66MOL   H33027760   7.322   3.614   7.061 -1.3626  2.1089  1.2308
   66MOL   H33127761   7.231   3.440   7.132  0.2951 -0.2344 -0.4195
   66MOL   H33227762   7.124   3.336   7.323 -1.7017 -0.2044  1.1296
   66MOL   H33327763   6.983   3.466   7.466 -0.7886  0.2391 -0.3785
   66MOL   H33427764   6.901   3.706   7.401  1.4213  1.9748 -1.0835
   66MOL   H33527765   6.990   3.794   7.181  0.1618  0.7569  0.8225
   66MOL   H33627766   6.977   3.404   6.704 -0.0370 -0.8514  0.2036
   66MOL   H33727767   7.081   3.306   6.782 -0.2196 -0.4065 -0.1731
   66MOL   C33827768   6.939   3.404   6.909 -0.3609  0.6699  0.7856
   66MOL   O33927769   6.882   3.531   6.912 -0.2212  0.3038  0.6066
   66MOL   C34027770   6.789   3.557   7.016 -0.9863  0.0519  0.3001
   66MOL   O34127771   6.667   3.489   7.010 -0.1645 -0.5287  0.1771
   66MOL   C34227772   6.571   3.539   6.932 -0.3749 -0.0949 -0.7378
   66MOL   C34327773   6.436   3.498   6.959  0.3900  0.0517  1.2669
   66MOL   C34427774   6.335   3.554   6.887  0.1657 -0.8085 -0.1338
   66MOL   C34527775   6.364   3.636   6.774 -0.4251  0.3206  0.3396
   66MOL   C34627776   6.489   3.679   6.752 -0.4526 -0.1101 -0.2345
   66MOL   C34727777   6.592   3.628   6.825  0.1298  0.6470 -0.1623
   66MOL   C34827778   6.844   3.272   6.899  0.3043 -0.2133  0.2435
   66MOL   H34927779   6.994   3.399   7.004 -0.3390  4.5371  1.0653
   66MOL   H35027780   6.765   3.663   7.030 -2.0478 -0.0479 -0.6866
   66MOL   H35127781   6.830   3.531   7.113 -1.2515 -2.2049 -0.1833
   66MOL   H35227782   6.419   3.427   7.039  0.1205 -1.1290  0.1705
   66MOL   H35327783   6.233   3.523   6.905  0.5769 -1.1088  1.7776
   66MOL   H35427784   6.275   3.677   6.728 -1.4743  0.8483  2.7487
   66MOL   H35527785   6.519   3.741   6.668  0.4722 -1.0537 -0.6195
   66MOL   H35627786   6.694   3.659   6.807 -0.1339  0.1232 -2.7540
   66MOL   H35727787   6.804   3.261   6.798 -2.2625  0.9401  1.1034
   66MOL   H35827788   6.749   3.281   6.950 -0.4785 -0.2625 -1.1852
   66MOL   C35927789   6.912   3.144   6.957  0.1280 -0.2067  0.7496
   66MOL   O36027790   6.839   3.031   6.909 -0.2596  1.1948  0.7041
   66MOL   C36127791   6.915   2.962   6.814 -0.0711  0.4271  0.2384
   66MOL   O36227792   6.939   3.046   6.702  0.1169 -0.3196 -0.3874
   66MOL   C36327793   6.989   2.992   6.586  0.3250  0.0340 -0.6990
   66MOL   C36427794   6.978   2.857   6.548 -0.7610  0.2166 -1.1532
   66MOL   C36527795   7.028   2.823   6.420 -0.0511 -0.5272  0.3457
   66MOL   C36627796   7.079   2.925   6.332  0.1027  0.1843 -0.0062
   66MOL   C36727797   7.079   3.061   6.375  0.1172  0.5918  0.1688
   66MOL   C36827798   7.038   3.094   6.505 -0.6686 -0.3301 -0.3184
   66MOL   C36927799   6.896   3.132   7.118 -0.5907 -0.0138  0.1908
   66MOL   H37027800   7.016   3.135   6.925  0.3823  1.8485  0.9316
   66MOL   H37127801   6.840   2.886   6.796  1.3523 -0.6408 -1.3358
   66MOL   H37227802   7.002   2.912   6.857 -0.5020  1.0604  1.9044
   66MOL   H37327803   6.928   2.782   6.607 -1.7118  1.4707 -0.3285
   66MOL   H37427804   7.029   2.719   6.391  0.4666 -1.2128  2.6938
   66MOL   H37527805   7.116   2.892   6.236  0.2390 -0.6027  0.3182
   66MOL   H37627806   7.110   3.134   6.302  1.2848 -0.9014 -0.8849
   66MOL   H37727807   7.041   3.200   6.529  0.5146 -0.3120 -0.5102
   66MOL   H37827808   6.800   3.167   7.156 -0.2448  0.2967  0.7951
   66MOL   H37927809   6.957   3.210   7.164  0.3623  1.5388 -3.5480
   66MOL   C38027810   6.940   2.995   7.172  1.2100  0.0072 -0.5439
   66MOL   O38127811   7.062   2.936   7.104 -0.0003 -0.3032 -0.3302
   66MOL   C38227812   7.178   2.982   7.170 -0.1706  0.2913  0.4039
   66MOL   O38327813   7.207   3.111   7.126  0.9831 -0.1505 -0.6847
   66MOL   C38427814   7.338   3.147   7.111 -0.3240 -0.2165  0.9327
   66MOL   C38527815   7.434   3.103   7.201 -0.0343  0.3929 -0.1730
   66MOL   C38627816   7.563   3.159   7.193  0.4151  0.3023  0.7527
   66MOL   C38727817   7.592   3.251   7.087 -0.6163 -0.5087  0.1122
   66MOL   C38827818   7.495   3.292   6.999 -0.0519 -0.2131 -0.0889
   66MOL   C38927819   7.367   3.241   7.010 -0.0042  0.3377  0.2391
   66MOL   C39027820   6.819   2.893   7.177  0.1447 -0.4570 -0.3033
   66MOL   H39127821   6.964   3.015   7.276 -1.7910  1.3099 -0.0518
   66MOL   H39227822   7.167   2.985   7.279  0.4134  1.8933  0.4248
   66MOL   H39327823   7.261   2.916   7.144 -1.2532  0.2815 -3.2087
   66MOL   H39427824   7.408   3.034   7.280 -0.3920  2.9252  1.9721
   66MOL   H39527825   7.645   3.134   7.259  0.4061  1.2454  1.1329
   66MOL   H39627826   7.691   3.293   7.074  0.9164 -3.0633  2.8944
   66MOL   H39727827   7.518   3.363   6.921 -0.6154  1.1771  0.9745
   66MOL   H39827828   7.284   3.284   6.956 -2.1135 -2.3096  1.2461
   66MOL   H39927829   6.807   2.849   7.077  0.6337  2.5001 -1.7008
   66MOL   H40027830   6.728   2.945   7.205  1.1725  1.9833 -1.4173
   66MOL   C40127831   6.841   2.779   7.281  0.0704 -0.5344 -0.0844
   66MOL   O40227832   6.815   2.834   7.411  0.0785 -0.0927  0.1638
   66MOL   C40327833   6.914   2.822   7.508  0.3292 -0.1299 -0.0081
   66MOL   O40427834   7.015   2.905   7.485  0.4062 -0.1539  0.0573
   66MOL   C40527835   7.128   2.896   7.561  0.5011 -0.3199 -0.3265
   66MOL   C40627836   7.228   2.991   7.543 -0.8734 -0.4466  0.5839
   66MOL   C40727837   7.343   3.000   7.630  0.3136  0.1441  0.2378
   66MOL   C40827838   7.351   2.915   7.743 -0.2596 -0.4857  0.2589
   66MOL   C40927839   7.242   2.827   7.774 -0.6353 -0.2982 -0.0033
   66MOL   C41027840   7.140   2.816   7.683  0.3644 -0.6664 -0.0057
   66MOL   C41127841   6.750   2.663   7.262 -0.6460 -0.0675 -0.0909
   66MOL   H41227842   6.941   2.736   7.286  1.2996  1.8452 -2.6981
   66MOL   H41327843   6.963   2.725   7.511 -0.6226 -0.5824  1.6326
   66MOL   H41427844   6.874   2.845   7.606  0.6407 -0.8263  0.2853
   66MOL   H41527845   7.217   3.064   7.463  2.6617 -1.7193 -1.1777
   66MOL   H41627846   7.421   3.070   7.603  1.6399 -1.4965 -0.2730
   66MOL   H41727847   7.444   2.911   7.798 -0.7054 -1.5034  0.9385
   66MOL   H41827848   7.252   2.762   7.859  0.7613  0.0191  0.0846
   66MOL   H41927849   7.065   2.743   7.709  0.7540 -1.1331 -0.1787
   66MOL   H42027850   6.648   2.692   7.237 -0.5483  0.9772  0.6982
   66MOL   H42127851   6.752   2.596   7.347 -1.7210 -0.5223 -0.4190
   66MOL   H42227852   6.782   2.593   7.184  0.4489  0.7593 -0.3958
   67MOL     C127853   4.474   7.705   6.612 -0.2234 -0.7148  0.1477
   67MOL     O227854   4.441   7.711   6.751 -1.2278  0.2505  0.1780
   67MOL     C327855   4.443   7.589   6.819  0.2622 -0.4382  0.1561
   67MOL     O427856   4.375   7.492   6.753  0.2268 -0.3612  0.3621
   67MOL     C527857   4.238   7.492   6.763  0.9216 -0.0635  0.8444
   67MOL     C627858   4.162   7.615   6.760 -0.4923 -0.3178  0.2859
   67MOL     C727859   4.020   7.614   6.760  0.2057  0.4803  0.1280
   67MOL     C827860   3.962   7.487   6.726 -0.0419  0.2394  0.7219
   67MOL     C927861   4.037   7.362   6.714  0.1883 -1.1965 -0.2971
   67MOL    C1027862   4.171   7.367   6.739  0.0685 -0.5968 -0.0858
   67MOL    C1127863   4.425   7.841   6.557 -0.2541  0.0040 -0.0521
   67MOL    H1227864   4.580   7.691   6.590 -0.3218 -0.7667 -0.2860
   67MOL    H1327865   4.544   7.552   6.839 -0.6415 -2.0859  1.7908
   67MOL    H1427866   4.391   7.595   6.915  1.6968 -0.2018  0.9350
   67MOL    H1527867   4.212   7.709   6.776  0.4537 -0.8447  0.4675
   67MOL    H1627868   3.964   7.706   6.755 -3.0449 -1.4345 -0.2496
   67MOL    H1727869   3.854   7.486   6.720 -0.0376  0.8834  0.5184
   67MOL    H1827870   3.977   7.273   6.705 -2.3435  0.1299  2.6783
   67MOL    H1927871   4.229   7.276   6.733 -2.0386 -2.0725  1.1515
   67MOL    H2027872   4.474   7.919   6.616  1.6717 -0.7842 -0.5850
   67MOL    H2127873   4.319   7.847   6.583 -0.1531  1.1113  0.1560
   67MOL    H2227874   4.420   7.625   6.561 -1.7165  0.2334  0.2086
   67MOL    C2327875   4.452   7.868   6.416 -0.3946  0.1781  0.1001
   67MOL    O2427876   4.588   7.884   6.404  0.4343  0.8434  0.7728
   67MOL    C2527877   4.645   7.838   6.283 -0.1288 -0.1005 -0.0381
   67MOL    O2627878   4.676   7.701   6.296  0.3697 -0.0671 -0.6489
   67MOL    C2727879   4.583   7.610   6.263  0.2161  0.1885 -0.3887
   67MOL    C2827880   4.568   7.498   6.345 -0.5141 -0.0582 -0.5168
   67MOL    C2927881   4.473   7.394   6.323 -0.1178  0.6601  0.2183
   67MOL    C3027882   4.397   7.406   6.203 -0.3399  0.3156  0.1926
   67MOL    C3127883   4.410   7.517   6.113 -0.2802  0.0901 -0.1658
   67MOL    C3227884   4.500   7.619   6.151  0.1924 -0.4273 -0.2135
   67MOL    C3327885   4.390   0.031   6.381 -0.4173  0.4926 -0.3186
   67MOL    H3427886   4.400   7.790   6.361 -0.2245 -0.2201  0.5061
   67MOL    H3527887   4.740   7.890   6.293 -0.1472  0.0409 -0.5831
   67MOL    H3627888   4.605   7.870   6.187  1.6888  1.1887 -0.3931
   67MOL    H3727889   4.634   7.505   6.430  2.4366  1.1174 -2.8208
   67MOL    H3827890   4.466   7.314   6.395  1.8438 -0.0896 -0.3946
   67MOL    H3927891   4.322   7.331   6.177 -1.0727  1.3594 -0.7755
   67MOL    H4027892   4.358   7.525   6.019 -1.6435 -2.5738  0.3276
   67MOL    H4127893   4.504   7.699   6.079 -1.2607 -0.2146 -0.0503
   67MOL    H4227894   4.434   0.108   6.445 -0.3309  0.7024 -0.6317
   67MOL    H4327895   4.286   0.034   6.413 -0.2839  0.5437  0.1138
   67MOL    C4427896   4.409   0.079   6.242  0.1402  0.1519 -0.1235
   67MOL    O4527897   4.354   0.214   6.221  0.1544  0.0774 -0.5559
   67MOL    C4627898   4.408   0.327   6.285  0.5915  0.5033  0.2234
   67MOL    O4727899   4.375   0.443   6.214 -0.9836 -0.3233  0.2898
   67MOL    C4827900   4.436   0.463   6.093 -0.0897  0.3310  0.3346
   67MOL    C4927901   4.414   0.588   6.034  0.3710  0.7711  0.5583
   67MOL    C5027902   4.466   0.620   5.909  0.6809  0.7339  0.2018
   67MOL    C5127903   4.562   0.531   5.856 -0.5122  0.4768 -0.3941
   67MOL    C5227904   4.600   0.413   5.926  0.0021 -0.2758  0.1262
   67MOL    C5327905   4.529   0.375   6.038  0.2761  0.5498 -0.6417
   67MOL    C5427906   4.332   7.965   6.144 -0.7773  0.3769 -0.2697
   67MOL    H5527907   4.514   0.096   6.221 -0.1164 -0.2624 -1.7584
   67MOL    H5627908   4.517   0.321   6.294  0.4976  0.6613  1.5855
   67MOL    H5727909   4.375   0.316   6.388  0.5669 -0.1891  0.1436
   67MOL    H5827910   4.337   0.656   6.069 -0.2676  0.2069  0.2726
   67MOL    H5927911   4.449   0.714   5.860  1.0628  0.4899 -0.4034
   67MOL    H6027912   4.616   0.562   5.769  0.6533  0.4843  0.3232
   67MOL    H6127913   4.685   0.364   5.881 -1.4252 -0.8898 -1.9372
   67MOL    H6227914   4.568   0.284   6.081  1.2041  1.1054 -0.2884
   67MOL    H6327915   4.345   7.858   6.161  0.0087  0.7014  1.2686
   67MOL    H6427916   4.224   0.003   6.153 -1.0787 -1.7538 -0.3826
   67MOL    C6527917   4.366   0.034   5.997 -0.2373 -0.5066 -0.2455
   67MOL    O6627918   4.493   7.951   5.976 -0.8029  0.4284 -0.5802
   67MOL    C6727919   4.565   0.029   5.880 -0.0330  0.1306 -0.3828
   67MOL    O6827920   4.676   0.104   5.921 -0.4678 -0.2988 -0.2919
   67MOL    C6927921   4.791   0.046   5.972  0.3346  0.2405  0.0297
   67MOL    C7027922   4.903   0.128   5.994 -0.2147 -0.1548 -0.1342
   67MOL    C7127923   5.020   0.072   6.033  0.3987 -0.6594 -0.1683
   67MOL    C7227924   5.034   7.909   6.047 -0.5561  0.6638  0.2788
   67MOL    C7327925   4.924   7.825   6.020 -0.0591 -0.9763 -0.1359
   67MOL    C7427926   4.800   7.883   5.996 -0.1650  0.2949 -0.1561
   67MOL    C7527927   4.261   7.954   5.897 -0.6279 -0.3968  0.2096
   67MOL    H7627928   4.358   0.143   5.995 -0.5082 -0.5386 -1.1749
   67MOL    H7727929   4.512   0.104   5.821  1.0458 -0.0023 -1.5303
   67MOL    H7827930   4.583   7.925   5.807 -0.6833 -1.1871  0.8711
   67MOL    H7927931   4.896   0.233   5.969 -1.6028 -0.6904 -2.0504
   67MOL    H8027932   5.105   0.137   6.050 -1.1016  1.0430  1.0786
   67MOL    H8127933   5.133   7.878   6.078 -1.4814 -0.5347  2.1080
   67MOL    H8227934   4.936   7.718   6.024  1.0634 -0.8022  1.2660
   67MOL    H8327935   4.714   7.819   5.984  0.1842  0.4403 -4.2147
   67MOL    H8427936   4.301   7.968   5.797 -0.1115  1.7721  0.6877
   67MOL    H8527937   4.230   7.852   5.921  0.6429 -0.2429  2.6319
   67MOL    C8627938   4.124   0.055   5.890  0.2476 -0.2037 -0.4833
   67MOL    O8727939   4.160   0.183   5.838 -0.4608  0.0999  0.1848
   67MOL    C8827940   4.125   0.290   5.929 -0.1276  0.7493  0.2446
   67MOL    O8927941   3.990   0.308   5.950 -0.4411  0.2062 -0.5131
   67MOL    C9027942   3.958   0.405   6.044  0.4756  0.8624 -0.0010
   67MOL    C9127943   3.821   0.443   6.036 -0.0928 -0.2276  0.8477
   67MOL    C9227944   3.766   0.536   6.127 -0.7651 -0.0187  0.7733
   67MOL    C9327945   3.841   0.596   6.224  0.4347  0.0487  0.0098
   67MOL    C9427946   3.976   0.552   6.230  0.0178  0.7652 -0.0798
   67MOL    C9527947   4.039   0.462   6.148 -0.2421 -0.5933  1.1761
   67MOL    C9627948   4.022   0.000   5.793  0.0819 -0.3605  0.4466
   67MOL    H9727949   4.076   0.068   5.986 -0.4502  0.1656 -0.8829
   67MOL    H9827950   4.148   0.387   5.884 -2.9286  0.9190 -0.9067
   67MOL    H9927951   4.173   0.279   6.027 -0.4320  0.6341  0.3828
   67MOL   H10027952   3.756   0.396   5.964 -2.3295  0.5054  2.3315
   67MOL   H10127953   3.666   0.575   6.115 -0.3631  1.6579  2.5651
   67MOL   H10227954   3.797   0.666   6.293  0.4899  0.5557 -0.4644
   67MOL   H10327955   4.037   0.603   6.302 -2.6751  0.7263  2.3148
   67MOL   H10427956   4.145   0.444   6.159 -0.7543 -3.5301  1.6038
   67MOL   H10527957   3.937   0.068   5.789  1.8719  1.9648  0.5382
   67MOL   H10627958   4.069   0.018   5.696 -0.2351  3.5846  0.9261
   67MOL   C10727959   3.974   7.827   5.802 -0.1839  0.1794 -0.4151
   67MOL   O10827960   3.887   7.832   5.912 -0.5419  0.3610 -0.3597
   67MOL   C10927961   3.918   7.739   6.011  0.0273  0.0984 -0.5035
   67MOL   O11027962   4.042   7.758   6.077 -0.1321  0.0748 -0.4374
   67MOL   C11127963   4.034   7.813   6.205  0.5362 -0.3543  0.1805
   67MOL   C11227964   4.114   7.749   6.304 -0.0893 -0.3630 -0.8754
   67MOL   C11327965   4.093   7.782   6.442 -0.3708  0.4970  1.1952
   67MOL   C11427966   4.006   7.883   6.478 -0.4249 -0.1904  0.7355
   67MOL   C11527967   3.922   7.944   6.381 -0.1979  0.3531 -0.3180
   67MOL   C11627968   3.935   7.912   6.245 -0.5019 -0.8973  0.4813
   67MOL   C11727969   3.874   7.785   5.695  0.6667  0.6753  0.7071
   67MOL   H11827970   4.061   7.762   5.812  1.3422  2.2425  0.0410
   67MOL   H11927971   3.919   7.635   5.977  0.2226  0.4410 -1.5922
   67MOL   H12027972   3.837   7.744   6.083 -0.4238 -3.3885 -0.6963
   67MOL   H12127973   4.173   7.663   6.278  0.6042 -0.0688 -0.2793
   67MOL   H12227974   4.145   7.743   6.529 -0.2650  2.7713  2.1944
   67MOL   H12327975   4.008   7.904   6.584  1.6079 -0.5237  0.7789
   67MOL   H12427976   3.870   0.061   6.404  0.4293  1.7263 -4.1180
   67MOL   H12527977   3.869   7.961   6.174  3.0328  2.9455 -0.3382
   67MOL   H12627978   3.907   7.810   5.595 -2.5805  1.8091 -0.1367
   67MOL   H12727979   3.786   7.847   5.711 -0.9167 -1.1539 -0.8769
   67MOL   C12827980   3.842   7.627   5.692  0.5610 -0.1221 -0.3931
   67MOL   O12927981   3.968   7.561   5.676 -0.0785  0.1655  0.2536
   67MOL   C13027982   3.970   7.437   5.734  0.3597 -0.2982 -0.0008
   67MOL   O13127983   3.908   7.345   5.641  0.4929 -0.4212 -0.1975
   67MOL   C13227984   3.893   7.208   5.681 -0.3735  0.0607 -0.1443
   67MOL   C13327985   3.813   7.125   5.605  0.1526  1.0196 -0.2386
   67MOL   C13427986   3.803   6.987   5.638 -0.8305  0.5719 -0.4255
   67MOL   C13527987   3.866   6.932   5.752  0.2702 -0.0946  0.0977
   67MOL   C13627988   3.950   7.014   5.825 -0.2642 -0.4217  0.4153
   67MOL   C13727989   3.967   7.150   5.788  0.5268  0.3645  0.3605
   67MOL   C13827990   3.746   7.592   5.578  0.7011 -0.3673 -0.4430
   67MOL   H13927991   3.799   7.606   5.789 -2.9049  0.3863 -1.7146
   67MOL   H14027992   3.920   7.431   5.830 -0.4011  1.3267 -0.2829
   67MOL   H14127993   4.074   7.406   5.741 -0.2164 -2.4344 -0.6335
   67MOL   H14227994   3.770   7.159   5.512  2.2903  1.7467 -0.9782
   67MOL   H14327995   3.736   6.919   5.588  0.5329 -1.2248  0.1321
   67MOL   H14427996   3.866   6.825   5.771  2.8353 -0.0434  0.4815
   67MOL   H14527997   3.999   6.962   5.906 -0.6602 -2.0526 -0.3806
   67MOL   H14627998   4.035   7.205   5.852 -0.1190  1.0560  0.4588
   67MOL   H14727999   3.793   7.629   5.487  0.1856  0.3102 -0.4387
   67MOL   H14828000   3.733   7.484   5.573  3.1306 -0.7044 -0.2970
   67MOL   C14928001   3.599   7.647   5.596  0.1144  0.0275  0.3963
   67MOL   O15028002   3.532   7.616   5.470  0.1511 -0.2905  0.2982
   67MOL   C15128003   3.421   7.694   5.437  0.7975 -0.0998 -0.2728
   67MOL   O15228004   3.455   7.819   5.387 -0.2212  0.4209 -0.2155
   67MOL   C15328005   3.531   7.829   5.273 -0.2104  0.2894 -0.7490
   67MOL   C15428006   3.556   7.952   5.216 -0.0924  0.2903  0.2431
   67MOL   C15528007   3.624   7.970   5.095 -0.2079  0.1046 -0.1936
   67MOL   C15628008   3.664   7.859   5.024  0.6933 -0.7137 -0.3795
   67MOL   C15728009   3.639   7.728   5.077  0.0491 -0.3972 -0.1772
   67MOL   C15828010   3.574   7.712   5.196  0.9095 -0.3508  0.5770
   67MOL   C15928011   3.527   7.576   5.712 -0.2266  0.0884  0.1374
   67MOL   H16028012   3.593   7.755   5.609 -0.8976 -0.2556  2.4400
   67MOL   H16128013   3.354   7.655   5.361  0.1465  0.5442 -0.0385
   67MOL   H16228014   3.360   7.713   5.526  1.8627 -1.0956  0.7001
   67MOL   H16328015   3.511   0.063   5.263 -1.2546  0.8417 -1.8283
   67MOL   H16428016   3.631   0.093   5.052  5.4520  2.1899  4.7042
   67MOL   H16528017   3.721   7.870   4.933  0.9565  0.4707 -0.0844
   67MOL   H16628018   3.671   7.644   5.018  0.6544 -0.3447  0.0691
   67MOL   H16728019   3.553   7.610   5.223  0.3221 -0.0849  1.1372
   67MOL   H16828020   3.578   7.482   5.735  1.6418  0.1997 -3.2272
   67MOL   H16928021   3.432   7.549   5.666 -0.3335  1.4939 -0.4821
   67MOL   C17028022   3.499   7.660   5.836  0.1321  0.5423 -0.7508
   67MOL   O17128023   3.425   7.772   5.796 -0.3162  0.0735 -0.2683
   67MOL   C17228024   3.449   7.884   5.874 -0.4159  0.4848  0.6415
   67MOL   O17328025   3.576   7.930   5.856  0.3536  0.1640  0.3397
   67MOL   C17428026   3.589   0.060   5.769 -0.4382  0.6677  0.6156
   67MOL   C17528027   3.674   0.170   5.803  0.7830  0.5566 -0.0413
   67MOL   C17628028   3.680   0.280   5.717  0.3678  0.2003 -0.0906
   67MOL   C17728029   3.616   0.277   5.595  0.5455  0.0270 -0.2436
   67MOL   C17828030   3.530   0.169   5.562  0.9267  0.9079 -0.2475
   67MOL   C17928031   3.527   0.056   5.641 -0.3838 -0.6414 -0.5122
   67MOL   C18028032   3.410   7.586   5.943 -0.1443 -0.4747  0.0523
   67MOL   H18128033   3.589   7.692   5.889 -0.0238  0.4760 -0.4488
   67MOL   H18228034   3.453   7.856   5.979  0.7718 -1.2410  0.1568
   67MOL   H18328035   3.379   7.967   5.863 -0.4515  0.6263  1.8451
   67MOL   H18428036   3.709   0.178   5.905  3.4717  2.0562 -1.0438
   67MOL   H18528037   3.731   0.370   5.747 -1.1125  1.4997 -1.3895
   67MOL   H18628038   3.617   0.362   5.528  1.1661  1.8726  2.0153
   67MOL   H18728039   3.473   0.170   5.471 -0.2193 -0.8117  0.4279
   67MOL   H18828040   3.470   7.941   5.626 -1.6150  0.1004 -0.3552
   67MOL   H18928041   3.367   7.659   6.011  2.8198  0.1860  1.2806
   67MOL   H19028042   3.331   7.541   5.884  1.6123  0.0751 -2.8205
   67MOL   C19128043   3.484   7.480   6.041 -0.0711  0.3299 -0.2515
   67MOL   O19228044   3.381   7.392   6.090  0.2712 -0.0083  0.1378
   67MOL   C19328045   3.344   7.286   6.000 -0.0479  0.5056  0.5141
   67MOL   O19428046   3.445   7.200   5.982 -0.7785  0.4665  0.3379
   67MOL   C19528047   3.426   7.082   5.913 -0.3423 -0.4544  0.4244
   67MOL   C19628048   3.539   6.992   5.913  0.4089 -0.7209  0.1751
   67MOL   C19728049   3.523   6.866   5.858 -0.2774  0.4269  0.6365
   67MOL   C19828050   3.400   6.824   5.797 -0.0508 -0.0431 -1.2337
   67MOL   C19928051   3.291   6.915   5.807 -0.8007  0.7302 -0.0025
   67MOL   C20028052   3.305   7.042   5.858 -0.1818  0.4254 -0.1716
   67MOL   C20128053   3.541   7.554   6.165 -0.1899  0.1106  0.4895
   67MOL   H20228054   3.561   7.434   5.978 -0.8429 -1.0660 -0.1706
   67MOL   H20328055   3.317   7.331   5.904  0.0058  1.4054  0.9085
   67MOL   H20428056   3.257   7.234   6.039 -1.8741 -0.6245 -4.6822
   67MOL   H20528057   3.635   7.019   5.955  0.2580  2.0244 -1.1804
   67MOL   H20628058   3.607   6.800   5.842  1.1715  2.2802  0.3029
   67MOL   H20728059   3.388   6.733   5.740  0.4958  0.5227 -2.2593
   67MOL   H20828060   3.199   6.870   5.773 -0.4519 -1.4401  1.8507
   67MOL   H20928061   3.220   7.108   5.858 -1.0756 -0.6956  0.3686
   67MOL   H21028062   3.557   7.659   6.144 -1.7762  0.8851  3.0125
   67MOL   H21128063   3.459   7.549   6.236 -2.2034  2.2432 -1.5975
   67MOL   C21228064   3.675   7.504   6.230  0.3171  0.4851  0.3403
   67MOL   O21328065   3.775   7.488   6.122  0.3234  0.1781 -0.2835
   67MOL   C21428066   3.846   7.372   6.127  0.1698  0.4092 -0.5450
   67MOL   O21528067   3.924   7.370   6.241  0.2575 -0.1166 -0.6556
   67MOL   C21628068   4.000   7.259   6.271 -0.5419 -0.1597  0.4471
   67MOL   C21728069   3.992   7.141   6.194  0.5219 -0.2182  0.3159
   67MOL   C21828070   4.069   7.034   6.229  0.3924  0.3780 -0.3017
   67MOL   C21928071   4.151   7.037   6.344 -0.3347  0.2611 -0.4987
   67MOL   C22028072   4.153   7.152   6.430  0.1143  0.7364 -0.0908
   67MOL   C22128073   4.079   7.261   6.389  0.0111  0.2240 -0.2966
   67MOL   C22228074   3.723   7.601   6.336 -0.9252 -0.3760 -0.0717
   67MOL   H22328075   3.660   7.406   6.275 -0.5729  0.1250 -0.7325
   67MOL   H22428076   3.902   7.356   6.035  0.3438 -2.2296 -0.0304
   67MOL   H22528077   3.778   7.287   6.118 -0.1431  0.7179 -1.1264
   67MOL   H22628078   3.929   7.134   6.106 -0.9010  4.4157  0.8730
   67MOL   H22728079   4.055   6.942   6.175 -1.8444  0.0243  0.8288
   67MOL   H22828080   4.201   6.951   6.386  0.7079  1.0845 -0.0460
   67MOL   H22928081   4.215   7.142   6.519 -0.8966 -0.0895  0.5275
   67MOL   H23028082   4.090   7.356   6.438 -0.3154  0.2629 -0.3024
   67MOL   H23128083   3.827   7.588   6.366 -0.5520  2.2099 -0.1237
   67MOL   H23228084   3.731   7.702   6.296  1.9802 -0.4658  0.1720
   67MOL   C23328085   3.647   7.612   6.470 -0.7260  0.8555  0.2204
   67MOL   O23428086   3.655   7.488   6.538 -0.0014  0.3176 -0.0899
   67MOL   C23528087   3.542   7.443   6.607 -0.6448 -0.6586 -0.1901
   67MOL   O23628088   3.447   7.389   6.518  0.0616 -0.4621 -0.1173
   67MOL   C23728089   3.488   7.271   6.456  0.1764  0.6701  0.3680
   67MOL   C23828090   3.408   7.212   6.357 -0.1169  0.2627  0.1596
   67MOL   C23928091   3.450   7.103   6.278 -0.2892 -0.0085 -0.5829
   67MOL   C24028092   3.569   7.035   6.316 -0.2697 -0.4604 -0.4843
   67MOL   C24128093   3.648   7.085   6.422  0.3808 -0.1072 -0.9196
   67MOL   C24228094   3.609   7.202   6.487  0.4661 -0.0606  0.1376
   67MOL   C24328095   3.709   7.736   6.552  0.0630  0.5784  0.2678
   67MOL   H24428096   3.542   7.635   6.451 -0.8260  0.1620 -0.0763
   67MOL   H24528097   3.504   7.529   6.663  0.4729 -1.2322  1.4758
   67MOL   H24628098   3.561   7.365   6.680  0.9902  0.5571  0.7341
   67MOL   H24728099   3.325   7.273   6.323 -1.2853 -0.5360  1.5233
   67MOL   H24828100   3.391   7.057   6.200 -0.4314 -2.5215  0.9694
   67MOL   H24928101   3.584   6.953   6.247 -0.8090 -0.4742 -0.5903
   67MOL   H25028102   3.740   7.036   6.451 -0.6781 -1.5110  0.0764
   67MOL   H25128103   3.671   7.235   6.570  0.4791  2.0317 -0.6793
   67MOL   H25228104   3.813   7.720   6.582  0.0879 -4.5497 -1.9487
   67MOL   H25328105   3.711   7.821   6.484 -0.3699  1.2997  1.1467
   67MOL   C25428106   3.632   7.770   6.678  0.0210  0.8510 -0.0361
   67MOL   O25528107   3.661   7.662   6.771 -0.1498 -0.9480 -0.0079
   67MOL   C25628108   3.576   7.643   6.878 -0.7069  0.4510 -0.6246
   67MOL   O25728109   3.638   7.687   6.996 -0.1085 -0.8434 -0.1802
   67MOL   C25828110   3.698   7.597   7.082 -1.0060 -0.1068 -0.2801
   67MOL   C25928111   3.702   7.622   7.221  0.3032 -0.0197 -0.8419
   67MOL   C26028112   3.763   7.534   7.312  0.5316 -0.2662  0.3954
   67MOL   C26128113   3.820   7.415   7.267 -0.1201  0.5572 -0.2258
   67MOL   C26228114   3.817   7.388   7.130  0.3976  0.1495 -0.1298
   67MOL   C26328115   3.760   7.475   7.037 -0.1745 -0.4281  0.6192
   67MOL   C26428116   3.676   7.904   6.737  0.6587 -0.6681 -0.2324
   67MOL   H26528117   3.526   7.773   6.652 -0.2465 -0.6772  0.8062
   67MOL   H26628118   3.556   7.535   6.876  1.3472 -0.0049  1.0040
   67MOL   H26728119   3.482   7.696   6.872  0.3442  2.0525 -3.4944
   67MOL   H26828120   3.646   7.706   7.259 -0.9689 -0.6491 -1.2985
   67MOL   H26928121   3.766   7.566   7.416  1.6258 -1.0231  0.5973
   67MOL   H27028122   3.866   7.348   7.339  0.7290 -2.0592 -3.0927
   67MOL   H27128123   3.852   7.293   7.093 -1.3374 -0.9806  1.0476
   67MOL   H27228124   3.747   7.452   6.932 -1.1996  0.0726  0.6325
   67MOL   H27328125   3.640   7.916   6.840  1.3555 -0.1570 -0.0426
   67MOL   H27428126   3.784   7.898   6.753  0.5617 -0.0243  0.7133
   67MOL   C27528127   3.625   0.056   6.664 -0.7056 -0.3700  0.1474
   67MOL   O27628128   3.488   0.073   6.693 -0.8256 -0.0900  0.4926
   67MOL   C27728129   3.395   0.117   6.594  0.4228  0.2116 -0.5852
   67MOL   O27828130   3.390   0.025   6.489  0.3409 -0.3881  0.3249
   67MOL   C27928131   3.328   7.880   6.520  0.1305  1.2346  0.4207
   67MOL   C28028132   3.261   7.844   6.642  0.1316 -0.1474 -0.7643
   67MOL   C28128133   3.198   7.720   6.660 -0.6983 -0.0624 -0.4131
   67MOL   C28228134   3.202   7.624   6.558  0.4007  0.4507  0.1764
   67MOL   C28328135   3.272   7.651   6.440 -0.0663 -0.6068  0.1321
   67MOL   C28428136   3.331   7.776   6.422 -0.1539 -0.3245 -0.2472
   67MOL   C28528137   3.694   0.186   6.722  0.2647  0.6452  0.6064
   67MOL   H28628138   3.630   0.054   6.555 -0.2116 -0.6422  0.1726
   67MOL   H28728139   3.438   0.211   6.558  1.2397 -1.4954 -4.3471
   67MOL   H28828140   3.299   0.132   6.643  0.2880 -1.7916 -0.2068
   67MOL   H28928141   3.251   7.910   6.728 -0.9633 -0.6770 -0.4823
   67MOL   H29028142   3.146   7.702   6.753 -1.8352 -0.3369 -1.0875
   67MOL   H29128143   3.157   7.527   6.575  0.9100  0.0760 -0.5797
   67MOL   H29228144   3.293   7.562   6.383  0.5843 -0.4805  0.1793
   67MOL   H29328145   3.396   7.795   6.338 -0.9195 -1.9991 -1.2428
   67MOL   H29428146   3.699   0.172   6.830  3.1147 -0.3202  0.3919
   67MOL   H29528147   3.626   0.271   6.710  0.9453  1.0114 -0.7795
   67MOL   C29628148   3.836   0.214   6.670  0.8516  0.3797  0.3441
   67MOL   O29728149   3.839   0.263   6.537  0.4031 -0.0088  0.1519
   67MOL   C29828150   3.806   0.389   6.505 -0.0746 -0.2608  0.3513
   67MOL   O29928151   3.676   0.425   6.532  0.9542 -0.1777  0.2575
   67MOL   C30028152   3.582   0.398   6.432 -0.5502 -0.4142  0.2804
   67MOL   C30128153   3.471   0.482   6.423 -0.2215  1.6058  0.0136
   67MOL   C30228154   3.383   0.469   6.316  0.1026 -0.2582 -0.6632
   67MOL   C30328155   3.398   0.367   6.223 -0.2814 -0.5730 -0.2839
   67MOL   C30428156   3.510   0.282   6.231  0.7558 -0.2577  0.2386
   67MOL   C30528157   3.600   0.296   6.335  0.2107  0.3681  0.3732
   67MOL   C30628158   3.926   0.308   6.758  0.3309  0.2387  0.5368
   67MOL   H30728159   3.888   0.119   6.663 -1.6619 -0.9738 -0.9490
   67MOL   H30828160   3.818   0.398   6.397  0.5762 -0.3525  0.4168
   67MOL   H30928161   3.886   0.457   6.533  0.7736 -1.3938  0.7020
   67MOL   H31028162   3.454   0.545   6.508  0.4377  0.0423  1.3347
   67MOL   H31128163   3.299   0.537   6.313  1.1428  1.1032  0.2467
   67MOL   H31228164   3.324   0.365   6.145 -0.5886 -0.1364 -0.0074
   67MOL   H31328165   3.517   0.211   6.149 -1.8831  0.9852 -1.1364
   67MOL   H31428166   3.680   0.224   6.322 -1.2879 -0.9586 -2.0021
   67MOL   H31528167   3.871   0.395   6.793  2.2281  1.4218  0.6490
   67MOL   H31628168   4.006   0.342   6.693  0.1021 -1.2014 -0.5214
   67MOL   C31728169   3.991   0.242   6.879 -0.3010  0.4705  0.6048
   67MOL   O31828170   4.044   0.332   6.970 -0.3783 -0.7876  0.8756
   67MOL   C31928171   3.974   0.364   7.079  0.2080 -0.2184 -1.1007
   67MOL   O32028172   3.850   0.418   7.056 -0.0295 -0.0617  0.2807
   67MOL   C32128173   3.766   0.439   7.164  0.0124  0.1668 -0.2536
   67MOL   C32228174   3.639   0.492   7.131  0.4921 -0.3471 -0.3427
   67MOL   C32328175   3.544   0.516   7.233 -0.1651 -1.0651 -0.2836
   67MOL   C32428176   3.572   0.482   7.367 -0.2653 -0.3372 -0.3534
   67MOL   C32528177   3.704   0.438   7.403 -0.0032 -0.7501  0.2139
   67MOL   C32628178   3.794   0.408   7.301  0.5123  0.0383 -0.6317
   67MOL   C32728179   4.118   0.167   6.831 -0.6417  1.0637 -0.9592
   67MOL   H32828180   3.921   0.174   6.928  0.1982 -0.6507 -0.2049
   67MOL   H32928181   4.027   0.432   7.146  0.8299 -0.2269 -1.5869
   67MOL   H33028182   3.961   0.271   7.135 -0.5881 -0.1279 -1.1318
   67MOL   H33128183   3.599   0.522   7.036  1.0061  0.1360 -0.4106
   67MOL   H33228184   3.452   0.562   7.203  1.1977  2.7483  1.0976
   67MOL   H33328185   3.506   0.513   7.446  0.3047 -1.3225  0.5175
   67MOL   H33428186   3.728   0.425   7.508  2.7049  1.9634 -0.0104
   67MOL   H33528187   3.892   0.370   7.326  0.0615 -0.6367  0.1140
   67MOL   H33628188   4.089   0.108   6.744  0.2155 -1.9245  0.7400
   67MOL   H33728189   4.187   0.240   6.788  1.0491 -0.1580 -0.3594
   67MOL   C33828190   4.172   0.070   6.937  0.2452 -0.1525 -0.4172
   67MOL   O33928191   4.088   7.933   6.928 -0.7537 -0.1185  0.0712
   67MOL   C34028192   4.091   7.848   7.039  0.1869 -0.6491  0.1575
   67MOL   O34128193   4.065   7.911   7.159  0.3140 -0.7367 -0.2432
   67MOL   C34228194   3.936   7.953   7.190 -0.2079 -0.5180  0.3319
   67MOL   C34328195   3.914   0.045   7.311  0.3267  0.4632  0.4072
   67MOL   C34428196   3.788   0.077   7.351 -0.7330 -0.3829 -0.1737
   67MOL   C34528197   3.681   0.054   7.274  0.5954 -0.4103  0.5570
   67MOL   C34628198   3.697   7.953   7.156  0.2554  0.3871 -0.0511
   67MOL   C34728199   3.828   7.918   7.113 -0.6538 -0.5090  0.3285
   67MOL   C34828200   4.310   0.020   6.890 -0.4699  0.3495 -0.3419
   67MOL   H34928201   4.166   0.117   7.035  1.4722  0.8845 -0.8381
   67MOL   H35028202   4.186   7.796   7.052  1.1165  1.2119  1.0018
   67MOL   H35128203   4.017   7.773   7.012  2.4154 -3.2382  0.9308
   67MOL   H35228204   3.992   0.064   7.382 -0.1755 -0.1688  1.1312
   67MOL   H35328205   3.766   0.126   7.444  0.4744 -0.6571  0.2767
   67MOL   H35428206   3.581   0.089   7.295  0.4260 -0.3642 -0.3008
   67MOL   H35528207   3.615   7.912   7.099  0.6678 -1.1753  0.4621
   67MOL   H35628208   3.833   7.857   7.024  2.1790  1.2359 -0.7759
   67MOL   H35728209   4.318   0.000   6.783  0.0235  0.5703 -0.3478
   67MOL   H35828210   4.321   7.896   6.933  1.9233  0.4618 -0.5875
   67MOL   C35928211   4.432   0.090   6.949 -0.1028 -0.5295 -0.5239
   67MOL   O36028212   4.437   0.212   6.882  0.1779  0.8473  0.4211
   67MOL   C36128213   4.423   0.323   6.956  0.5026  0.2530  0.1156
   67MOL   O36228214   4.520   0.334   7.055  0.5665 -0.1704 -0.1905
   67MOL   C36328215   4.637   0.400   7.019 -0.0106 -0.0831 -0.1517
   67MOL   C36428216   4.704   0.370   6.897  0.9297  0.2158  1.0167
   67MOL   C36528217   4.836   0.417   6.871  0.7262 -0.3940 -0.8113
   67MOL   C36628218   4.902   0.493   6.969  0.4173  0.3485  0.2589
   67MOL   C36728219   4.837   0.531   7.087 -0.1768 -0.1539 -0.2254
   67MOL   C36828220   4.712   0.478   7.109  0.4411  0.4587  0.1079
   67MOL   C36928221   4.568   0.012   6.921 -0.4033  0.5824 -0.6815
   67MOL   H37028222   4.421   0.103   7.057  2.4524 -1.3007 -0.1118
   67MOL   H37128223   4.330   0.318   7.012 -0.4151 -1.6392 -1.5633
   67MOL   H37228224   4.424   0.408   6.887 -0.0122 -0.4581 -0.7673
   67MOL   H37328225   4.659   0.306   6.823  2.7787 -1.4917  1.3083
   67MOL   H37428226   4.894   0.396   6.782  2.4386  2.5349 -0.4334
   67MOL   H37528227   5.002   0.529   6.948 -0.2966  0.9851 -2.1828
   67MOL   H37628228   4.887   0.599   7.155 -2.8417  0.1857  1.4470
   67MOL   H37728229   4.656   0.499   7.199  0.8829 -0.5375  0.6210
   67MOL   H37828230   4.635   0.098   6.907 -0.4820  0.6692 -0.5328
   67MOL   H37928231   4.558   7.938   6.825  1.8713  0.5434 -0.9264
   67MOL   C38028232   4.623   7.893   7.029  0.1807 -0.8495  0.0871
   67MOL   O38128233   4.667   7.973   7.135 -0.0941  0.0213 -0.7502
   67MOL   C38228234   4.621   7.953   7.264 -0.3986  0.3763 -0.6982
   67MOL   O38328235   4.689   7.849   7.329 -0.4981 -0.1576  0.2161
   67MOL   C38428236   4.666   7.831   7.465 -0.3649 -0.3579  0.0128
   67MOL   C38528237   4.744   7.735   7.532  0.0853  0.5617  0.6635
   67MOL   C38628238   4.732   7.706   7.664  0.6852  0.1429  0.1772
   67MOL   C38728239   4.654   7.787   7.742  0.3312  0.4706  0.1817
   67MOL   C38828240   4.587   7.895   7.681 -0.7514 -0.3222 -0.5325
   67MOL   C38928241   4.589   7.917   7.543 -0.1919  0.3513  0.3643
   67MOL   C39028242   4.737   7.800   6.973  0.3862  0.4954 -0.2862
   67MOL   H39128243   4.544   7.833   7.074 -0.5876 -0.5729 -0.8853
   67MOL   H39228244   4.639   0.073   7.314  0.8641 -0.4586  0.4953
   67MOL   H39328245   4.516   7.924   7.260  0.0871 -1.4625 -0.9120
   67MOL   H39428246   4.796   7.666   7.467 -0.6794  1.9038 -1.4422
   67MOL   H39528247   4.776   7.619   7.712  0.5648  0.3121  0.6017
   67MOL   H39628248   4.637   7.762   7.845 -2.5221 -2.4069 -0.9049
   67MOL   H39728249   4.512   7.937   7.747 -0.4320  2.5456 -1.9402
   67MOL   H39828250   4.532   0.020   7.496  0.4604  0.3866 -0.3834
   67MOL   H39928251   4.827   7.861   6.961  0.4387  0.7979  1.5149
   67MOL   H40028252   4.703   7.761   6.877  1.0640 -2.9330  0.8194
   67MOL   C40128253   4.773   7.689   7.061 -0.4231 -0.1299 -0.6842
   67MOL   O40228254   4.669   7.593   7.047 -0.1876  0.1126  0.1795
   67MOL   C40328255   4.666   7.487   7.150 -0.3073 -0.4209 -0.6649
   67MOL   O40428256   4.550   7.413   7.139 -0.0194 -0.0919  0.8561
   67MOL   C40528257   4.430   7.476   7.161 -0.2589  0.3168  0.4232
   67MOL   C40628258   4.319   7.401   7.118 -0.2208 -0.4803  0.2142
   67MOL   C40728259   4.191   7.444   7.147  0.3107 -0.5233 -0.1419
   67MOL   C40828260   4.170   7.565   7.211  0.1575 -0.8109  0.3496
   67MOL   C40928261   4.278   7.647   7.248  0.0043 -0.8510 -0.1354
   67MOL   C41028262   4.410   7.608   7.218  0.3615  0.8091 -0.2092
   67MOL   C41128263   4.907   7.631   7.023  0.2595  0.3500 -0.5618
   67MOL   H41228264   4.773   7.715   7.167  1.3754 -2.7930  0.0281
   67MOL   H41328265   4.667   7.536   7.247 -0.8726 -1.0486 -0.3322
   67MOL   H41428266   4.747   7.416   7.135  1.0942  1.0028  0.0348
   67MOL   H41528267   4.331   7.308   7.066  1.2345 -0.9404  1.3442
   67MOL   H41628268   4.103   7.389   7.117 -0.2285  0.5376 -0.5551
   67MOL   H41728269   4.069   7.595   7.233 -0.4770  0.3265 -3.7156
   67MOL   H41828270   4.257   7.742   7.295 -1.7452 -1.4352  0.3261
   67MOL   H41928271   4.491   7.674   7.244  0.7759  0.3825 -0.4000
   67MOL   H42028272   4.918   7.618   6.916 -0.1250 -1.0560 -0.4370
   67MOL   H42128273   4.922   7.539   7.080 -1.1136  1.1430  1.1640
   67MOL   H42228274   4.985   7.696   7.062  0.1250  0.7853 -1.0226
   68MOL     C128275   2.851   1.485   6.092 -0.6323  0.5002  0.0861
   68MOL     O228276   2.717   1.446   6.095 -0.4283 -0.1885 -1.1806
   68MOL     C328277   2.643   1.454   5.978  0.2747  0.3000  0.0014
   68MOL     O428278   2.632   1.595   5.942 -0.1769  0.2647  0.5418
   68MOL     C528279   2.555   1.687   6.014  0.5164  0.1778 -0.0416
   68MOL     C628280   2.483   1.656   6.133 -0.1603  0.3573  0.0288
   68MOL     C728281   2.403   1.753   6.203  0.1709  0.4817  0.0940
   68MOL     C828282   2.396   1.889   6.162  0.8969 -0.5393  0.6454
   68MOL     C928283   2.474   1.927   6.052 -0.9015 -0.0752  0.2923
   68MOL    C1028284   2.550   1.825   5.980  0.1204 -0.7156  0.4691
   68MOL    C1128285   2.929   1.449   6.218  0.6890 -0.0629  0.1305
   68MOL    H1228286   2.899   1.417   6.021  0.2096  0.8835  0.2833
   68MOL    H1328287   2.703   1.412   5.898  0.3805 -1.2470  0.8713
   68MOL    H1428288   2.548   1.401   5.977  0.3707  0.0995 -2.8868
   68MOL    H1528289   2.489   1.556   6.175  1.3708  1.1391  1.7548
   68MOL    H1628290   2.363   1.713   6.295  0.9899 -0.4185  0.0724
   68MOL    H1728291   2.334   1.962   6.212  0.6203  0.4199 -1.0713
   68MOL    H1828292   2.462   2.030   6.022  0.1628  0.4212  1.5273
   68MOL    H1928293   2.608   1.853   5.894  0.8881  0.5321  1.3719
   68MOL    H2028294   3.012   1.517   6.198  0.1892  0.1036 -1.5008
   68MOL    H2128295   2.961   1.345   6.225  1.4276 -0.0283 -2.0714
   68MOL    H2228296   2.852   1.590   6.064 -0.9171  0.2578 -0.8926
   68MOL    C2328297   2.860   1.510   6.338 -0.1534  0.0706 -0.1867
   68MOL    O2428298   2.913   1.640   6.356 -0.1826 -0.0751  0.4065
   68MOL    C2528299   2.824   1.750   6.320  0.2486  0.0958  0.0262
   68MOL    O2628300   2.743   1.779   6.424  0.4523 -0.5911 -0.5119
   68MOL    C2728301   2.799   1.843   6.538  1.0342  0.1844  0.0951
   68MOL    C2828302   2.938   1.868   6.547 -0.4328  0.0624  0.1191
   68MOL    C2928303   2.995   1.917   6.667 -0.1046 -0.1823 -0.6076
   68MOL    C3028304   2.906   1.950   6.771  0.1541  0.3187  0.6865
   68MOL    C3128305   2.765   1.935   6.759 -0.4847 -0.1453 -0.2364
   68MOL    C3228306   2.713   1.875   6.646 -0.1268 -0.4403 -0.8646
   68MOL    C3328307   2.910   1.432   6.466 -0.0890 -0.3926  0.5170
   68MOL    H3428308   2.751   1.497   6.336 -0.1381 -0.1452  0.4365
   68MOL    H3528309   2.763   1.722   6.234  1.4772 -0.5611 -0.6566
   68MOL    H3628310   2.889   1.831   6.287  0.0029  0.5399  0.6331
   68MOL    H3728311   3.013   1.835   6.477  0.6706  1.5935  0.5583
   68MOL    H3828312   3.101   1.925   6.686 -0.3464 -2.7228  2.1649
   68MOL    H3928313   2.949   1.981   6.865  0.9880  1.1054  0.0542
   68MOL    H4028314   2.705   1.956   6.847 -2.0586 -1.6795 -0.9146
   68MOL    H4128315   2.606   1.870   6.634 -0.0047 -1.6139 -1.5971
   68MOL    H4228316   3.018   1.443   6.452 -0.0544 -0.0125  1.0624
   68MOL    H4328317   2.898   1.325   6.449  0.1938 -0.1275 -1.4436
   68MOL    C4428318   2.859   1.479   6.599  0.0158 -0.3889  0.4816
   68MOL    O4528319   2.925   1.398   6.704 -0.0169 -0.1787  0.2697
   68MOL    C4628320   3.060   1.421   6.724 -0.3748  0.0812 -0.3487
   68MOL    O4728321   3.136   1.333   6.647  0.1890 -0.1943 -0.1898
   68MOL    C4828322   3.267   1.316   6.688 -0.1774  0.4699  0.5823
   68MOL    C4928323   3.330   1.202   6.642 -0.6975  0.6409  0.5130
   68MOL    C5028324   3.466   1.177   6.678  0.3451  0.7470  0.6081
   68MOL    C5128325   3.532   1.246   6.778 -0.1459  0.2572  0.0667
   68MOL    C5228326   3.470   1.355   6.830  0.3503 -0.2014  0.2137
   68MOL    C5328327   3.337   1.398   6.781 -0.5705  0.3829  0.4491
   68MOL    C5428328   2.711   1.453   6.621  0.6517 -0.7403 -0.0765
   68MOL    H5528329   2.878   1.586   6.605 -1.2593 -0.1312  0.0103
   68MOL    H5628330   3.086   1.405   6.828  0.5197  0.5375 -0.4970
   68MOL    H5728331   3.083   1.526   6.701  1.4786 -0.5884 -1.6703
   68MOL    H5828332   3.282   1.137   6.571  0.8518  0.7410 -0.6650
   68MOL    H5928333   3.512   1.093   6.629  0.3482  1.6902 -1.0380
   68MOL    H6028334   3.635   1.217   6.796 -0.7583 -2.2791 -0.3561
   68MOL    H6128335   3.529   1.421   6.892 -0.1891  1.9979 -1.5512
   68MOL    H6228336   3.293   1.489   6.818  0.8511  0.9731  0.7011
   68MOL    H6328337   2.661   1.502   6.537  2.0887 -1.3987 -1.3491
   68MOL    H6428338   2.674   1.351   6.610 -0.6916 -0.2016 -0.6352
   68MOL    C6528339   2.650   1.521   6.748 -0.2825  0.1663  0.0528
   68MOL    O6628340   2.509   1.496   6.753  0.2266 -0.1707 -0.7406
   68MOL    C6728341   2.428   1.586   6.686  0.3012  0.5783 -0.5273
   68MOL    O6828342   2.431   1.716   6.747 -0.1986 -0.8466 -0.7695
   68MOL    C6928343   2.345   1.805   6.689 -0.6133 -0.4447 -0.1551
   68MOL    C7028344   2.306   1.793   6.551  0.5677 -0.2436 -0.0107
   68MOL    C7128345   2.215   1.895   6.502 -0.1407  0.0335  0.2579
   68MOL    C7228346   2.178   2.008   6.579 -0.1777  1.1173  0.1837
   68MOL    C7328347   2.229   2.026   6.703  0.2300 -0.9682  0.8576
   68MOL    C7428348   2.305   1.919   6.765 -0.1947 -0.5732 -0.3808
   68MOL    C7528349   2.721   1.476   6.882 -0.0757 -0.1725 -0.3152
   68MOL    H7628350   2.680   1.625   6.735  2.4771 -0.4137  1.3154
   68MOL    H7728351   2.326   1.546   6.682  0.2123  0.8239 -0.7080
   68MOL    H7828352   2.462   1.596   6.583  0.1119  0.3885 -0.6091
   68MOL    H7928353   2.312   1.700   6.496  0.3819  0.3990 -1.1265
   68MOL    H8028354   2.157   1.893   6.410  1.0306  1.2358 -0.5119
   68MOL    H8128355   2.102   2.069   6.532  0.5559  0.8452 -1.4087
   68MOL    H8228356   2.201   2.120   6.748  1.8112  0.8768 -1.8478
   68MOL    H8328357   2.332   1.936   6.868 -0.8569 -2.2150  0.0847
   68MOL    H8428358   2.735   1.368   6.886  0.0226 -0.1322  0.7881
   68MOL    H8528359   2.817   1.526   6.876 -0.5203  0.6429 -0.6652
   68MOL    C8628360   2.639   1.537   7.005  0.1909 -0.0061 -0.5836
   68MOL    O8728361   2.720   1.493   7.113 -0.2083  0.0906  0.8113
   68MOL    C8828362   2.679   1.377   7.171  0.2839 -0.6537 -0.0818
   68MOL    O8928363   2.560   1.391   7.242  0.2208  0.5246  0.1951
   68MOL    C9028364   2.559   1.451   7.360 -0.4552  0.1626  0.9573
   68MOL    C9128365   2.666   1.528   7.409 -0.4972  0.7218  0.3479
   68MOL    C9228366   2.656   1.586   7.535 -0.0691  0.5352  0.8387
   68MOL    C9328367   2.537   1.585   7.607  0.0650 -0.5158  0.0453
   68MOL    C9428368   2.431   1.506   7.553 -0.3491  0.0061 -0.2262
   68MOL    C9528369   2.442   1.439   7.431 -0.2784 -0.0732  0.3777
   68MOL    C9628370   2.615   1.686   7.019 -0.2354 -0.1311 -0.1394
   68MOL    H9728371   2.547   1.480   7.001  0.4662 -0.6206  1.1110
   68MOL    H9828372   2.759   1.344   7.236 -0.1518  0.2170  0.9180
   68MOL    H9928373   2.666   1.290   7.106 -0.5591 -0.4920 -0.1333
   68MOL   H10028374   2.751   1.537   7.344  0.3289  1.0839  1.4595
   68MOL   H10128375   2.733   1.642   7.587 -0.0958 -0.0591  1.5214
   68MOL   H10228376   2.535   1.634   7.703 -1.9625  1.4896 -0.9813
   68MOL   H10328377   2.334   1.509   7.600  0.3833  2.5725  1.1743
   68MOL   H10428378   2.347   1.399   7.400  0.2772 -1.2833  0.1947
   68MOL   H10528379   2.710   1.738   7.033 -1.0379  1.2040  0.5003
   68MOL   H10628380   2.582   1.708   6.917 -2.0096 -1.2577  0.1663
   68MOL   C10728381   2.502   1.731   7.112 -1.1874  0.2776  0.0356
   68MOL   O10828382   2.511   1.877   7.112  0.2282  0.4744  0.2002
   68MOL   C10928383   2.554   1.915   7.244 -0.7407 -0.0474  0.0726
   68MOL   O11028384   2.679   1.857   7.275 -0.2718  0.0035 -0.0537
   68MOL   C11128385   2.797   1.921   7.222  0.3954 -0.7910 -1.1523
   68MOL   C11228386   2.909   1.851   7.257 -0.0379  0.3896  0.1661
   68MOL   C11328387   3.034   1.902   7.219 -0.1603 -0.6403 -0.9619
   68MOL   C11428388   3.035   2.018   7.135  0.1095  0.3698 -0.4657
   68MOL   C11528389   2.919   2.090   7.101  0.0997  0.0775  0.3435
   68MOL   C11628390   2.799   2.036   7.138  0.6032  0.0629  0.4347
   68MOL   C11728391   2.366   1.681   7.066  0.5320 -0.2175  0.2829
   68MOL   H11828392   2.529   1.683   7.206  0.1706  1.4942  0.2844
   68MOL   H11928393   2.485   1.881   7.322  0.7512  0.2107  1.5394
   68MOL   H12028394   2.568   2.023   7.250  1.4980 -0.3944  1.5430
   68MOL   H12128395   2.893   1.771   7.328 -0.4874  1.3927  1.2137
   68MOL   H12228396   3.131   1.858   7.236  0.2091 -0.5351 -2.7558
   68MOL   H12328397   3.134   2.054   7.111  0.2771  0.1046 -0.1822
   68MOL   H12428398   2.929   2.179   7.040  0.9081  0.3856  0.9113
   68MOL   H12528399   2.703   2.067   7.100  0.2929 -0.6023  0.6650
   68MOL   H12628400   2.365   1.575   7.039 -0.9324 -0.2451  0.3922
   68MOL   H12728401   2.338   1.725   6.970 -3.6984 -1.0574  0.9972
   68MOL   C12828402   2.253   1.705   7.174  0.1301  0.2423  0.3283
   68MOL   O12928403   2.145   1.614   7.155 -0.3835 -0.1122  0.1388
   68MOL   C13028404   2.170   1.488   7.219 -1.0158 -0.1099  0.0057
   68MOL   O13128405   2.139   1.498   7.356 -0.0487  0.5101  0.4835
   68MOL   C13228406   2.010   1.537   7.400  1.1657  0.3185 -0.5718
   68MOL   C13328407   2.006   1.555   7.538  0.2973  0.2019  0.3332
   68MOL   C13428408   1.885   1.592   7.604  0.4295 -0.4823 -0.7686
   68MOL   C13528409   1.765   1.596   7.528 -0.0501  0.3665  0.3223
   68MOL   C13628410   1.771   1.561   7.389  0.1442 -0.5885 -0.6047
   68MOL   C13728411   1.892   1.538   7.323  0.4371 -0.4972 -0.1820
   68MOL   C13828412   2.197   1.839   7.168  0.1014 -0.2221 -0.0094
   68MOL   H13928413   2.296   1.686   7.273  0.1930  1.1918  0.4890
   68MOL   H14028414   2.276   1.465   7.206 -1.0895 -0.5057  0.1243
   68MOL   H14128415   2.121   1.401   7.178 -1.5018 -0.3146  1.0091
   68MOL   H14228416   2.099   1.554   7.593 -0.3941 -1.1055  1.5101
   68MOL   H14328417   1.888   1.614   7.710  1.6458 -1.5093 -0.5794
   68MOL   H14428418   1.669   1.616   7.573 -0.1984  4.9642 -1.7131
   68MOL   H14528419   1.683   1.572   7.327 -0.0902  0.2125 -0.1387
   68MOL   H14628420   1.895   1.516   7.217  1.5238 -1.5133  0.0475
   68MOL   H14728421   2.279   1.907   7.142  0.8445 -1.7822 -1.9086
   68MOL   H14828422   2.135   1.839   7.079  1.9514 -2.6904 -1.3876
   68MOL   C14928423   2.116   1.877   7.289 -0.0283 -0.1539  0.2758
   68MOL   O15028424   2.200   1.923   7.397  0.0705  0.2061  0.6906
   68MOL   C15128425   2.188   1.845   7.508 -0.2387 -0.2863  0.0005
   68MOL   O15228426   2.068   1.870   7.578 -0.2897 -0.0791  0.6433
   68MOL   C15328427   2.060   1.985   7.659 -1.3481  0.6464  0.2027
   68MOL   C15428428   1.944   2.003   7.731  0.4453 -0.1283  0.6772
   68MOL   C15528429   1.923   2.123   7.807 -0.2268 -0.0809 -0.4840
   68MOL   C15628430   2.006   2.238   7.791 -0.5389  0.4628 -0.4291
   68MOL   C15728431   2.128   2.216   7.716 -0.9550 -0.3405 -0.0529
   68MOL   C15828432   2.158   2.087   7.665 -0.5026  0.1647  0.2415
   68MOL   C15928433   2.023   2.002   7.273 -0.1496 -0.2791 -0.4746
   68MOL   H16028434   2.055   1.788   7.301 -1.6276  0.8247 -0.4547
   68MOL   H16128435   2.179   1.743   7.472 -0.7666 -0.4280  0.5476
   68MOL   H16228436   2.278   1.863   7.567 -0.9543 -0.9898  1.3233
   68MOL   H16328437   1.874   1.922   7.750  0.2182 -0.0833  0.0614
   68MOL   H16428438   1.826   2.138   7.852 -0.8337 -0.5823 -1.5909
   68MOL   H16528439   1.983   2.338   7.825  1.9336  1.4003 -1.3484
   68MOL   H16628440   2.197   2.297   7.701 -0.4065 -0.5491  1.2469
   68MOL   H16728441   2.249   2.071   7.609  0.4830  0.0709  1.8193
   68MOL   H16828442   2.084   2.093   7.265 -0.6491 -0.0297 -1.5956
   68MOL   H16928443   1.963   2.010   7.363 -1.3631  0.7158 -1.3480
   68MOL   C17028444   1.908   1.998   7.164 -0.4495  0.0304 -0.0377
   68MOL   O17128445   1.790   2.051   7.220  0.2218 -0.0020  0.2990
   68MOL   C17228446   1.701   1.969   7.276 -0.6506 -0.2286 -0.2910
   68MOL   O17328447   1.635   1.893   7.185 -0.3323 -0.3848 -0.0157
   68MOL   C17428448   1.530   1.812   7.221 -0.4745 -0.1290 -0.1654
   68MOL   C17528449   1.445   1.763   7.129  0.3966  0.2672  0.6551
   68MOL   C17628450   1.338   1.688   7.165  0.0898 -1.0703  0.4273
   68MOL   C17728451   1.319   1.648   7.299  0.6142 -0.3515  0.9389
   68MOL   C17828452   1.399   1.700   7.399  0.0210 -0.3408 -0.1777
   68MOL   C17928453   1.512   1.781   7.359  0.4900  0.2193  0.4435
   68MOL   C18028454   1.938   2.079   7.041 -0.7242  0.5099 -0.2194
   68MOL   H18128455   1.888   1.896   7.131 -0.3025  0.6195 -1.9777
   68MOL   H18228456   1.646   2.036   7.342  0.4464  1.8453 -1.4273
   68MOL   H18328457   1.764   1.912   7.345  1.7269  4.3178  1.5787
   68MOL   H18428458   1.453   1.805   7.029 -0.9689  0.3476  0.5722
   68MOL   H18528459   1.260   1.658   7.096 -1.2225  0.3661  1.2311
   68MOL   H18628460   1.229   1.593   7.324  0.3801 -0.8436 -0.9164
   68MOL   H18728461   1.374   1.692   7.504 -0.4672  0.2312 -0.2495
   68MOL   H18828462   1.584   1.812   7.434  1.4735 -0.7590 -0.0793
   68MOL   H18928463   1.969   2.180   7.067 -1.2298  0.8442 -0.9036
   68MOL   H19028464   2.023   2.028   6.995  0.2297  0.2279  1.7984
   68MOL   C19128465   1.838   2.088   6.930  0.1037  0.3197 -0.5116
   68MOL   O19228466   1.851   1.965   6.858 -0.1706  0.2457  0.5850
   68MOL   C19328467   1.727   1.904   6.835 -0.1814 -0.4548  0.5923
   68MOL   O19428468   1.663   1.948   6.720  0.0109  0.2552 -0.3779
   68MOL   C19528469   1.535   1.914   6.709 -0.0278 -0.8916  0.0721
   68MOL   C19628470   1.460   1.999   6.634  0.8415 -0.2443 -0.0312
   68MOL   C19728471   1.323   1.972   6.615  0.5533  0.7592  0.0481
   68MOL   C19828472   1.262   1.857   6.671  0.5317 -0.6356  0.2874
   68MOL   C19928473   1.347   1.769   6.750  0.0025 -0.7154 -0.9714
   68MOL   C20028474   1.485   1.797   6.763  0.2689  0.1935  0.2099
   68MOL   C20128475   1.881   2.204   6.830 -0.4074  0.2690 -0.7847
   68MOL   H20228476   1.739   2.107   6.970  0.2131  0.1784 -0.1780
   68MOL   H20328477   1.653   1.924   6.912 -2.1053  1.3318 -1.6310
   68MOL   H20428478   1.750   1.798   6.820 -1.8927 -0.5651 -1.5576
   68MOL   H20528479   1.497   2.090   6.590  0.7153  0.8455  2.0628
   68MOL   H20628480   1.258   2.029   6.550  0.8238  1.5161  0.4373
   68MOL   H20728481   1.161   1.821   6.657  0.9079 -2.0436  1.0413
   68MOL   H20828482   1.310   1.674   6.784  1.3678 -1.9612 -2.8892
   68MOL   H20928483   1.549   1.739   6.828 -2.7356 -1.5127  1.7749
   68MOL   H21028484   1.921   2.291   6.883  3.7293 -1.6871 -0.4928
   68MOL   H21128485   1.960   2.160   6.769  0.8708  0.2759  0.8163
   68MOL   C21228486   1.773   2.257   6.739  0.1990 -0.2629 -0.2591
   68MOL   O21328487   1.687   2.323   6.831  0.1524  0.6895  0.5458
   68MOL   C21428488   1.556   2.314   6.797  0.4905  0.2713  0.7769
   68MOL   O21528489   1.473   2.375   6.891  0.3652 -0.3282  0.5790
   68MOL   C21628490   1.339   2.405   6.863 -0.3229  0.0390 -0.5051
   68MOL   C21728491   1.261   2.367   6.747  0.5870 -0.2239  0.3103
   68MOL   C21828492   1.118   2.380   6.742  0.6811 -0.1498  0.8180
   68MOL   C21928493   1.063   2.455   6.850 -0.4025 -0.3601  0.6306
   68MOL   C22028494   1.136   2.497   6.961  0.0503  0.4468 -0.2443
   68MOL   C22128495   1.273   2.471   6.967 -0.0826  0.8092 -0.4146
   68MOL   C22228496   1.831   2.354   6.635 -0.0334  0.2840  0.2237
   68MOL   H22328497   1.723   2.176   6.685  1.4296 -0.7068 -0.7456
   68MOL   H22428498   1.526   2.210   6.782  0.3951  0.3097  0.7015
   68MOL   H22528499   1.548   2.342   6.692  0.0197 -1.5746  0.3024
   68MOL   H22628500   1.311   2.311   6.669 -1.1556 -2.7372  0.9050
   68MOL   H22728501   1.058   2.344   6.659  0.3980 -3.1500  2.2674
   68MOL   H22828502   0.959   2.483   6.857  0.2436  1.7695  2.1603
   68MOL   H22928503   1.087   2.559   7.035 -2.0528  0.9639 -2.0145
   68MOL   H23028504   1.333   2.496   7.053  0.8733  0.7390 -1.0523
   68MOL   H23128505   1.750   2.418   6.600 -1.4706 -1.8749 -0.5131
   68MOL   H23228506   1.894   2.428   6.684  0.3294  0.4629 -0.5100
   68MOL   C23328507   1.901   2.292   6.513 -0.7562  0.5967 -0.0991
   68MOL   O23428508   1.798   2.232   6.436 -0.0471 -0.1309 -0.7323
   68MOL   C23528509   1.839   2.103   6.404 -0.1443  0.1547  0.0276
   68MOL   O23628510   1.954   2.113   6.325 -0.3240  0.1181 -0.6017
   68MOL   C23728511   1.923   2.161   6.196  0.3113 -0.6500 -0.7303
   68MOL   C23828512   1.791   2.194   6.148  0.1513  0.0865 -0.5989
   68MOL   C23928513   1.772   2.225   6.008 -0.4601 -1.0018 -0.6097
   68MOL   C24028514   1.885   2.209   5.920 -0.2522 -0.6574 -0.0548
   68MOL   C24128515   2.012   2.182   5.973 -0.6200  0.8000 -1.3744
   68MOL   C24228516   2.032   2.160   6.107 -0.5758  0.3159 -0.2659
   68MOL   C24328517   1.959   2.406   6.425  0.0041 -0.0959  0.0689
   68MOL   H24428518   1.990   2.232   6.529 -2.1107 -1.4474 -0.1458
   68MOL   H24528519   1.764   2.042   6.355 -2.1657  0.2501  2.8575
   68MOL   H24628520   1.852   2.051   6.499 -1.0591 -2.6209 -1.3232
   68MOL   H24728521   1.709   2.202   6.218 -1.4790  0.6615 -2.5309
   68MOL   H24828522   1.676   2.235   5.959 -0.8779 -2.0688 -0.0206
   68MOL   H24928523   1.878   2.217   5.813 -1.4668  1.7483  0.1533
   68MOL   H25028524   2.092   2.163   5.903 -1.5496 -1.7331 -1.8041
   68MOL   H25128525   2.131   2.127   6.136 -0.4549  0.5995 -0.3524
   68MOL   H25228526   2.006   2.361   6.337  3.1929 -0.3193  1.7926
   68MOL   H25328527   1.875   2.468   6.393  0.8550 -0.0810 -2.2899
   68MOL   C25428528   2.070   2.494   6.494  0.4883 -0.0763  0.1785
   68MOL   O25528529   2.184   2.413   6.521 -0.3501  0.5420 -0.2754
   68MOL   C25628530   2.288   2.471   6.588 -0.1659  0.4405  0.0253
   68MOL   O25728531   2.270   2.478   6.723  0.4014  0.3046 -0.6768
   68MOL   C25828532   2.325   2.383   6.807  0.4139 -0.3745  0.3227
   68MOL   C25928533   2.433   2.295   6.781  0.4822 -0.9909  0.3146
   68MOL   C26028534   2.484   2.214   6.883  0.5597 -0.7768 -0.4632
   68MOL   C26128535   2.420   2.202   7.008  0.2813 -0.0099  0.4823
   68MOL   C26228536   2.301   2.275   7.035 -0.6524  0.3002  0.2077
   68MOL   C26328537   2.250   2.361   6.931 -0.6301  0.2371  0.0568
   68MOL   C26428538   2.104   2.600   6.390 -0.1406 -0.0979 -0.3268
   68MOL   H26528539   2.048   2.533   6.593  2.2514  1.7803 -0.1401
   68MOL   H26628540   2.325   2.565   6.547 -1.9652  0.6901 -1.0451
   68MOL   H26728541   2.376   2.416   6.553 -0.6922  0.4726 -1.3796
   68MOL   H26828542   2.489   2.310   6.690  1.0012 -0.7277  0.6772
   68MOL   H26928543   2.570   2.152   6.861  0.5052 -2.1622  2.8358
   68MOL   H27028544   2.459   2.131   7.081 -0.3350 -0.8275  0.0258
   68MOL   H27128545   2.252   2.262   7.130  1.2788 -1.0243  1.0435
   68MOL   H27228546   2.157   2.416   6.939 -0.0057  1.5036 -1.2285
   68MOL   H27328547   2.190   2.652   6.432  1.2654 -2.8008  0.2246
   68MOL   H27428548   2.132   2.550   6.298  0.9946  0.5671 -0.3500
   68MOL   C27528549   1.992   2.701   6.358  0.2818  0.2971  0.3578
   68MOL   O27628550   1.988   2.779   6.477 -0.0308 -0.0544 -0.0453
   68MOL   C27728551   1.907   2.888   6.488 -0.2807  0.8631  0.5984
   68MOL   O27828552   1.773   2.874   6.453 -0.2974 -0.3760  0.2869
   68MOL   C27928553   1.690   2.800   6.535 -0.3018 -0.9682  0.1048
   68MOL   C28028554   1.731   2.716   6.636 -0.6798 -0.3446  0.6552
   68MOL   C28128555   1.633   2.652   6.715  0.4368  0.5370  0.3666
   68MOL   C28228556   1.495   2.668   6.684  0.2279  0.0528  0.2153
   68MOL   C28328557   1.454   2.753   6.573 -0.0025 -0.3125 -0.0189
   68MOL   C28428558   1.551   2.819   6.502  0.5623 -0.0359 -1.3912
   68MOL   C28528559   2.018   2.786   6.230 -0.0920 -0.6280  0.2126
   68MOL   H28628560   1.896   2.653   6.337  0.7984  0.2672 -2.0834
   68MOL   H28728561   1.944   2.952   6.408  0.7249  0.0260  0.3798
   68MOL   H28828562   1.925   2.942   6.581 -2.8172 -0.2136  1.7703
   68MOL   H28928563   1.835   2.709   6.663 -1.0441 -0.1924  2.1437
   68MOL   H29028564   1.665   2.607   6.808  1.1362  2.0806  0.8805
   68MOL   H29128565   1.415   2.619   6.739  0.7169 -1.7519 -0.6303
   68MOL   H29228566   1.349   2.764   6.553 -0.2077  1.5963  1.9393
   68MOL   H29328567   1.515   2.886   6.426 -1.5987 -0.5740 -0.8738
   68MOL   H29428568   2.076   2.725   6.161  4.4491  0.9647  2.4464
   68MOL   H29528569   2.070   2.878   6.254 -0.3228 -0.2229 -0.8221
   68MOL   C29628570   1.891   2.821   6.158  0.2291  0.3533 -0.8006
   68MOL   O29728571   1.932   2.915   6.068  0.1282 -1.1241  0.6738
   68MOL   C29828572   1.895   3.043   6.090  0.5152 -0.4849  0.2516
   68MOL   O29928573   1.933   3.096   6.212 -0.3569 -0.0172  0.0546
   68MOL   C30028574   1.899   3.226   6.238 -0.4983 -0.8906  0.0409
   68MOL   C30128575   1.823   3.312   6.156  0.1800 -1.0848  0.2794
   68MOL   C30228576   1.783   3.441   6.192 -0.0986  0.1265 -0.0411
   68MOL   C30328577   1.844   3.501   6.303 -0.3461  0.6607 -0.5502
   68MOL   C30428578   1.920   3.416   6.387 -0.7573  1.0013 -0.3120
   68MOL   C30528579   1.951   3.284   6.353  0.1677  0.4440  1.1972
   68MOL   C30628580   1.846   2.713   6.063  0.1491 -0.8631  0.4384
   68MOL   H30728581   1.817   2.862   6.227  1.2880 -0.0151  0.5670
   68MOL   H30828582   1.787   3.041   6.078  0.3325  1.3237  1.4615
   68MOL   H30928583   1.945   3.099   6.011  2.5227  0.3160  2.0208
   68MOL   H31028584   1.776   3.286   6.062 -0.5000  1.2192 -0.0538
   68MOL   H31128585   1.718   3.509   6.139  1.6616  0.7577 -1.4154
   68MOL   H31228586   1.816   3.601   6.333 -0.1750  0.4493  0.3440
   68MOL   H31328587   1.967   3.462   6.473 -0.6017  0.1178  0.0786
   68MOL   H31428588   2.016   3.217   6.407 -0.9680 -1.2639  0.4811
   68MOL   H31528589   1.863   2.619   6.116  0.0019 -0.7726  0.6415
   68MOL   H31628590   1.906   2.696   5.973  0.5737 -1.3620  0.8114
   68MOL   C31728591   1.696   2.736   6.025 -0.1514 -0.4544  0.4203
   68MOL   O31828592   1.633   2.613   6.008  0.2017 -0.2408 -0.3171
   68MOL   C31928593   1.583   2.553   6.124  0.0963  0.1241  0.2892
   68MOL   O32028594   1.492   2.629   6.194  0.1440  0.2975  0.3796
   68MOL   C32128595   1.365   2.640   6.143 -0.3845 -0.1129  1.4337
   68MOL   C32228596   1.265   2.710   6.220 -0.2754 -1.1910  0.5184
   68MOL   C32328597   1.148   2.741   6.160  0.1301 -0.5324  0.3540
   68MOL   C32428598   1.114   2.684   6.037 -1.0955 -0.1367  0.0988
   68MOL   C32528599   1.207   2.616   5.956  0.4991 -0.1705 -0.0687
   68MOL   C32628600   1.331   2.596   6.011 -0.1998 -0.5142 -0.6676
   68MOL   C32728601   1.678   2.817   5.889  0.8661 -0.1507 -0.2510
   68MOL   H32828602   1.646   2.787   6.108  0.3511 -1.3513  1.2926
   68MOL   H32928603   1.653   2.512   6.197 -0.7379 -0.1622  0.9380
   68MOL   H33028604   1.533   2.462   6.091  0.1222  1.1333 -2.6709
   68MOL   H33128605   1.284   2.754   6.317  1.1285 -1.0500  0.1943
   68MOL   H33228606   1.081   2.806   6.215  1.0812  0.6842  0.0987
   68MOL   H33328607   1.013   2.705   6.003 -0.5831  0.8730 -0.8132
   68MOL   H33428608   1.187   2.584   5.855  1.7591  0.2392 -0.4602
   68MOL   H33528609   1.408   2.550   5.950 -0.2867  2.3244 -3.0305
   68MOL   H33628610   1.744   2.904   5.880 -0.6502  1.1265  0.6227
   68MOL   H33728611   1.696   2.751   5.804 -1.3233  0.3771 -1.1438
   68MOL   C33828612   1.532   2.864   5.866  0.0853  0.2562 -0.0184
   68MOL   O33928613   1.505   2.981   5.938  0.4195 -0.3161  0.7178
   68MOL   C34028614   1.394   2.973   6.021 -0.1877  0.6225  0.4928
   68MOL   O34128615   1.353   3.097   6.062  0.6956  0.2585  0.0299
   68MOL   C34228616   1.407   3.155   6.176 -0.5532  0.7813  0.4153
   68MOL   C34328617   1.347   3.274   6.230  0.4588  0.5701 -0.2217
   68MOL   C34428618   1.389   3.325   6.354  0.3299 -0.4301 -0.0846
   68MOL   C34528619   1.506   3.282   6.415  1.3102 -0.1520 -0.3897
   68MOL   C34628620   1.572   3.174   6.355  0.4837 -0.2095  0.5062
   68MOL   C34728621   1.530   3.115   6.234  0.5744  0.1533 -0.3326
   68MOL   C34828622   1.509   2.894   5.713 -0.4953 -0.0771  0.1106
   68MOL   H34928623   1.461   2.785   5.893 -0.2096  1.1161  1.8160
   68MOL   H35028624   1.413   2.901   6.101  0.9333  1.2423  0.7972
   68MOL   H35128625   1.307   2.933   5.970  1.3614 -1.6737 -0.4451
   68MOL   H35228626   1.256   3.322   6.199  0.1210 -1.3019 -2.2703
   68MOL   H35328627   1.338   3.407   6.402 -2.4676 -2.2021  0.0554
   68MOL   H35428628   1.552   3.320   6.505  2.3470 -1.4749 -0.3384
   68MOL   H35528629   1.662   3.135   6.399 -0.0142 -2.0703 -0.0612
   68MOL   H35628630   1.587   3.031   6.196 -0.1363 -0.0298 -1.0028
   68MOL   H35728631   1.479   2.794   5.681 -0.2526  0.9850 -3.6544
   68MOL   H35828632   1.608   2.919   5.673 -0.4274 -0.8367 -0.2037
   68MOL   C35928633   1.410   3.005   5.677  0.0001 -0.3260 -1.0309
   68MOL   O36028634   1.282   2.963   5.717  0.0257 -0.0060  0.3755
   68MOL   C36128635   1.171   3.053   5.705 -0.6482 -0.2354 -0.0321
   68MOL   O36228636   1.096   3.016   5.592  0.5441 -0.6756 -0.0610
   68MOL   C36328637   1.058   2.892   5.564  0.7755  0.6957  0.0288
   68MOL   C36428638   1.067   2.784   5.654 -0.4989 -0.4071 -0.4520
   68MOL   C36528639   1.027   2.650   5.617 -0.2938  0.0116 -0.5736
   68MOL   C36628640   0.978   2.631   5.490  0.0313  0.5826  0.4620
   68MOL   C36728641   0.988   2.730   5.389  0.1500  0.2784  0.2975
   68MOL   C36828642   1.023   2.856   5.429 -0.4207  0.5711 -0.5932
   68MOL   C36928643   1.414   3.035   5.528  0.8950 -0.3204 -0.1617
   68MOL   H37028644   1.436   3.097   5.730  0.4359 -2.1818  2.1298
   68MOL   H37128645   1.206   3.156   5.706  0.3824 -0.5355 -2.5155
   68MOL   H37228646   1.100   3.032   5.786 -0.8795 -1.2446 -0.4839
   68MOL   H37328647   1.107   2.796   5.754  0.7530 -1.5818 -0.8018
   68MOL   H37428648   1.056   2.565   5.677  1.2931 -0.4628 -1.9661
   68MOL   H37528649   0.950   2.531   5.459  2.1031  0.0259  0.3079
   68MOL   H37628650   0.950   2.707   5.291  0.9911  0.0383  0.0273
   68MOL   H37728651   1.028   2.938   5.358  2.7400 -0.0399 -1.1394
   68MOL   H37828652   1.359   3.127   5.507  3.8786  1.5075 -0.2454
   68MOL   H37928653   1.359   2.967   5.462 -0.0625 -0.9413  1.2713
   68MOL   C38028654   1.559   3.066   5.466  0.4690 -0.3221  0.3020
   68MOL   O38128655   1.556   3.177   5.370 -0.4818  0.2607 -0.1781
   68MOL   C38228656   1.560   3.307   5.422 -0.1453  0.2128 -0.9454
   68MOL   O38328657   1.596   3.398   5.330  0.8252 -0.0222 -0.0468
   68MOL   C38428658   1.730   3.416   5.302  0.1831  0.4306  0.0717
   68MOL   C38528659   1.777   3.518   5.216 -0.1084  0.4001 -0.0557
   68MOL   C38628660   1.913   3.544   5.189 -0.3062  0.1179  0.3168
   68MOL   C38728661   2.004   3.463   5.245 -0.0063  0.0337 -0.1077
   68MOL   C38828662   1.971   3.365   5.337 -0.6228 -0.3413 -0.0068
   68MOL   C38928663   1.830   3.333   5.354  0.2630  0.7478 -0.3076
   68MOL   C39028664   1.609   2.947   5.383 -0.3825  0.6310  0.0848
   68MOL   H39128665   1.629   3.100   5.542  2.1028  0.7591 -1.6479
   68MOL   H39228666   1.459   3.331   5.455 -0.7520 -2.5874 -0.6064
   68MOL   H39328667   1.624   3.324   5.508 -1.7837  3.1684 -0.2423
   68MOL   H39428668   1.692   3.575   5.180 -1.7369 -2.3384 -0.6889
   68MOL   H39528669   1.959   3.624   5.134  0.7744  0.9119  2.3127
   68MOL   H39628670   2.111   3.470   5.230  0.2907 -2.6079  0.5840
   68MOL   H39728671   2.049   3.301   5.376  0.6491  1.5301  0.6220
   68MOL   H39828672   1.816   3.253   5.426 -4.4856  0.9378 -0.8534
   68MOL   H39928673   1.552   2.947   5.290 -3.3328 -2.0591  1.7678
   68MOL   H40028674   1.581   2.852   5.430  0.9354 -0.0232 -0.4309
   68MOL   C40128675   1.760   2.944   5.367 -1.0422 -0.0296  0.0793
   68MOL   O40228676   1.803   2.895   5.495 -0.4124 -1.4006 -0.1427
   68MOL   C40328677   1.933   2.937   5.528 -0.2329  0.4286  0.5992
   68MOL   O40428678   2.025   2.839   5.488 -0.3906 -0.6240  0.4217
   68MOL   C40528679   2.048   2.736   5.577 -0.1205 -0.5945 -0.7583
   68MOL   C40628680   2.183   2.685   5.598  0.5185  0.6454 -0.1262
   68MOL   C40728681   2.203   2.587   5.694 -0.1991  0.1398 -0.7809
   68MOL   C40828682   2.099   2.538   5.780  0.4807  0.0286  0.1321
   68MOL   C40928683   1.967   2.583   5.761 -0.2212 -0.1083 -0.0256
   68MOL   C41028684   1.941   2.676   5.654 -0.2708  1.0730 -0.3059
   68MOL   C41128685   1.820   2.861   5.258 -0.5966 -0.0831  0.3454
   68MOL   H41228686   1.788   3.048   5.348 -1.6652 -0.0055 -0.7193
   68MOL   H41328687   1.937   2.951   5.636 -0.9681 -0.2631  0.7200
   68MOL   H41428688   1.958   3.023   5.466 -1.5078  0.4266  0.0642
   68MOL   H41528689   2.261   2.725   5.534  1.8523 -1.4655  0.1444
   68MOL   H41628690   2.306   2.556   5.701 -1.5055 -4.1549  0.9938
   68MOL   H41728691   2.114   2.460   5.853 -2.6288  0.9394  1.8395
   68MOL   H41828692   1.888   2.549   5.825 -0.2373  0.5140  0.2927
   68MOL   H41928693   1.836   2.697   5.641 -0.9100 -0.3310  2.2823
   68MOL   H42028694   1.929   2.859   5.258 -0.5784  0.2915  1.8772
   68MOL   H42128695   1.787   2.903   5.163  1.6849  1.1475  0.0619
   68MOL   H42228696   1.783   2.759   5.263  0.8438 -0.6589 -0.4463
   69MOL     C128697   4.147   3.944   4.089  0.3922  0.0009  0.6483
   69MOL     O228698   4.083   3.944   4.215 -1.5950  0.2515 -0.4811
   69MOL     C328699   3.944   3.958   4.212 -0.3301  0.1630  0.7801
   69MOL     O428700   3.879   3.858   4.150 -0.1158 -0.1609  0.1368
   69MOL     C528701   3.743   3.868   4.129  0.5802  0.0896 -0.8484
   69MOL     C628702   3.667   3.765   4.068 -0.0540 -0.2330  0.1256
   69MOL     C728703   3.536   3.787   4.024  0.3614 -0.1179  0.2417
   69MOL     C828704   3.468   3.902   4.061 -0.2520 -0.1422  0.2969
   69MOL     C928705   3.539   4.005   4.132 -0.0290  0.1153 -0.2005
   69MOL    C1028706   3.671   3.981   4.169 -0.0187  0.3877 -0.3112
   69MOL    C1128707   4.298   3.965   4.106  0.0100 -0.2903  0.5219
   69MOL    H1228708   4.126   3.845   4.048 -0.8237 -1.3409  4.3650
   69MOL    H1328709   3.906   3.946   4.313  0.2018 -0.9903  0.8503
   69MOL    H1428710   3.918   4.059   4.180  0.1997  0.0395 -0.0531
   69MOL    H1528711   3.702   3.667   4.042  0.5309 -0.1905  0.7462
   69MOL    H1628712   3.487   3.708   3.969 -0.8180  0.5142  0.3677
   69MOL    H1728713   3.364   3.915   4.033  0.5584 -2.1344 -3.9524
   69MOL    H1828714   3.495   4.096   4.171  0.3071  0.7204 -1.2117
   69MOL    H1928715   3.722   4.065   4.214  0.6641  0.6834 -1.6094
   69MOL    H2028716   4.317   4.025   4.195  0.0459  0.3759  0.0706
   69MOL    H2128717   4.342   4.026   4.028  0.2548  0.7669  1.4789
   69MOL    H2228718   4.111   4.017   4.016  0.7931 -1.4520 -1.0634
   69MOL    C2328719   4.378   3.830   4.129  0.3794 -0.0427  0.0882
   69MOL    O2428720   4.352   3.722   4.038  0.5047 -0.0901 -0.1962
   69MOL    C2528721   4.406   3.739   3.909 -0.0210 -0.0245  0.0923
   69MOL    O2628722   4.336   3.835   3.834 -0.3344  0.7832  0.4059
   69MOL    C2728723   4.397   3.895   3.723 -0.6604 -0.8090 -0.9792
   69MOL    C2828724   4.482   3.825   3.642  0.1204  1.0360  0.1301
   69MOL    C2928725   4.545   3.877   3.531  0.7994 -0.4804  0.8593
   69MOL    C3028726   4.529   4.016   3.511  0.6764  0.4657 -0.0842
   69MOL    C3128727   4.433   4.088   3.580 -0.6303 -0.5404 -0.4580
   69MOL    C3228728   4.366   4.027   3.688  0.5042  0.2803  0.2153
   69MOL    C3328729   4.360   3.767   4.261  0.1736  0.0722 -0.0358
   69MOL    H3428730   4.483   3.848   4.109  0.5262 -2.2913 -1.3117
   69MOL    H3528731   4.383   3.640   3.869  3.1555 -0.1390 -1.6649
   69MOL    H3628732   4.509   3.765   3.929  0.4054 -2.4015  1.1163
   69MOL    H3728733   4.490   3.719   3.664  2.4695  1.8749  4.0084
   69MOL    H3828734   4.609   3.814   3.471  1.0224  0.1082  0.4762
   69MOL    H3928735   4.568   4.074   3.428 -0.0385 -0.1801 -0.8793
   69MOL    H4028736   4.414   4.193   3.568  1.0707 -0.3504 -1.6201
   69MOL    H4128737   4.295   4.082   3.748 -2.4749 -3.6803  0.5703
   69MOL    H4228738   4.274   3.702   4.245  0.9432 -1.2782  1.1246
   69MOL    H4328739   4.333   3.847   4.330  0.8329  1.5706 -1.4971
   69MOL    C4428740   4.484   3.694   4.317 -0.4846  0.5114  0.6335
   69MOL    O4528741   4.459   3.615   4.431 -0.5415 -0.1951  0.2140
   69MOL    C4628742   4.371   3.509   4.411 -0.0966 -0.6111  0.0924
   69MOL    O4728743   4.390   3.414   4.508 -0.1038 -0.7455 -0.5284
   69MOL    C4828744   4.352   3.440   4.636  0.1143 -0.0554 -0.9749
   69MOL    C4928745   4.390   3.336   4.725 -0.4926  0.0527 -0.4200
   69MOL    C5028746   4.348   3.344   4.857  0.3556  0.2214 -0.5456
   69MOL    C5128747   4.283   3.460   4.906  0.2990 -0.1280  0.1963
   69MOL    C5228748   4.242   3.559   4.817 -0.1586  0.6896  0.3325
   69MOL    C5328749   4.273   3.555   4.682 -0.1620  0.2255 -0.1389
   69MOL    C5428750   4.578   3.806   4.373  0.5366 -0.1926  0.1689
   69MOL    H5528751   4.527   3.631   4.239  1.8133  1.0326  1.4560
   69MOL    H5628752   4.390   3.464   4.314  1.6325  0.0291  0.1191
   69MOL    H5728753   4.268   3.544   4.412  0.1400  0.2842  4.4268
   69MOL    H5828754   4.450   3.254   4.688 -0.0464  0.0435  0.3186
   69MOL    H5928755   4.356   3.268   4.933  1.5514  0.0172 -0.8734
   69MOL    H6028756   4.241   3.467   5.005  1.4345 -1.2284  0.7584
   69MOL    H6128757   4.178   3.637   4.855  0.7863  1.4157  0.4490
   69MOL    H6228758   4.232   3.635   4.623 -3.8532 -1.6578 -0.2809
   69MOL    H6328759   4.584   3.892   4.307  1.6405 -1.2610 -1.1689
   69MOL    H6428760   4.531   3.840   4.465  1.2105  2.7030 -0.5109
   69MOL    C6528761   4.726   3.739   4.395  0.3749 -0.3100  0.5345
   69MOL    O6628762   4.812   3.788   4.292 -0.1009  0.8901 -0.1582
   69MOL    C6728763   4.869   3.687   4.220 -0.3648  0.5986  0.3448
   69MOL    O6828764   4.784   3.613   4.138 -0.0192  0.0441 -0.2064
   69MOL    C6928765   4.786   3.656   4.005  0.2658  0.1708 -0.2362
   69MOL    C7028766   4.783   3.556   3.908  1.0821 -0.7386 -0.5024
   69MOL    C7128767   4.775   3.580   3.774 -0.2033  0.4697 -0.4928
   69MOL    C7228768   4.768   3.710   3.726  0.2279 -0.3217 -0.1858
   69MOL    C7328769   4.779   3.818   3.819 -0.1095 -0.1602 -0.2246
   69MOL    C7428770   4.791   3.793   3.957  0.0563  0.6405 -0.2116
   69MOL    C7528771   4.786   3.772   4.522  0.6416 -0.1466  0.7541
   69MOL    H7628772   4.715   3.631   4.400  0.6702 -0.4393 -1.1607
   69MOL    H7728773   4.902   3.620   4.300 -2.9741 -0.1529  0.8380
   69MOL    H7828774   4.964   3.717   4.176 -0.0652  0.2415  0.7368
   69MOL    H7928775   4.783   3.454   3.945  2.8343  0.0237  1.7331
   69MOL    H8028776   4.771   3.499   3.703  1.6568  0.1468 -0.2476
   69MOL    H8128777   4.772   3.746   3.624 -2.2949 -1.5687 -0.7719
   69MOL    H8228778   4.773   3.919   3.782  1.0388 -0.1433 -0.3797
   69MOL    H8328779   4.803   3.872   4.030  1.7154 -0.6228  0.9363
   69MOL    H8428780   4.893   3.774   4.502  0.2196 -1.2438 -1.8712
   69MOL    H8528781   4.759   3.872   4.556 -0.4194 -0.2586  0.2711
   69MOL    C8628782   4.755   3.672   4.643  0.6753  0.0551  0.1532
   69MOL    O8728783   4.797   3.542   4.612  0.3634  0.4134  0.3124
   69MOL    C8828784   4.703   3.446   4.651  0.4662  0.2586  0.1006
   69MOL    O8928785   4.758   3.321   4.642 -0.2621  0.3041  0.2936
   69MOL    C9028786   4.792   3.270   4.522  0.0046  0.1345  0.5317
   69MOL    C9128787   4.772   3.340   4.400  0.9265  0.0992  0.3705
   69MOL    C9228788   4.790   3.273   4.274 -0.2482 -0.1894 -0.5138
   69MOL    C9328789   4.845   3.144   4.273 -0.7314  0.8330  0.2315
   69MOL    C9428790   4.862   3.075   4.392 -0.1897 -0.0132 -0.8533
   69MOL    C9528791   4.837   3.136   4.517  0.6425  0.3880  0.0306
   69MOL    C9628792   4.829   3.699   4.776  0.3523 -0.2392 -0.4628
   69MOL    H9728793   4.649   3.681   4.669  0.6745  1.6250 -0.3563
   69MOL    H9828794   4.614   3.454   4.589 -0.4488 -0.6820  1.2539
   69MOL    H9928795   4.680   3.458   4.757  0.8830 -1.7796  0.4346
   69MOL   H10028796   4.720   3.434   4.398  2.3510  0.8883 -1.3867
   69MOL   H10128797   4.763   3.319   4.180  0.7203  0.0374 -0.6917
   69MOL   H10228798   4.865   3.085   4.186  2.0097  1.0029  0.7104
   69MOL   H10328799   4.897   2.973   4.389  1.0971  0.3363  1.0663
   69MOL   H10428800   4.857   3.089   4.612 -1.3266 -1.9411 -0.6663
   69MOL   H10528801   4.837   3.609   4.837  0.6851  0.4834  0.5617
   69MOL   H10628802   4.934   3.725   4.764 -0.2385  2.7734  0.4379
   69MOL   C10728803   4.757   3.802   4.868 -0.2165  0.8748  0.2245
   69MOL   O10828804   4.637   3.730   4.902 -1.1161  0.0287 -0.0246
   69MOL   C10928805   4.518   3.801   4.910 -0.3182  0.1545 -0.2158
   69MOL   O11028806   4.467   3.834   4.785  0.3067 -0.5362  0.5494
   69MOL   C11128807   4.332   3.881   4.778 -0.6400  0.1909  0.2296
   69MOL   C11228808   4.266   3.874   4.651 -0.4472  0.7383 -0.1352
   69MOL   C11328809   4.137   3.923   4.640 -0.4063  0.1205  0.1598
   69MOL   C11428810   4.074   3.995   4.742 -0.2050  1.0962  0.4874
   69MOL   C11528811   4.139   4.008   4.861 -0.0012  0.6886  0.2421
   69MOL   C11628812   4.270   3.955   4.879  0.2422 -0.1142  0.3842
   69MOL   C11728813   4.837   3.823   4.995  0.3022 -0.4875 -0.1821
   69MOL   H11828814   4.738   3.898   4.820  0.8306  0.3134 -1.3065
   69MOL   H11928815   4.534   3.890   4.971 -1.9657 -1.9096  3.4506
   69MOL   H12028816   4.443   3.736   4.957 -0.1316 -0.2717 -0.5007
   69MOL   H12128817   4.315   3.823   4.569  1.7485 -0.6603  1.9669
   69MOL   H12228818   4.084   3.908   4.547  2.2615 -2.3483 -1.0309
   69MOL   H12328819   3.976   4.038   4.726  0.7939  2.8217 -1.2031
   69MOL   H12428820   4.080   4.046   4.943 -1.2399  0.8083 -0.6863
   69MOL   H12528821   4.314   3.965   4.977  0.0383  1.8625  0.2833
   69MOL   H12628822   4.943   3.825   4.969  0.3753  1.1787  0.1742
   69MOL   H12728823   4.815   3.733   5.052  0.7843 -1.6800 -1.8416
   69MOL   C12828824   4.797   3.951   5.073  0.6914 -0.2399 -0.2303
   69MOL   O12928825   4.831   4.065   4.993 -0.0434  0.1300  0.0707
   69MOL   C13028826   4.731   4.151   4.963  0.1266 -0.1102  0.5002
   69MOL   O13128827   4.638   4.103   4.864 -0.6547 -0.1304  0.4118
   69MOL   C13228828   4.531   4.181   4.822  0.9662 -0.0790  0.2160
   69MOL   C13328829   4.489   4.158   4.687  0.4622  0.0842  0.9502
   69MOL   C13428830   4.374   4.215   4.637  0.3138 -1.3197  0.4291
   69MOL   C13528831   4.299   4.299   4.710 -0.1288  0.1826 -0.0223
   69MOL   C13628832   4.341   4.332   4.843 -0.0376 -0.3720  0.2724
   69MOL   C13728833   4.456   4.267   4.905  0.7498  0.3025 -0.0820
   69MOL   C13828834   4.889   3.970   5.203  0.4970  0.7224  0.0268
   69MOL   H13928835   4.693   3.959   5.104  0.9945  1.7234  0.3934
   69MOL   H14028836   4.784   4.240   4.928  1.2877 -0.6579  0.8297
   69MOL   H14128837   4.678   4.176   5.055 -1.0968 -1.2084  0.1067
   69MOL   H14228838   4.524   4.077   4.626  0.2798  0.2489  0.6288
   69MOL   H14328839   4.343   4.188   4.537  0.6492 -2.4314  0.6227
   69MOL   H14428840   4.212   4.340   4.662  0.5616 -0.8645 -2.1964
   69MOL   H14528841   4.278   4.405   4.890  0.8186  0.3448  0.3279
   69MOL   H14628842   4.500   4.289   5.001 -2.4127  0.4824  1.3747
   69MOL   H14728843   4.968   3.894   5.208  1.2916  1.6004  0.9564
   69MOL   H14828844   4.950   4.059   5.187  0.2964  0.5864 -1.6155
   69MOL   C14928845   4.812   3.966   5.340  0.8883  0.3498  0.5642
   69MOL   O15028846   4.815   3.838   5.391 -0.6122  0.2363 -0.8642
   69MOL   C15128847   4.699   3.787   5.437 -0.1036  0.3751 -0.0771
   69MOL   O15228848   4.621   3.730   5.333  0.5322  0.5469  0.1884
   69MOL   C15328849   4.506   3.667   5.367  0.3500 -0.0390 -0.5748
   69MOL   C15428850   4.418   3.629   5.265 -0.2545  0.2000  1.1354
   69MOL   C15528851   4.307   3.555   5.294  0.0137  0.0671  0.4652
   69MOL   C15628852   4.270   3.516   5.420 -0.5664 -0.5651 -0.6362
   69MOL   C15728853   4.357   3.554   5.527 -0.1921 -0.2376  0.3772
   69MOL   C15828854   4.469   3.635   5.499 -0.6786 -0.6930 -0.8353
   69MOL   C15928855   4.885   4.056   5.449  0.2598  0.1812 -0.3622
   69MOL   H16028856   4.709   4.002   5.339  1.6516  2.6259  1.3767
   69MOL   H16128857   4.736   3.705   5.499 -1.5552 -0.2714 -0.0429
   69MOL   H16228858   4.648   3.860   5.500 -0.4192  0.5692 -0.5491
   69MOL   H16328859   4.446   3.663   5.166  2.9698  0.9874  2.2533
   69MOL   H16428860   4.252   3.518   5.208  0.0546 -0.0743  0.4994
   69MOL   H16528861   4.176   3.468   5.440 -1.7266  1.2581 -1.5296
   69MOL   H16628862   4.334   3.518   5.626  0.9663 -3.6115 -0.5244
   69MOL   H16728863   4.520   3.684   5.581  0.7317 -1.2414 -1.3692
   69MOL   H16828864   4.889   4.156   5.405  0.9002 -0.0782 -0.9052
   69MOL   H16928865   4.987   4.018   5.455  0.3082  0.5156  1.0484
   69MOL   C17028866   4.838   4.057   5.604  0.4194  0.0701  0.4704
   69MOL   O17128867   4.940   4.121   5.676  0.0801 -0.5011  0.0645
   69MOL   C17228868   5.030   4.033   5.730 -0.0531 -0.4191  0.2654
   69MOL   O17328869   4.977   3.976   5.845  0.1550 -0.3020 -0.5980
   69MOL   C17428870   4.968   4.048   5.960  0.9595  0.3111 -0.6147
   69MOL   C17528871   4.946   3.975   6.075 -0.3179  0.8010  0.1829
   69MOL   C17628872   4.945   4.038   6.195 -0.9302 -0.3426  0.0773
   69MOL   C17728873   4.967   4.177   6.205 -0.3580 -0.1351 -0.0849
   69MOL   C17828874   4.985   4.251   6.090  0.1077 -0.3051 -0.2539
   69MOL   C17928875   4.984   4.189   5.968  0.8193  0.2616  0.5445
   69MOL   C18028876   4.714   4.150   5.617  0.3132 -0.1345  0.0156
   69MOL   H18128877   4.805   3.957   5.631 -0.7866  0.3634  0.0984
   69MOL   H18228878   5.128   4.074   5.751 -1.3890  2.8185  0.4681
   69MOL   H18328879   5.044   3.942   5.671 -0.0619  1.2820 -2.4623
   69MOL   H18428880   4.934   3.869   6.058  2.3502  0.9132 -2.8005
   69MOL   H18528881   4.928   3.981   6.285  0.6433 -0.9198  0.0178
   69MOL   H18628882   4.962   4.226   6.302  0.7090 -1.6402  0.7589
   69MOL   H18728883   4.977   4.359   6.087 -3.5369 -0.5010 -0.8788
   69MOL   H18828884   5.003   4.250   5.881 -1.0870 -1.8271 -1.4106
   69MOL   H18928885   4.732   4.248   5.572 -1.8875  0.0851 -0.4630
   69MOL   H19028886   4.633   4.120   5.550  1.6512 -3.3311 -0.2775
   69MOL   C19128887   4.661   4.188   5.757  0.1872  0.3632  0.5445
   69MOL   O19228888   4.614   4.068   5.814  0.3340  0.4644 -1.0748
   69MOL   C19328889   4.596   4.050   5.954 -0.2892 -0.7254 -0.2522
   69MOL   O19428890   4.509   4.145   6.007 -0.0804  0.2144  0.4867
   69MOL   C19528891   4.484   4.149   6.145 -0.3716  0.6549 -0.2552
   69MOL   C19628892   4.418   4.260   6.195  0.4141  0.2548 -0.3016
   69MOL   C19728893   4.371   4.261   6.328  0.5335  0.2728 -0.4404
   69MOL   C19828894   4.405   4.153   6.417  0.5848 -0.0550  0.0894
   69MOL   C19928895   4.469   4.038   6.366  0.0777 -0.6140 -0.3523
   69MOL   C20028896   4.517   4.043   6.229 -0.3496  0.1955 -0.4725
   69MOL   C20128897   4.553   4.306   5.760 -0.6181  0.0934 -0.2304
   69MOL   H20228898   4.743   4.236   5.810 -0.1879  2.2024 -0.5098
   69MOL   H20328899   4.691   4.069   6.004  0.4689 -0.3179 -1.7906
   69MOL   H20428900   4.570   3.945   5.967  2.0650 -1.3656 -0.4671
   69MOL   H20528901   4.395   4.344   6.132  1.2836  2.2269  1.9312
   69MOL   H20628902   4.311   4.345   6.358  0.2508 -0.3950  0.9022
   69MOL   H20728903   4.368   4.155   6.518  0.3647 -0.9691  0.0286
   69MOL   H20828904   4.492   3.954   6.431  1.0440 -0.6670 -0.7589
   69MOL   H20928905   4.560   3.955   6.184 -0.4077  1.2455 -2.6394
   69MOL   H21028906   4.564   4.351   5.858 -0.1174 -1.0682  0.2507
   69MOL   H21128907   4.593   4.378   5.689  1.5297  0.3049  1.1763
   69MOL   C21228908   4.400   4.287   5.730 -1.4618  0.5455 -0.0236
   69MOL   O21328909   4.349   4.418   5.719  0.1806  0.0675  0.2949
   69MOL   C21428910   4.221   4.450   5.768  0.4529 -0.1557 -0.1674
   69MOL   O21528911   4.224   4.477   5.906  0.4505  0.4926  0.8053
   69MOL   C21628912   4.297   4.587   5.946 -0.8385 -0.0345 -0.2239
   69MOL   C21728913   4.312   4.604   6.086 -1.0365  0.3529 -0.0054
   69MOL   C21828914   4.391   4.705   6.141 -0.3660  0.6318  0.1461
   69MOL   C21928915   4.463   4.790   6.058  0.4681  0.1046  1.6472
   69MOL   C22028916   4.452   4.779   5.920 -0.3212  0.3996 -0.4190
   69MOL   C22128917   4.368   4.679   5.861 -0.8653  0.1979  0.2705
   69MOL   C22228918   4.369   4.207   5.603  0.4849 -0.0536 -0.1072
   69MOL   H22328919   4.351   4.238   5.814  2.0060  0.1281  1.8355
   69MOL   H22428920   4.149   4.369   5.755 -0.1197  0.1575  1.0006
   69MOL   H22528921   4.177   4.532   5.711 -1.8111 -0.9916  0.3002
   69MOL   H22628922   4.252   4.536   6.145  0.9288 -2.2389 -0.8992
   69MOL   H22728923   4.394   4.719   6.248  1.3409 -0.4120  0.2389
   69MOL   H22828924   4.509   4.875   6.105  0.8261  0.5649  0.4813
   69MOL   H22928925   4.512   4.844   5.859 -0.6534  0.8250 -0.2917
   69MOL   H23028926   4.364   4.665   5.754 -0.4703 -0.5553  0.3532
   69MOL   H23128927   4.419   4.111   5.602 -0.9356 -0.8087  0.0274
   69MOL   H23228928   4.265   4.174   5.606 -0.5425  2.8131 -1.4415
   69MOL   C23328929   4.384   4.278   5.472 -0.0508  0.2214  0.5035
   69MOL   O23428930   4.507   4.339   5.482 -0.1665  0.3032  0.0689
   69MOL   C23528931   4.503   4.468   5.446 -0.1079 -0.1467 -0.3499
   69MOL   O23628932   4.446   4.482   5.320 -0.1082  0.0435 -0.6522
   69MOL   C23728933   4.534   4.484   5.213 -0.4408  0.2895 -0.8525
   69MOL   C23828934   4.660   4.431   5.221 -0.2777 -0.0651  0.5899
   69MOL   C23928935   4.749   4.449   5.112 -0.1472 -0.4906  0.0170
   69MOL   C24028936   4.704   4.513   4.995 -0.6415 -0.1966 -0.0612
   69MOL   C24128937   4.568   4.556   4.982  0.6641 -0.2507 -0.0686
   69MOL   C24228938   4.484   4.537   5.093 -0.7511  0.6365  0.3075
   69MOL   C24328939   4.380   4.189   5.348  0.6267  0.2960 -0.2424
   69MOL   H24428940   4.300   4.347   5.466 -0.6535 -0.5451  0.0234
   69MOL   H24528941   4.605   4.506   5.447 -0.0116 -0.4079  1.2316
   69MOL   H24628942   4.454   4.520   5.529  1.9587 -1.3936  1.7208
   69MOL   H24728943   4.703   4.382   5.307  3.5079  0.4880 -0.8838
   69MOL   H24828944   4.850   4.414   5.121 -0.1779 -0.4300  0.6181
   69MOL   H24928945   4.775   4.529   4.915 -1.1228  0.5603 -0.3478
   69MOL   H25028946   4.541   4.618   4.898 -0.5377 -0.2499  0.3117
   69MOL   H25128947   4.384   4.577   5.103 -1.2186  0.3635 -2.8125
   69MOL   H25228948   4.405   4.250   5.262  2.2695 -0.0354 -0.0174
   69MOL   H25328949   4.457   4.112   5.344  0.8735  0.3735  2.3648
   69MOL   C25428950   4.235   4.129   5.320  0.1791  0.3797  0.3537
   69MOL   O25528951   4.200   4.166   5.182  0.4062  0.7260 -0.6766
   69MOL   C25628952   4.125   4.289   5.185  0.1655  0.1853  0.2548
   69MOL   O25728953   3.996   4.273   5.237 -0.4963  0.1354 -0.2144
   69MOL   C25828954   3.957   4.333   5.349  0.4982  0.1067  0.2052
   69MOL   C25928955   3.987   4.470   5.373  0.1542 -0.1472 -0.0241
   69MOL   C26028956   3.963   4.525   5.503  1.1997 -0.6397  0.4236
   69MOL   C26128957   3.900   4.449   5.606 -0.0814  0.1592 -0.5122
   69MOL   C26228958   3.875   4.312   5.587 -0.0113  0.2016  0.3637
   69MOL   C26328959   3.900   4.260   5.456  0.1303 -0.3406  0.5026
   69MOL   C26428960   4.245   3.975   5.335  0.1780 -0.5652  0.2106
   69MOL   H26528961   4.162   4.175   5.388 -0.5258  0.0536 -0.1784
   69MOL   H26628962   4.116   4.320   5.081 -0.4623  1.3200  0.6445
   69MOL   H26728963   4.174   4.374   5.232  1.5651 -0.0690 -0.7007
   69MOL   H26828964   4.026   4.534   5.294 -0.7519  1.6717  0.9727
   69MOL   H26928965   3.997   4.626   5.522 -0.5277 -0.0255  0.3483
   69MOL   H27028966   3.875   4.492   5.703  2.8658  0.5665  0.1006
   69MOL   H27128967   3.820   4.255   5.661 -1.7577  0.5311 -0.6611
   69MOL   H27228968   3.880   4.154   5.442  0.8368 -0.2640 -1.1933
   69MOL   H27328969   4.309   3.937   5.256  0.2213  0.0343 -0.0488
   69MOL   H27428970   4.305   3.953   5.423  1.6403  0.3674 -0.5386
   69MOL   C27528971   4.115   3.907   5.357  0.2491 -0.2336  0.1098
   69MOL   O27628972   4.061   3.954   5.476  0.6261  0.4221 -0.0566
   69MOL   C27728973   4.058   3.866   5.583 -0.1145  0.4426 -0.0606
   69MOL   O27828974   4.188   3.841   5.629 -0.0614 -0.1004 -0.6708
   69MOL   C27928975   4.204   3.765   5.742 -0.6191  0.0830  0.0402
   69MOL   C28028976   4.123   3.654   5.776  0.2809  0.7762 -0.0231
   69MOL   C28128977   4.157   3.584   5.895 -0.3829  0.0301 -0.7148
   69MOL   C28228978   4.255   3.633   5.982 -0.0468  0.5566 -0.5581
   69MOL   C28328979   4.333   3.743   5.949  0.5026 -0.0026 -0.7442
   69MOL   C28428980   4.314   3.802   5.821 -0.1346 -0.3164 -0.1809
   69MOL   C28528981   4.024   3.918   5.240  0.4216 -0.1503 -0.0868
   69MOL   H28628982   4.148   3.805   5.370 -0.3661 -0.4378  0.1105
   69MOL   H28728983   4.013   3.771   5.554 -0.3545  1.1453 -2.0610
   69MOL   H28828984   4.006   3.910   5.668 -1.1138 -0.8105  0.0092
   69MOL   H28928985   4.044   3.609   5.717 -0.3286  0.5066  0.9839
   69MOL   H29028986   4.112   3.489   5.917 -6.3030  2.3266 -1.8158
   69MOL   H29128987   4.269   3.579   6.075  3.1213  1.0525 -0.6984
   69MOL   H29228988   4.414   3.770   6.015  0.7842 -0.5997 -0.8405
   69MOL   H29328989   4.378   3.871   5.768 -0.9764 -1.2246 -2.4727
   69MOL   H29428990   4.087   3.914   5.151  0.2486 -0.9815 -0.1838
   69MOL   H29528991   3.976   4.015   5.234  0.6712  0.0654  1.1554
   69MOL   C29628992   3.912   3.809   5.240  0.2639  0.2077  0.6419
   69MOL   O29728993   3.814   3.820   5.142  0.1120 -0.1734  0.3264
   69MOL   C29828994   3.706   3.895   5.180 -0.6775 -0.0482 -0.2213
   69MOL   O29928995   3.732   4.033   5.177  0.0649  0.3085 -0.4265
   69MOL   C30028996   3.626   4.121   5.172 -0.0400  0.5781  0.0043
   69MOL   C30128997   3.653   4.254   5.135  0.3471  0.7872 -0.3407
   69MOL   C30228998   3.552   4.358   5.140  0.1124 -0.0864 -0.3051
   69MOL   C30328999   3.417   4.318   5.158 -0.5610 -0.8319 -0.0885
   69MOL   C30429000   3.389   4.181   5.186  0.0862 -0.1974  0.0037
   69MOL   C30529001   3.490   4.089   5.188 -0.2758  0.2042  0.0941
   69MOL   C30629002   3.973   3.672   5.190 -0.0891 -0.0781  0.2459
   69MOL   H30729003   3.871   3.803   5.341 -4.1162 -0.7605 -1.0653
   69MOL   H30829004   3.678   3.879   5.284  0.2398  0.2995  0.0773
   69MOL   H30929005   3.627   3.858   5.114 -1.1235 -0.5036  0.5563
   69MOL   H31029006   3.757   4.282   5.125  1.2617 -1.2666  2.6772
   69MOL   H31129007   3.590   4.454   5.111 -3.2665  1.9947  1.7687
   69MOL   H31229008   3.334   4.387   5.157 -1.1233 -1.5010  0.1396
   69MOL   H31329009   3.285   4.157   5.198  0.0996 -1.2294 -1.6968
   69MOL   H31429010   3.455   3.988   5.205  0.7111 -0.2992 -0.8104
   69MOL   H31529011   4.065   3.649   5.244  1.9733  1.6041 -2.4659
   69MOL   H31629012   4.004   3.691   5.088 -0.0137  1.3475  0.5293
   69MOL   C31729013   3.877   3.555   5.209 -0.0164 -0.0745 -0.3941
   69MOL   O31829014   3.893   3.514   5.345 -0.0115 -1.0476 -0.4386
   69MOL   C31929015   3.789   3.529   5.436 -0.7560  0.1004  0.1356
   69MOL   O32029016   3.700   3.425   5.417 -0.5667  0.0476  0.1122
   69MOL   C32129017   3.586   3.419   5.494 -0.3885  0.8457  0.3478
   69MOL   C32229018   3.529   3.531   5.564  0.0117  0.4391  0.2056
   69MOL   C32329019   3.420   3.514   5.647  0.4412 -0.2432  0.2091
   69MOL   C32429020   3.368   3.385   5.673 -0.5178  0.3108  0.6882
   69MOL   C32529021   3.414   3.271   5.600 -0.2735  0.7371  0.0542
   69MOL   C32629022   3.523   3.290   5.510 -0.1783  0.4717 -0.2370
   69MOL   C32729023   3.926   3.438   5.122  0.0862 -0.6666 -0.0693
   69MOL   H32829024   3.778   3.591   5.182  0.7398  2.9788  0.7124
   69MOL   H32929025   3.753   3.627   5.403 -1.0935 -0.0814 -0.0317
   69MOL   H33029026   3.830   3.536   5.536  3.9342  0.5173 -1.7015
   69MOL   H33129027   3.577   3.627   5.551 -3.1578  2.0701  0.0657
   69MOL   H33229028   3.363   3.594   5.692  1.0323 -0.0723  0.6517
   69MOL   H33329029   3.289   3.364   5.744  0.6468 -1.7034  1.4410
   69MOL   H33429030   3.367   3.173   5.603  1.2336 -0.0135 -0.1335
   69MOL   H33529031   3.553   3.203   5.453 -1.5584 -1.0191  1.2220
   69MOL   H33629032   4.032   3.411   5.122  0.1200 -0.7293  3.1578
   69MOL   H33729033   3.894   3.352   5.179  0.6380  0.1794  1.5449
   69MOL   C33829034   3.885   3.433   4.976 -0.0637 -0.2780  0.7618
   69MOL   O33929035   3.970   3.338   4.912 -0.2002 -0.4491 -0.0548
   69MOL   C34029036   3.962   3.332   4.772  0.5793 -0.1432 -0.6565
   69MOL   O34129037   3.947   3.454   4.717 -0.6405  0.3503 -0.4617
   69MOL   C34229038   3.960   3.470   4.578  0.3118  0.3492 -0.8955
   69MOL   C34329039   3.948   3.366   4.480  0.0012 -0.3602 -0.1389
   69MOL   C34429040   3.952   3.397   4.345 -0.1776 -0.0219  0.1182
   69MOL   C34529041   3.979   3.534   4.308  0.2278  0.1821  0.3246
   69MOL   C34629042   4.003   3.634   4.410 -0.0200 -0.0902  0.0923
   69MOL   C34729043   3.987   3.601   4.546 -0.1828 -0.4790  0.2773
   69MOL   C34829044   3.739   3.403   4.969  0.0881  0.3072 -0.4142
   69MOL   H34929045   3.915   3.530   4.935 -1.2284 -0.2490 -0.0400
   69MOL   H35029046   3.881   3.269   4.735 -0.4973  0.1912  1.0629
   69MOL   H35129047   4.052   3.280   4.741  0.3657 -1.0115  0.1402
   69MOL   H35229048   3.939   3.267   4.522 -2.4578  0.5903  1.6960
   69MOL   H35329049   3.949   3.322   4.267  1.0452  0.2729 -0.2112
   69MOL   H35429050   3.998   3.562   4.206  0.6178 -1.2672 -0.0140
   69MOL   H35529051   4.036   3.733   4.382 -1.5826  0.8644  1.5913
   69MOL   H35629052   4.004   3.673   4.624  0.2271 -0.8167  0.5023
   69MOL   H35729053   3.720   3.331   5.050  2.7964 -0.6276 -0.5610
   69MOL   H35829054   3.725   3.341   4.881  3.5956 -0.5274 -0.4261
   69MOL   C35929055   3.639   3.521   4.956 -1.0514  1.0083  0.2357
   69MOL   O36029056   3.512   3.485   5.009 -0.3993 -0.0061 -0.3069
   69MOL   C36129057   3.504   3.485   5.150 -0.0902 -0.4250 -0.5927
   69MOL   O36229058   3.518   3.612   5.205 -0.1009  0.1131 -0.2830
   69MOL   C36329059   3.397   3.678   5.229 -0.1723  0.2605  0.1126
   69MOL   C36429060   3.397   3.768   5.340 -0.3032  0.9383 -0.4875
   69MOL   C36529061   3.277   3.841   5.368 -0.1955 -0.5457  0.3689
   69MOL   C36629062   3.163   3.831   5.284 -0.3791 -0.1458 -0.2428
   69MOL   C36729063   3.170   3.741   5.178  0.0834 -0.6671 -0.5917
   69MOL   C36829064   3.282   3.663   5.155  0.3688  0.2623  0.0060
   69MOL   C36929065   3.624   3.575   4.809  0.4989  0.5491 -0.2789
   69MOL   H37029066   3.690   3.604   5.004  0.5937  1.1708 -1.6875
   69MOL   H37129067   3.586   3.426   5.191 -1.6611 -1.6543  0.8246
   69MOL   H37229068   3.412   3.435   5.179  0.9429 -1.8589  0.2799
   69MOL   H37329069   3.486   3.784   5.398  1.7929 -1.3664 -2.9068
   69MOL   H37429070   3.284   3.918   5.443 -1.7556 -0.9512  0.9575
   69MOL   H37529071   3.088   3.908   5.296  0.9103  1.1037 -0.0101
   69MOL   H37629072   3.083   3.732   5.115 -0.8094 -1.4825  0.7168
   69MOL   H37729073   3.284   3.601   5.067 -1.9758  1.2906 -0.8200
   69MOL   H37829074   3.561   3.507   4.751 -3.0958  1.4697  2.3884
   69MOL   H37929075   3.725   3.582   4.770  0.1442 -1.0462 -1.5680
   69MOL   C38029076   3.565   3.713   4.796 -0.4985 -0.7520  0.2003
   69MOL   O38129077   3.647   3.812   4.860 -0.2315  0.0492  0.0275
   69MOL   C38229078   3.775   3.845   4.804  0.6797  0.0591  0.8698
   69MOL   O38329079   3.762   3.897   4.668  0.2644  0.3596 -0.4351
   69MOL   C38429080   3.696   4.020   4.648 -0.2048 -0.1142 -0.5276
   69MOL   C38529081   3.653   4.038   4.512  0.9070 -0.9744 -0.0176
   69MOL   C38629082   3.609   4.162   4.472 -0.0660 -0.5267 -0.8162
   69MOL   C38729083   3.584   4.265   4.561 -0.1973 -0.7077  0.1277
   69MOL   C38829084   3.615   4.247   4.699 -0.2043  0.2294 -0.0439
   69MOL   C38929085   3.671   4.123   4.743  0.1374 -0.1048 -0.4268
   69MOL   C39029086   3.418   3.731   4.845  0.8095  0.1196 -0.7107
   69MOL   H39129087   3.561   3.744   4.691 -1.3883  0.0381  0.4564
   69MOL   H39229088   3.836   3.906   4.871  0.3942  0.1541  1.0445
   69MOL   H39329089   3.839   3.759   4.788  1.1303  0.0415  2.7135
   69MOL   H39429090   3.662   3.954   4.445  1.7336 -0.7792 -0.1609
   69MOL   H39529091   3.569   4.174   4.373 -1.3887  0.7445 -0.1350
   69MOL   H39629092   3.547   4.362   4.531  1.1137  0.0384  0.9053
   69MOL   H39729093   3.602   4.321   4.777 -2.1192 -0.5463  0.4087
   69MOL   H39829094   3.701   4.122   4.847 -0.4506  0.3168 -0.2416
   69MOL   H39929095   3.415   3.713   4.953 -0.0798 -1.0594 -0.9261
   69MOL   H40029096   3.361   3.652   4.797  1.1537 -0.3883 -0.2967
   69MOL   C40129097   3.354   3.870   4.805  0.7214 -0.0403 -0.5497
   69MOL   O40229098   3.219   3.854   4.772  0.1025  0.1265 -0.1996
   69MOL   C40329099   3.191   3.869   4.629  0.4824  0.7092 -0.4248
   69MOL   O40429100   3.187   4.005   4.593  0.1643  0.3950  0.0038
   69MOL   C40529101   3.177   4.034   4.462  0.2566  0.1081  0.7425
   69MOL   C40629102   3.149   3.951   4.351  0.1799  0.7874  0.0087
   69MOL   C40729103   3.159   3.993   4.218 -0.5538  0.5716 -0.2453
   69MOL   C40829104   3.192   4.129   4.190 -0.4590  0.1809  0.3870
   69MOL   C40929105   3.218   4.214   4.301 -0.2631 -0.1857  0.0185
   69MOL   C41029106   3.212   4.167   4.432 -0.7139  0.3195  0.1672
   69MOL   C41129107   3.374   3.983   4.913  0.2413 -0.6099  0.1179
   69MOL   H41229108   3.404   3.909   4.716 -0.2677  0.8714 -0.7182
   69MOL   H41329109   3.088   3.833   4.626  0.4019  0.3705  3.6115
   69MOL   H41429110   3.246   3.807   4.559  0.8616  0.3555  0.1856
   69MOL   H41529111   3.130   3.845   4.358  1.3261  0.5997  0.3256
   69MOL   H41629112   3.136   3.922   4.139  0.0437 -0.8438  0.8166
   69MOL   H41729113   3.208   4.165   4.090  1.2399 -0.5064  0.3940
   69MOL   H41829114   3.237   4.320   4.289  0.5125 -0.2770  0.4517
   69MOL   H41929115   3.237   4.240   4.507  0.9056  1.0718 -1.0969
   69MOL   H42029116   3.480   4.008   4.899 -0.2855  2.0945  0.7741
   69MOL   H42129117   3.348   3.938   5.009 -1.5438 -0.3809 -0.2427
   69MOL   H42229118   3.317   4.073   4.889 -1.0857 -1.5394 -0.2577
   70MOL     C129119   4.532   7.319   2.947  0.2381  0.6854 -0.7572
   70MOL     O229120   4.474   7.419   3.029  0.2078 -0.0673  0.2618
   70MOL     C329121   4.560   7.514   3.078  0.6251  0.4179 -0.4448
   70MOL     O429122   4.657   7.451   3.160 -0.4040  0.5214 -0.1180
   70MOL     C529123   4.623   7.402   3.284 -0.2778  0.2523  0.2047
   70MOL     C629124   4.722   7.334   3.357 -0.8233  0.8462  0.0461
   70MOL     C729125   4.690   7.290   3.487  0.3894  0.1093 -0.8061
   70MOL     C829126   4.562   7.309   3.538  0.4140 -0.3249  0.7310
   70MOL     C929127   4.464   7.373   3.463  0.4424  0.2436  0.0067
   70MOL    C1029128   4.495   7.419   3.332  0.1230  0.2476 -0.2325
   70MOL    C1129129   4.423   7.254   2.857  0.2075  0.3949  0.6407
   70MOL    H1229130   4.612   7.362   2.886  1.5140 -1.8346 -0.9213
   70MOL    H1329131   4.614   7.565   2.998 -0.6125  2.4109 -0.0504
   70MOL    H1429132   4.511   7.598   3.128  0.4968 -0.2550  0.5626
   70MOL    H1529133   4.820   7.314   3.315 -0.5986  0.6815  0.6519
   70MOL    H1629134   4.775   7.251   3.541  0.0002 -0.9155 -0.9139
   70MOL    H1729135   4.541   7.277   3.639  0.1894  0.4085  0.9159
   70MOL    H1829136   4.364   7.391   3.499 -0.0061  0.1572 -1.1531
   70MOL    H1929137   4.415   7.466   3.278 -1.7402 -2.3608  0.1249
   70MOL    H2029138   4.474   7.194   2.781  0.5448  0.7938  0.5501
   70MOL    H2129139   4.377   7.340   2.808 -0.3094  0.3929  1.1199
   70MOL    H2229140   4.575   7.247   3.017 -1.3072  2.2152  1.8079
   70MOL    C2329141   4.320   7.164   2.933 -0.1312 -0.2444 -0.4044
   70MOL    O2429142   4.375   7.039   2.964 -0.0984  0.2563  1.2951
   70MOL    C2529143   4.377   6.995   3.098 -0.3730  0.1437  0.1338
   70MOL    O2629144   4.450   7.067   3.186 -0.2833  0.3434 -0.5395
   70MOL    C2729145   4.447   7.011   3.314  0.4962 -0.0260 -0.3049
   70MOL    C2829146   4.564   7.002   3.378  0.1939  0.9149  0.0510
   70MOL    C2929147   4.570   6.941   3.506 -0.3128  0.6466  0.7418
   70MOL    C3029148   4.458   6.884   3.570 -0.0778 -0.0022  0.2559
   70MOL    C3129149   4.338   6.903   3.503 -0.3046  0.5191  0.0497
   70MOL    C3229150   4.330   6.971   3.381  0.2599 -0.0094 -0.0260
   70MOL    C3329151   4.194   7.134   2.856  0.6139 -0.3539 -0.6924
   70MOL    H3429152   4.290   7.211   3.026  2.0737 -2.5082  1.5211
   70MOL    H3529153   4.413   6.893   3.100  0.9736  0.5812 -0.9385
   70MOL    H3629154   4.273   6.986   3.129 -1.1323  0.3293 -2.2327
   70MOL    H3729155   4.656   7.024   3.325 -0.3194  0.7421 -0.9079
   70MOL    H3829156   4.671   6.933   3.541 -0.1051  0.0980  0.0271
   70MOL    H3929157   4.464   6.827   3.662  1.4348  0.5873  0.5388
   70MOL    H4029158   4.250   6.866   3.553  1.1088  1.9279  3.7409
   70MOL    H4129159   4.230   6.980   3.342 -0.0930 -0.2887  0.8129
   70MOL    H4229160   4.216   7.118   2.750  2.1400 -0.3112 -0.3975
   70MOL    H4329161   4.154   7.236   2.850 -0.1327 -0.6398 -0.5370
   70MOL    C4429162   4.086   7.043   2.919 -0.4225 -0.1547  0.4434
   70MOL    O4529163   3.983   7.042   2.826 -0.2725  0.0629  0.3331
   70MOL    C4629164   3.932   6.918   2.784 -0.9107  0.2110  0.5754
   70MOL    O4729165   3.820   6.931   2.698  0.1309  0.1109 -0.0380
   70MOL    C4829166   3.841   6.973   2.569  0.4605  0.6332  0.0886
   70MOL    C4929167   3.738   6.962   2.477 -0.0894 -0.4125  0.4094
   70MOL    C5029168   3.752   6.993   2.338  0.3828 -0.7607  0.4239
   70MOL    C5129169   3.873   7.048   2.293 -0.2601 -0.4553 -0.1645
   70MOL    C5229170   3.978   7.058   2.383 -0.1583 -0.3357 -0.7189
   70MOL    C5329171   3.966   7.025   2.523  0.3000  0.0422  0.5044
   70MOL    C5429172   4.024   7.095   3.050  0.0980 -0.4698  0.1186
   70MOL    H5529173   4.124   6.941   2.928 -0.7425 -0.1831  1.6815
   70MOL    H5629174   3.899   6.849   2.862 -0.8528  0.4873  0.8454
   70MOL    H5729175   4.003   6.862   2.722  2.4639  1.4971  3.1333
   70MOL    H5829176   3.644   6.919   2.509 -0.6403  0.8537  0.5118
   70MOL    H5929177   3.672   6.972   2.268  0.3977 -0.9380  0.4598
   70MOL    H6029178   3.882   7.076   2.189 -0.5764  2.1998  0.4778
   70MOL    H6129179   4.071   7.101   2.347  0.7266 -1.2485  0.4263
   70MOL    H6229180   4.049   7.034   2.591  1.2570  0.6399 -0.7152
   70MOL    H6329181   4.101   7.102   3.126 -1.1546  0.1625  1.3648
   70MOL    H6429182   3.992   7.199   3.045  0.1144 -0.5339 -1.5100
   70MOL    C6529183   3.938   7.000   3.129  0.2082 -0.0935 -0.3641
   70MOL    O6629184   4.025   6.899   3.195 -0.1669  0.3133 -0.7455
   70MOL    C6729185   3.963   6.772   3.213  0.4286  0.1479  0.4211
   70MOL    O6829186   3.948   6.717   3.085 -0.2858  0.0183  0.2931
   70MOL    C6929187   4.055   6.669   3.020 -0.7742  0.5212  0.2686
   70MOL    C7029188   4.032   6.588   2.907  0.3495  0.2167  0.2008
   70MOL    C7129189   4.135   6.533   2.829  0.3874 -0.4135  0.4081
   70MOL    C7229190   4.261   6.534   2.885  0.0342  0.1461  0.6333
   70MOL    C7329191   4.291   6.601   3.005  0.8538 -0.1553 -0.0120
   70MOL    C7429192   4.189   6.674   3.070 -0.5556 -0.4936  0.6248
   70MOL    C7529193   3.874   7.076   3.245  0.3683 -0.1668 -0.2733
   70MOL    H7629194   3.853   6.964   3.071  1.8284 -3.3848 -0.7995
   70MOL    H7729195   3.862   6.785   3.252  0.2812 -0.5507  0.2777
   70MOL    H7829196   4.010   6.699   3.279  0.2476  2.0705  2.7399
   70MOL    H7929197   3.933   6.585   2.864  0.0996 -0.2499  0.8094
   70MOL    H8029198   4.117   6.492   2.731  1.1380 -0.3301  0.2261
   70MOL    H8129199   4.338   6.478   2.834 -2.3304 -0.7235 -2.1193
   70MOL    H8229200   4.389   6.588   3.050  1.4158  1.0792 -0.8495
   70MOL    H8329201   4.206   6.729   3.162 -2.1053 -1.1572  1.3330
   70MOL    H8429202   3.870   7.013   3.333  2.5315  1.5472  1.1135
   70MOL    H8529203   3.935   7.159   3.281 -0.2651 -0.1763  0.8252
   70MOL    C8629204   3.729   7.123   3.239  0.3901  0.6195  0.2563
   70MOL    O8729205   3.691   7.168   3.365  0.7497  0.1510  0.5144
   70MOL    C8829206   3.599   7.088   3.435 -0.2100  0.7500  0.3282
   70MOL    O8929207   3.659   6.959   3.459 -0.2837  0.0859 -0.2311
   70MOL    C9029208   3.613   6.892   3.570  0.0662 -0.5790 -0.0495
   70MOL    C9129209   3.700   6.825   3.654  0.0151  0.1044 -0.0655
   70MOL    C9229210   3.652   6.760   3.766 -0.3416  0.2226 -0.8635
   70MOL    C9329211   3.518   6.766   3.804 -0.1233 -0.0225 -0.2374
   70MOL    C9429212   3.430   6.831   3.720 -0.1589  0.2436  0.1146
   70MOL    C9529213   3.474   6.894   3.606 -0.0313 -1.0505 -0.5023
   70MOL    C9629214   3.696   7.235   3.128 -0.2293  0.3568  0.1636
   70MOL    H9729215   3.665   7.040   3.209  0.7507  0.5195 -0.2455
   70MOL    H9829216   3.508   7.069   3.378 -1.1341  2.2845  1.2598
   70MOL    H9929217   3.575   7.141   3.527 -3.0973  2.2996 -1.2384
   70MOL   H10029218   3.805   6.828   3.630 -0.1468  1.1645 -0.6497
   70MOL   H10129219   3.714   6.692   3.822  0.6091  0.5832 -1.4727
   70MOL   H10229220   3.488   6.722   3.899 -0.7040 -1.6197 -1.1332
   70MOL   H10329221   3.324   6.832   3.742 -0.2177  1.4436 -0.2148
   70MOL   H10429222   3.389   6.919   3.544  0.3561 -2.1378 -1.4950
   70MOL   H10529223   3.753   7.326   3.144  1.7100 -0.8406  0.2011
   70MOL   H10629224   3.722   7.187   3.034  1.0303  0.2787  0.5466
   70MOL   C10729225   3.549   7.275   3.109 -0.6264  0.7136 -0.3783
   70MOL   O10829226   3.460   7.162   3.110 -0.0195  0.3087 -0.5778
   70MOL   C10929227   3.468   7.073   3.003 -0.5003  0.3260  0.2593
   70MOL   O11029228   3.573   6.979   3.010 -0.1678  0.3127 -0.3510
   70MOL   C11129229   3.568   6.864   2.931  0.2180  0.1978 -0.2795
   70MOL   C11229230   3.648   6.755   2.968 -0.0314  0.2070 -0.1354
   70MOL   C11329231   3.660   6.643   2.883 -0.3498  0.5163 -0.4028
   70MOL   C11429232   3.585   6.633   2.767 -0.5794 -0.3562  0.3788
   70MOL   C11529233   3.499   6.744   2.733  0.1489 -0.3247 -0.5256
   70MOL   C11629234   3.483   6.853   2.820  0.0452  0.7446 -0.9056
   70MOL   C11729235   3.511   7.378   3.227 -0.2446  0.6705 -0.1803
   70MOL   H11829236   3.544   7.324   3.012 -0.4688 -1.6439 -1.6161
   70MOL   H11929237   3.482   7.127   2.909  0.6696 -1.3877 -0.5782
   70MOL   H12029238   3.377   7.013   2.997  0.8197 -1.7048  0.1148
   70MOL   H12129239   3.705   6.764   3.059  1.8155  1.8122 -1.4242
   70MOL   H12229240   3.725   6.562   2.913 -0.1317  1.7938  2.7377
   70MOL   H12329241   3.609   6.548   2.705  3.3364  1.4281 -0.7267
   70MOL   H12429242   3.438   6.737   2.644 -0.9556  1.2247  0.1003
   70MOL   H12529243   3.414   6.932   2.792 -1.2136  0.1533  0.4464
   70MOL   H12629244   3.601   7.436   3.248 -1.3543  2.3695  0.0035
   70MOL   H12729245   3.495   7.318   3.316 -1.1945  0.0810 -0.7319
   70MOL   C12829246   3.389   7.465   3.203 -0.3767 -0.2224 -0.1316
   70MOL   O12929247   3.360   7.525   3.331 -0.5203 -0.0083  0.2005
   70MOL   C13029248   3.420   7.650   3.341 -0.1494  0.6242  0.4260
   70MOL   O13129249   3.398   7.691   3.475  0.2942 -0.0119  0.5410
   70MOL   C13229250   3.447   7.610   3.576 -0.2740  0.2612 -0.3951
   70MOL   C13329251   3.392   7.621   3.706 -0.4011 -0.3411  0.6694
   70MOL   C13429252   3.458   7.559   3.815 -0.1156 -0.3248 -0.3594
   70MOL   C13529253   3.563   7.468   3.790 -0.2925  0.3987 -0.3990
   70MOL   C13629254   3.608   7.445   3.661 -0.4907  0.4429 -0.3490
   70MOL   C13729255   3.555   7.522   3.556  0.1347 -0.1741  0.2536
   70MOL   C13829256   3.269   7.381   3.165 -0.1983 -0.0309 -0.1011
   70MOL   H13929257   3.405   7.538   3.123  1.0760 -0.0738  0.2850
   70MOL   H14029258   3.364   7.726   3.286 -0.7564 -1.4571 -1.9187
   70MOL   H14129259   3.525   7.654   3.312  0.0533  1.4766  1.2473
   70MOL   H14229260   3.314   7.693   3.726 -1.4155 -1.5911  1.2607
   70MOL   H14329261   3.415   7.567   3.914  3.4089  1.9439  1.0933
   70MOL   H14429262   3.612   7.407   3.863  0.6824  0.6686 -0.8154
   70MOL   H14529263   3.688   7.374   3.644 -0.8751 -0.3283  1.0326
   70MOL   H14629264   3.602   7.508   3.460 -0.5312 -2.3334  0.2140
   70MOL   H14729265   3.276   7.341   3.064  1.6211  1.0552 -0.4321
   70MOL   H14829266   3.265   7.288   3.221 -1.4879 -0.1258 -0.3361
   70MOL   C14929267   3.134   7.459   3.171  0.3341 -0.0006  0.8525
   70MOL   O15029268   3.134   7.545   3.053 -0.1460  0.0685 -0.3669
   70MOL   C15129269   3.061   7.663   3.071 -0.1557 -0.2327 -0.8180
   70MOL   O15229270   3.108   7.733   3.183  0.0931 -0.3475 -0.3284
   70MOL   C15329271   3.031   7.820   3.254  0.4511  0.4466  0.1995
   70MOL   C15429272   3.067   7.837   3.389  0.1176  0.2042  0.2704
   70MOL   C15529273   2.991   7.916   3.472  0.2111 -0.8205 -0.3630
   70MOL   C15629274   2.873   0.007   3.425 -0.0625  0.3651  0.4644
   70MOL   C15729275   2.832   7.962   3.294  0.8834 -0.0116  0.3435
   70MOL   C15829276   2.910   7.881   3.206 -0.3576  0.4130 -0.5231
   70MOL   C15929277   3.019   7.355   3.170  0.3916 -0.0736 -0.2832
   70MOL   H16029278   3.128   7.518   3.262 -0.6686 -0.3818  1.0349
   70MOL   H16129279   3.056   7.737   2.990  1.8395  1.1216  0.2700
   70MOL   H16229280   2.956   7.634   3.074 -0.3361  0.2651 -2.0928
   70MOL   H16329281   3.153   7.786   3.432  1.2099  1.6958 -0.1122
   70MOL   H16429282   3.030   7.927   3.572  0.8247  1.2401 -0.7839
   70MOL   H16529283   2.808   0.067   3.487 -2.5460 -0.7231 -0.9848
   70MOL   H16629284   2.743   0.037   3.260  1.6867 -0.2565 -2.2447
   70MOL   H16729285   2.879   7.872   3.103  0.8909  2.3516 -1.0842
   70MOL   H16829286   3.024   7.295   3.261 -1.3981 -0.9373 -0.7455
   70MOL   H16929287   3.029   7.277   3.094  0.1425  0.1066 -0.5008
   70MOL   C17029288   2.869   7.403   3.173  0.2294  0.5323  0.2410
   70MOL   O17129289   2.788   7.293   3.188  0.6290 -0.0152  0.1809
   70MOL   C17229290   2.745   7.239   3.062  0.2276  0.1015  0.1326
   70MOL   O17329291   2.675   7.126   3.098  0.4005 -0.1011  0.4757
   70MOL   C17429292   2.546   7.131   3.152 -0.6450 -0.9928 -0.0701
   70MOL   C17529293   2.476   7.011   3.186 -0.1581  0.2703 -0.4228
   70MOL   C17629294   2.352   7.024   3.254  0.0410  0.1978 -0.2755
   70MOL   C17729295   2.293   7.145   3.286 -0.3934 -0.4912  1.0067
   70MOL   C17829296   2.358   7.261   3.250 -0.2301  0.0432 -0.0797
   70MOL   C17929297   2.484   7.258   3.194 -0.3844  0.3065  0.7710
   70MOL   C18029298   2.833   7.495   3.297  0.6526 -0.0285  0.4408
   70MOL   H18129299   2.842   7.448   3.078  2.4652  1.7389  0.1407
   70MOL   H18229300   2.822   7.206   2.992 -2.0412 -0.0582 -2.3965
   70MOL   H18329301   2.685   7.310   3.006  0.4417 -0.4903 -0.8587
   70MOL   H18429302   2.512   6.909   3.181 -1.5559 -0.2398 -0.4215
   70MOL   H18529303   2.306   6.930   3.282 -0.3724  0.2746 -0.6841
   70MOL   H18629304   2.197   7.153   3.334 -1.6102  1.1770 -1.6168
   70MOL   H18729305   2.321   7.359   3.276  2.7060  1.6630 -1.7038
   70MOL   H18829306   2.542   7.343   3.160  0.5486 -0.4701  0.3781
   70MOL   H18929307   2.833   7.445   3.394  2.5475 -2.5400 -0.7642
   70MOL   H19029308   2.914   7.568   3.297  0.0233  0.6829 -0.9383
   70MOL   C19129309   2.702   7.574   3.291 -0.3049  0.0724 -0.1166
   70MOL   O19229310   2.711   7.647   3.165  0.1003  0.5954 -0.1659
   70MOL   C19329311   2.589   7.700   3.126 -0.9811  0.0637  0.3209
   70MOL   O19429312   2.546   7.630   3.021  0.1765 -0.0754  0.1259
   70MOL   C19529313   2.415   7.652   2.996 -0.8383 -0.3896  0.0425
   70MOL   C19629314   2.345   7.539   2.943  0.3677  0.1405 -0.2458
   70MOL   C19729315   2.215   7.560   2.888 -0.1718 -0.1921 -0.6927
   70MOL   C19829316   2.147   7.686   2.897  0.2107 -0.1088  0.0865
   70MOL   C19929317   2.225   7.797   2.938  0.7349 -0.1215  0.2503
   70MOL   C20029318   2.353   7.778   2.995  0.0117  0.4296 -0.1219
   70MOL   C20129319   2.699   7.675   3.411  0.0283 -0.9033  0.0032
   70MOL   H20229320   2.622   7.501   3.306  3.5666 -4.4310  0.0223
   70MOL   H20329321   2.603   7.806   3.102  1.6831 -0.0263  1.3596
   70MOL   H20429322   2.520   7.700   3.211 -2.0750 -0.9229 -0.5413
   70MOL   H20529323   2.406   7.451   2.931  2.8542  1.6670  0.6143
   70MOL   H20629324   2.161   7.480   2.840  0.8649 -1.0266 -0.5049
   70MOL   H20729325   2.050   7.706   2.855  0.6442  1.1986 -0.3175
   70MOL   H20829326   2.189   7.898   2.942  2.7187  0.5426  2.7318
   70MOL   H20929327   2.402   7.867   3.032 -0.9920  0.0890  2.1680
   70MOL   H21029328   2.799   7.718   3.423 -0.2346  0.1606 -1.4969
   70MOL   H21129329   2.645   7.766   3.385  1.6807 -0.3918 -1.7544
   70MOL   C21229330   2.654   7.619   3.542  0.4067  0.6613  0.3034
   70MOL   O21329331   2.725   7.668   3.653 -0.1189 -0.1607 -0.2275
   70MOL   C21429332   2.856   7.616   3.675 -0.1188  0.4156  0.0208
   70MOL   O21529333   2.849   7.486   3.730  0.2445  0.2292  0.5915
   70MOL   C21629334   2.968   7.410   3.736  0.2350  0.2885  0.4800
   70MOL   C21729335   3.089   7.425   3.665 -0.1516 -0.1812  0.5156
   70MOL   C21829336   3.197   7.342   3.680  0.3118  0.3403 -0.1934
   70MOL   C21929337   3.196   7.244   3.779 -0.5327 -0.4930 -0.4476
   70MOL   C22029338   3.079   7.221   3.857 -0.0098  0.5298  0.5426
   70MOL   C22129339   2.963   7.307   3.832 -0.8171 -0.0436  0.1873
   70MOL   C22229340   2.505   7.609   3.559 -0.3886  0.4500  0.0877
   70MOL   H22329341   2.682   7.514   3.530  0.4737  0.6381  0.6407
   70MOL   H22429342   2.903   7.685   3.746  0.0042  1.2868 -0.9072
   70MOL   H22529343   2.914   7.617   3.583 -1.1153  0.9297 -0.6036
   70MOL   H22629344   3.086   7.502   3.588  0.0318 -1.6592 -0.9903
   70MOL   H22729345   3.280   7.357   3.613  2.1097 -0.6405  1.7546
   70MOL   H22829346   3.283   7.186   3.806 -0.5046 -1.3560 -2.3224
   70MOL   H22929347   3.079   7.139   3.926 -1.2687 -0.4174 -0.5462
   70MOL   H23029348   2.871   7.297   3.888  0.2400 -2.3500  1.6093
   70MOL   H23129349   2.468   7.712   3.556  0.1127  0.6147 -0.5822
   70MOL   H23229350   2.455   7.569   3.470 -0.7338  0.8226  0.1069
   70MOL   C23329351   2.455   7.523   3.676  0.5174 -1.1051 -0.4206
   70MOL   O23429352   2.424   7.619   3.779  0.4053  0.3583 -0.3944
   70MOL   C23529353   2.491   7.600   3.897  0.6008  0.2348 -0.4690
   70MOL   O23629354   2.451   7.476   3.949  0.4368  0.0024 -0.4801
   70MOL   C23729355   2.337   7.467   4.028 -0.1770 -0.0982 -0.3158
   70MOL   C23829356   2.303   7.345   4.092 -0.6301  0.2230  0.8788
   70MOL   C23929357   2.195   7.343   4.178 -0.2874  0.7129 -0.1072
   70MOL   C24029358   2.116   7.454   4.207  0.1941 -0.2295 -0.0249
   70MOL   C24129359   2.141   7.573   4.136 -0.1518 -0.1080 -0.6459
   70MOL   C24229360   2.251   7.572   4.042 -0.7961 -0.0451  0.2825
   70MOL   C24329361   2.338   7.435   3.644 -0.4326 -0.9569  0.4383
   70MOL   H24429362   2.543   7.465   3.704  0.5335  0.2922  2.5424
   70MOL   H24529363   2.466   7.677   3.970  0.7192  0.6984 -0.9186
   70MOL   H24629364   2.598   7.606   3.876  1.1450 -2.0918  1.3940
   70MOL   H24729365   2.360   7.254   4.078 -0.6497 -0.0856  2.7144
   70MOL   H24829366   2.166   7.262   4.244  1.4547  1.2140  1.3038
   70MOL   H24929367   2.032   7.443   4.274  0.7153 -3.4341  0.1683
   70MOL   H25029368   2.085   7.665   4.138 -0.1063 -0.0784 -0.7485
   70MOL   H25129369   2.254   7.662   3.982 -1.0058 -0.5228 -0.4531
   70MOL   H25229370   2.377   7.346   3.594 -0.9816 -0.8131 -0.2433
   70MOL   H25329371   2.304   7.397   3.741  1.8789  0.0778  1.6880
   70MOL   C25429372   2.219   7.496   3.568 -0.0677 -0.6857  0.1908
   70MOL   O25529373   2.237   7.513   3.426  0.6031  0.1677  0.1978
   70MOL   C25629374   2.173   7.624   3.373  0.6311 -0.5803  0.1966
   70MOL   O25729375   2.244   7.745   3.393  0.1255 -0.2028 -0.4457
   70MOL   C25829376   2.218   7.853   3.320  0.0542 -0.6318  0.7324
   70MOL   C25929377   2.094   7.878   3.253  0.3108  0.0551 -0.2082
   70MOL   C26029378   2.087   0.025   3.182  0.5137  0.1870 -0.5163
   70MOL   C26129379   2.186   0.119   3.191  0.5860 -0.1722 -0.2240
   70MOL   C26229380   2.311   0.093   3.248 -0.6101  0.1054 -0.0587
   70MOL   C26329381   2.324   7.950   3.322  0.7965 -0.0890 -0.2436
   70MOL   C26429382   2.090   7.404   3.578 -0.3940 -0.0245  0.0654
   70MOL   H26529383   2.187   7.593   3.604  1.8163 -0.6250  1.7413
   70MOL   H26629384   2.068   7.632   3.401  0.5791 -1.5870  0.3148
   70MOL   H26729385   2.171   7.613   3.265 -3.5100  0.8306  0.0584
   70MOL   H26829386   2.006   7.817   3.256  0.9211 -0.8190  0.0696
   70MOL   H26929387   1.993   0.048   3.134 -0.6243 -1.8413  0.6222
   70MOL   H27029388   2.168   0.213   3.141  1.6217  0.0718 -0.1624
   70MOL   H27129389   2.393   0.161   3.232 -0.1346 -0.4879 -0.1469
   70MOL   H27229390   2.413   7.908   3.367 -0.2584 -1.6415  0.4178
   70MOL   H27329391   2.022   7.440   3.501  2.9802  1.5267 -2.2740
   70MOL   H27429392   2.105   7.298   3.560  0.7600  0.3593 -1.2988
   70MOL   C27529393   2.015   7.429   3.715  0.0886  0.5897 -0.2400
   70MOL   O27629394   1.969   7.563   3.706  0.7457  0.2025 -0.0412
   70MOL   C27729395   1.946   7.635   3.825 -0.7091 -0.3158  0.5168
   70MOL   O27829396   1.829   7.593   3.892 -0.2631  0.5097  0.4068
   70MOL   C27929397   1.708   7.597   3.831  0.1210 -0.8534  0.2653
   70MOL   C28029398   1.687   7.641   3.702 -0.1732  0.0864  0.8000
   70MOL   C28129399   1.565   7.642   3.642  0.2440  0.5281 -0.2810
   70MOL   C28229400   1.447   7.603   3.714 -0.1645 -0.2029  0.7417
   70MOL   C28329401   1.463   7.566   3.851 -0.6492  0.3434 -0.9193
   70MOL   C28429402   1.594   7.571   3.910  0.5413 -0.0245 -0.2070
   70MOL   C28529403   1.899   7.325   3.723  0.5774  0.2521  0.1329
   70MOL   H28629404   2.087   7.405   3.793 -1.0817 -3.6122 -0.3713
   70MOL   H28729405   1.937   7.742   3.807 -2.2654 -0.2839  1.4412
   70MOL   H28829406   2.038   7.613   3.879  0.6509  2.7676 -0.4402
   70MOL   H28929407   1.768   7.670   3.637  1.8294 -1.2606  2.6331
   70MOL   H29029408   1.556   7.659   3.536 -0.3457 -1.9059 -0.6528
   70MOL   H29129409   1.354   7.581   3.663  0.1112 -1.1296  0.6371
   70MOL   H29229410   1.376   7.529   3.903  0.4632 -0.4756  0.3894
   70MOL   H29329411   1.607   7.547   4.015  0.6496  1.3325  0.1016
   70MOL   H29429412   1.841   7.348   3.634  2.7227 -0.0464 -1.3881
   70MOL   H29529413   1.840   7.340   3.813 -1.0089 -1.6319 -0.5744
   70MOL   C29629414   1.948   7.174   3.735  0.2084  0.1083 -0.0173
   70MOL   O29729415   2.021   7.145   3.850 -0.4858 -0.0979  0.0250
   70MOL   C29829416   2.156   7.092   3.844  0.2105  1.1921  0.7972
   70MOL   O29929417   2.171   6.952   3.848  0.1962 -0.2560 -0.1785
   70MOL   C30029418   2.108   6.887   3.947  0.8942 -0.0503 -0.8528
   70MOL   C30129419   2.069   6.943   4.070 -0.0584 -0.0304  0.0178
   70MOL   C30229420   2.003   6.873   4.174 -0.3390  0.2363  0.0739
   70MOL   C30329421   1.982   6.737   4.143 -0.5686  0.1616  0.5772
   70MOL   C30429422   2.014   6.676   4.019 -1.2037  0.2330  0.0752
   70MOL   C30529423   2.084   6.751   3.919  0.0241  0.0235  0.4168
   70MOL   C30629424   1.819   7.085   3.730  0.1059 -0.3348  0.1862
   70MOL   H30729425   2.011   7.141   3.653  2.5720  1.1548  1.3079
   70MOL   H30829426   2.218   7.133   3.924 -0.3858 -0.1905  1.9874
   70MOL   H30929427   2.198   7.143   3.757 -1.0640  1.7863  0.5201
   70MOL   H31029428   2.105   7.042   4.097  1.2462 -1.0703  2.2349
   70MOL   H31129429   1.983   6.915   4.272  2.5643  0.1218  0.7549
   70MOL   H31229430   1.946   6.672   4.221  1.6685 -0.5412  1.0745
   70MOL   H31329431   2.007   6.571   3.998  1.7064 -0.0296  0.2852
   70MOL   H31429432   2.116   6.707   3.825 -0.4282 -0.4097  0.4647
   70MOL   H31529433   1.757   7.124   3.649  1.8034  0.7826 -0.6011
   70MOL   H31629434   1.760   7.103   3.820  1.0215  1.0337  0.5257
   70MOL   C31729435   1.820   6.932   3.683 -0.6210  0.2020 -0.0907
   70MOL   O31829436   1.859   6.924   3.547 -0.4782  0.2126  0.0917
   70MOL   C31929437   1.991   6.885   3.521 -0.0310 -0.3248  0.4110
   70MOL   O32029438   2.026   6.764   3.582  0.5023  1.0196  0.6879
   70MOL   C32129439   1.976   6.652   3.522 -0.1183 -0.1967  0.2431
   70MOL   C32229440   2.003   6.533   3.589  0.4177 -0.1407 -0.3167
   70MOL   C32329441   1.954   6.411   3.543  0.5913 -0.0714 -0.7918
   70MOL   C32429442   1.862   6.417   3.438 -0.6501  0.0837 -0.4622
   70MOL   C32529443   1.838   6.532   3.358 -0.2086 -0.0892 -0.5877
   70MOL   C32629444   1.888   6.653   3.411  0.2959 -0.0629  0.1358
   70MOL   C32729445   1.673   6.871   3.684  0.1213 -0.1964 -0.3833
   70MOL   H32829446   1.889   6.873   3.743  1.3027 -0.2071 -2.6113
   70MOL   H32929447   2.054   6.961   3.567  0.5702  0.5548 -1.7985
   70MOL   H33029448   2.026   6.876   3.419 -1.7634 -1.4820 -0.1074
   70MOL   H33129449   2.052   6.540   3.685 -1.4601  0.4031  0.6385
   70MOL   H33229450   1.965   6.318   3.598 -3.0135  0.7757  1.4961
   70MOL   H33329451   1.827   6.327   3.391 -0.6369  0.3663 -1.0251
   70MOL   H33429452   1.782   6.529   3.266 -2.9366 -3.4619  1.0401
   70MOL   H33529453   1.859   6.741   3.355  0.3764  0.2610  0.6041
   70MOL   H33629454   1.609   6.949   3.644 -0.0923 -0.4319 -0.5075
   70MOL   H33729455   1.678   6.784   3.618  0.8139  0.3235 -1.0387
   70MOL   C33829456   1.620   6.828   3.828  0.2210  0.6060 -0.0509
   70MOL   O33929457   1.484   6.811   3.806  0.0258  0.1631 -0.1349
   70MOL   C34029458   1.405   6.884   3.896  0.2573 -0.6032  0.0927
   70MOL   O34129459   1.421   7.026   3.876  0.2092 -0.4301 -0.0307
   70MOL   C34229460   1.339   7.110   3.954  0.2501  0.5178  0.5118
   70MOL   C34329461   1.217   7.058   4.013 -0.2076  0.0316  0.7526
   70MOL   C34429462   1.129   7.135   4.086  0.1743  0.2553 -0.3011
   70MOL   C34529463   1.175   7.269   4.115  0.3544  0.1464 -0.1816
   70MOL   C34629464   1.292   7.324   4.063 -0.4839  0.1152 -0.0688
   70MOL   C34729465   1.376   7.244   3.986 -0.6196 -0.0502 -0.2577
   70MOL   C34829466   1.693   6.704   3.891  0.2628  0.4090  0.6565
   70MOL   H34929467   1.637   6.914   3.893  2.7732 -0.4706  0.7896
   70MOL   H35029468   1.433   6.868   4.000  0.5186 -1.0771 -0.0536
   70MOL   H35129469   1.304   6.847   3.878 -0.3210  1.7347 -1.7634
   70MOL   H35229470   1.177   6.961   3.990 -1.8404  0.2645  2.4544
   70MOL   H35329471   1.038   7.100   4.133  0.5339  1.9748  1.7907
   70MOL   H35429472   1.111   7.324   4.182 -1.9836 -0.4533 -1.8377
   70MOL   H35529473   1.324   7.427   4.074  0.5032 -0.2178  0.1740
   70MOL   H35629474   1.469   7.277   3.941 -0.9387  3.4882  1.5036
   70MOL   H35729475   1.713   6.716   3.997 -0.4699 -1.3411  1.0069
   70MOL   H35829476   1.797   6.697   3.859  0.2337 -0.4969  0.7616
   70MOL   C35929477   1.616   6.571   3.889 -0.6627  0.5373 -0.8345
   70MOL   O36029478   1.511   6.582   3.992  0.0472 -0.3922  0.1440
   70MOL   C36129479   1.386   6.561   3.953  0.7472 -0.3076  0.1447
   70MOL   O36229480   1.293   6.622   4.042 -0.2484  0.1982  0.4821
   70MOL   C36329481   1.161   6.619   4.009 -0.5069  0.0038 -0.1641
   70MOL   C36429482   1.084   6.721   4.067  0.6488  0.8194 -0.2339
   70MOL   C36529483   0.946   6.734   4.040 -0.0220 -0.1024  0.2002
   70MOL   C36629484   0.888   6.656   3.940 -0.1625 -0.4907  0.0258
   70MOL   C36729485   0.961   6.548   3.887  0.0118  0.8995  0.1224
   70MOL   C36829486   1.094   6.525   3.925 -0.2328 -0.7783  0.7616
   70MOL   C36929487   1.703   6.459   3.938 -0.2777 -0.8811 -0.2007
   70MOL   H37029488   1.565   6.540   3.798 -0.0185 -1.4535 -0.5371
   70MOL   H37129489   1.373   6.453   3.960  1.0727 -0.3049  0.7774
   70MOL   H37229490   1.370   6.605   3.854 -0.1529  0.1775  0.4967
   70MOL   H37329491   1.131   6.779   4.144  0.4070 -1.7862  1.9304
   70MOL   H37429492   0.890   6.814   4.086 -1.2533 -1.7824  1.6997
   70MOL   H37529493   0.786   6.682   3.919 -1.1059 -1.3926  3.2761
   70MOL   H37629494   0.913   6.477   3.821 -0.6077  1.9793 -0.6154
   70MOL   H37729495   1.147   6.448   3.870 -1.6451 -0.6190 -0.8645
   70MOL   H37829496   1.718   6.466   4.046  0.2191 -0.5500 -0.2891
   70MOL   H37929497   1.806   6.467   3.903  0.1044 -0.4090  1.0220
   70MOL   C38029498   1.651   6.311   3.919  0.4531 -0.5090 -0.8906
   70MOL   O38129499   1.708   6.231   4.024 -0.1895 -0.0297  0.1562
   70MOL   C38229500   1.616   6.188   4.119 -0.3537  0.6933  0.0235
   70MOL   O38329501   1.680   6.146   4.235 -0.3228 -0.4267  0.6531
   70MOL   C38429502   1.614   6.119   4.351  0.1771 -0.0407  0.1339
   70MOL   C38529503   1.689   6.069   4.461 -0.2421  1.1279  0.1370
   70MOL   C38629504   1.627   6.057   4.590  0.0875 -0.8612  0.3892
   70MOL   C38729505   1.488   6.097   4.603 -0.1124  0.1830 -0.2958
   70MOL   C38829506   1.415   6.123   4.489 -0.1716 -0.3255 -0.1192
   70MOL   C38929507   1.476   6.141   4.367 -0.3683  0.2326  0.6879
   70MOL   C39029508   1.687   6.242   3.786 -0.7094 -0.3569  0.1442
   70MOL   H39129509   1.543   6.320   3.934  0.6098 -0.4612  0.2856
   70MOL   H39229510   1.544   6.259   4.158 -2.4364 -1.7419  0.7316
   70MOL   H39329511   1.551   6.110   4.079  0.3251  0.1341 -0.0230
   70MOL   H39429512   1.788   6.029   4.444 -1.4475 -3.3468  2.9028
   70MOL   H39529513   1.687   6.025   4.673  3.5233  0.4591 -1.4726
   70MOL   H39629514   1.443   6.088   4.701 -3.6250 -0.4717 -1.8877
   70MOL   H39729515   1.314   6.156   4.507 -0.0715 -0.7311  1.2949
   70MOL   H39829516   1.412   6.176   4.287  0.7995 -0.4559 -0.5703
   70MOL   H39929517   1.794   6.223   3.775 -0.3304  1.2111  0.9616
   70MOL   H40029518   1.658   6.312   3.707  2.0347 -0.4654 -0.9992
   70MOL   C40129519   1.600   6.118   3.751 -0.1654  0.0112 -0.5173
   70MOL   O40229520   1.464   6.143   3.724 -0.2675  0.1807 -0.3590
   70MOL   C40329521   1.365   6.082   3.797 -0.4630  0.5077  0.1546
   70MOL   O40429522   1.361   6.121   3.929 -0.7922  0.5978 -0.1740
   70MOL   C40529523   1.241   6.096   3.989  0.4845  0.3324 -0.5899
   70MOL   C40629524   1.162   5.982   3.961 -0.0273  0.3645  0.8689
   70MOL   C40729525   1.045   5.957   4.037  0.2812  0.1294  0.4405
   70MOL   C40829526   0.997   6.053   4.126 -0.1321 -0.1326  0.3666
   70MOL   C40929527   1.071   6.171   4.151 -0.7181 -0.4621  0.1352
   70MOL   C41029528   1.196   6.188   4.088  0.0629  0.7234  0.5459
   70MOL   C41129529   1.656   6.074   3.612  0.3684 -0.1983 -0.1594
   70MOL   H41229530   1.600   6.033   3.820  0.5351 -0.6573 -1.3302
   70MOL   H41329531   1.383   5.975   3.790  0.6411  0.4885  2.6162
   70MOL   H41429532   1.273   6.117   3.749  1.6287  3.3590 -1.9490
   70MOL   H41529533   1.197   5.913   3.886  0.5991  1.2732  0.3179
   70MOL   H41629534   0.982   5.871   4.017 -0.6223  1.0730 -0.7808
   70MOL   H41729535   0.901   6.042   4.175 -0.5228  0.3309 -0.2701
   70MOL   H41829536   1.051   6.244   4.227  1.4927 -0.9121  1.1837
   70MOL   H41929537   1.264   6.265   4.119 -0.7863  1.6603  0.1340
   70MOL   H42029538   1.680   6.146   3.534  1.0141 -0.9271 -0.6350
   70MOL   H42129539   1.588   6.000   3.570 -1.8304  1.9377 -0.4891
   70MOL   H42229540   1.750   6.020   3.624  1.2712  1.7512  1.8697
   71MOL     C129541   4.593   0.057   1.164  0.7033 -0.5758 -0.3556
   71MOL     O229542   4.605   0.103   1.301  0.0610 -0.2551 -0.4504
   71MOL     C329543   4.485   0.107   1.376 -0.6760 -0.1609 -0.2166
   71MOL     O429544   4.448   7.961   1.431  0.2519  0.4319 -0.2151
   71MOL     C529545   4.527   7.896   1.524  0.7851  0.5579 -1.0423
   71MOL     C629546   4.654   7.941   1.564  0.1556 -0.0170  0.4321
   71MOL     C729547   4.730   7.870   1.656 -0.0975 -0.0445  0.0889
   71MOL     C829548   4.673   7.754   1.716 -0.7237  0.2884 -0.4329
   71MOL     C929549   4.538   7.720   1.688  0.3237 -0.4014  0.4232
   71MOL    C1029550   4.468   7.787   1.589  0.4671 -0.0639 -0.2263
   71MOL    C1129551   4.716   7.944   1.128  0.4095 -0.3799 -0.6344
   71MOL    H1229552   4.497   0.004   1.155  1.4028 -1.9761  0.1975
   71MOL    H1329553   4.485   0.174   1.462 -0.7803  1.3173 -1.3498
   71MOL    H1429554   4.399   0.137   1.317  0.6997  0.0202 -2.1648
   71MOL    H1529555   4.711   0.041   1.512  1.2677 -1.9983 -1.3150
   71MOL    H1629556   4.827   7.903   1.691 -0.6701  1.2879  0.4412
   71MOL    H1729557   4.730   7.709   1.795 -1.0120 -2.5708 -1.8036
   71MOL    H1829558   4.492   7.642   1.747 -0.0233  1.2023  2.3371
   71MOL    H1929559   4.367   7.759   1.563  0.0774  0.8183  0.3457
   71MOL    H2029560   4.700   7.855   1.189 -0.5790  1.6923  2.2735
   71MOL    H2129561   4.808   0.019   1.159  0.5611 -0.2815 -1.2325
   71MOL    H2229562   4.585   0.147   1.104 -0.8304  0.2437  1.0179
   71MOL    C2329563   4.733   7.914   0.974  0.6877 -0.1025 -0.5689
   71MOL    O2429564   4.613   7.850   0.927  0.2635 -0.1674  0.0569
   71MOL    C2529565   4.572   7.883   0.797  0.3329  0.5284  0.6152
   71MOL    O2629566   4.652   7.836   0.692 -0.3143 -0.0145  0.6139
   71MOL    C2729567   4.662   7.703   0.670  0.1425 -0.1614 -0.4995
   71MOL    C2829568   4.572   7.604   0.729 -0.0385 -0.3278  0.1670
   71MOL    C2929569   4.601   7.465   0.710 -1.4743  0.9052 -0.4277
   71MOL    C3029570   4.706   7.423   0.627 -0.3740 -0.0124  0.0617
   71MOL    C3129571   4.794   7.515   0.568 -0.0305 -0.1943 -0.5609
   71MOL    C3229572   4.773   7.657   0.598 -0.6700 -0.2426  0.1105
   71MOL    C3329573   4.862   7.830   0.939  0.3602  0.2682  0.4594
   71MOL    H3429574   4.745   0.036   0.926 -2.8136  0.2950 -0.8052
   71MOL    H3529575   4.584   0.016   0.794  0.7890  0.4607 -0.4094
   71MOL    H3629576   4.469   7.850   0.780  1.4186 -1.5749 -2.2940
   71MOL    H3729577   4.487   7.629   0.790 -2.3835 -1.3302 -2.5787
   71MOL    H3829578   4.546   7.384   0.756  1.1364 -1.8027 -1.9277
   71MOL    H3929579   4.726   7.318   0.616  1.2396  0.3600 -0.6193
   71MOL    H4029580   4.882   7.489   0.513  1.8005  0.4417  1.9683
   71MOL    H4129581   4.846   7.729   0.565 -0.6314  0.3872  1.5375
   71MOL    H4229582   4.880   7.855   0.834 -1.2591 -0.8949 -0.1225
   71MOL    H4329583   4.829   7.726   0.940 -1.0805  0.7136  0.1212
   71MOL    C4429584   4.988   7.861   1.019  0.0001  0.1258 -0.9708
   71MOL    O4529585   5.022   0.019   1.006  0.6252 -0.4346  0.1007
   71MOL    C4629586   5.097   0.079   1.103  0.2558 -0.2030 -0.1000
   71MOL    O4729587   5.036   0.064   1.227 -0.3163  0.0233  0.0209
   71MOL    C4829588   5.111   0.101   1.342 -0.2672 -0.0429  0.2165
   71MOL    C4929589   5.039   0.142   1.460 -0.3233 -0.1652  0.3846
   71MOL    C5029590   5.102   0.191   1.577 -0.3162 -0.3341  0.5381
   71MOL    C5129591   5.238   0.209   1.580 -0.6469  0.4106  0.5187
   71MOL    C5229592   5.311   0.182   1.459  0.1236  0.2195 -0.5622
   71MOL    C5329593   5.249   0.124   1.344 -0.1113  0.3585  0.3314
   71MOL    C5429594   5.094   7.776   0.951  0.1054  0.3416 -0.7405
   71MOL    H5529595   4.970   7.826   1.121 -0.0891 -0.4072 -1.1697
   71MOL    H5629596   5.097   0.184   1.073  0.1801 -0.0707  0.3581
   71MOL    H5729597   5.199   0.041   1.097 -0.6974 -2.4777 -3.3833
   71MOL    H5829598   4.933   0.121   1.453 -0.4205  0.2104  0.6911
   71MOL    H5929599   5.051   0.211   1.669  0.0739 -1.3317  0.9800
   71MOL    H6029600   5.282   0.258   1.666 -1.7294  0.4036  1.0770
   71MOL    H6129601   5.414   0.212   1.449  0.1372  1.2156  2.2774
   71MOL    H6229602   5.309   0.110   1.256  0.4595 -2.5281  1.1220
   71MOL    H6329603   5.091   7.789   0.843  1.2226 -0.3174 -0.8576
   71MOL    H6429604   5.189   7.823   0.975 -0.6814 -0.0337  3.5192
   71MOL    C6529605   5.095   7.628   0.986  0.1375 -0.6562  0.6276
   71MOL    O6629606   5.171   7.557   0.900  0.0612 -0.2517 -0.3141
   71MOL    C6729607   5.111   7.522   0.783  0.1694 -0.4601  0.3765
   71MOL    O6829608   5.014   7.422   0.810 -0.1515 -0.5357  0.0990
   71MOL    C6929609   5.062   7.294   0.834 -0.1852 -0.4119 -0.5513
   71MOL    C7029610   5.049   7.230   0.965  0.7290  0.2315 -0.5164
   71MOL    C7129611   5.123   7.115   0.989  0.2395 -0.0689  0.1206
   71MOL    C7229612   5.188   7.048   0.887 -0.0391 -0.1760 -0.0088
   71MOL    C7329613   5.203   7.104   0.761 -1.1244  0.8940 -0.2472
   71MOL    C7429614   5.142   7.229   0.736 -0.3852  0.2877 -1.1682
   71MOL    C7529615   5.152   7.596   1.126  0.4596 -0.0147 -0.0289
   71MOL    H7629616   4.994   7.589   0.984 -0.3528  0.5804  0.6582
   71MOL    H7729617   5.185   7.479   0.715 -0.3146 -1.7225  0.6366
   71MOL    H7829618   5.057   7.607   0.741  1.0712 -0.9380 -1.8584
   71MOL    H7929619   4.994   7.281   1.043 -0.2050 -1.3180 -0.1357
   71MOL    H8029620   5.118   7.072   1.088  3.0417  2.2166  1.3335
   71MOL    H8129621   5.229   6.954   0.922 -0.9838 -1.2268 -1.6601
   71MOL    H8229622   5.251   7.043   0.687 -1.6834 -1.1103  1.0050
   71MOL    H8329623   5.178   7.275   0.645 -0.0631  0.7883 -0.7869
   71MOL    H8429624   5.109   7.671   1.193  1.2989  1.4732 -1.1369
   71MOL    H8529625   5.131   7.493   1.154 -0.9390  0.2960  0.1098
   71MOL    C8629626   5.299   7.621   1.157 -0.3390 -0.0733 -0.6304
   71MOL    O8729627   5.338   7.608   1.295  0.9785  0.9035 -0.2324
   71MOL    C8829628   5.310   7.711   1.385  0.5416  0.1006  0.0309
   71MOL    O8929629   5.373   7.831   1.358  0.6019 -0.7835 -0.4491
   71MOL    C9029630   5.510   7.830   1.371 -0.1118 -0.1184 -0.4116
   71MOL    C9129631   5.584   7.722   1.424 -0.6673  0.3609  0.0459
   71MOL    C9229632   5.725   7.731   1.431 -0.4333  0.2621 -1.0016
   71MOL    C9329633   5.785   7.849   1.395  0.0182 -0.1513  0.3741
   71MOL    C9429634   5.714   7.957   1.351 -0.7614  0.1230 -0.2024
   71MOL    C9529635   5.579   7.948   1.338 -0.2922  0.2074  0.4756
   71MOL    C9629636   5.406   7.533   1.081 -0.0486  0.7921 -0.4191
   71MOL    H9729637   5.321   7.725   1.132  1.3075 -0.2072  0.1691
   71MOL    H9829638   5.322   7.682   1.490 -0.6618  1.2251  0.4867
   71MOL    H9929639   5.204   7.732   1.392  0.0457 -1.2284 -2.8422
   71MOL   H10029640   5.541   7.639   1.477  1.7833  0.1801  1.8042
   71MOL   H10129641   5.791   7.653   1.466  0.2959 -0.1642 -3.2754
   71MOL   H10229642   5.892   7.858   1.408 -0.1221  1.1761  0.7200
   71MOL   H10329643   5.765   0.074   1.328 -2.3728  1.0826  0.0387
   71MOL   H10429644   5.526   0.056   1.293  0.7305  0.3938 -0.3900
   71MOL   H10529645   5.401   7.570   0.978  0.6906 -0.7315 -1.0144
   71MOL   H10629646   5.508   7.556   1.110  0.1500  0.9216 -1.2157
   71MOL   C10729647   5.400   7.376   1.088 -0.6467 -0.0541  0.4926
   71MOL   O10829648   5.520   7.337   1.020 -0.1596 -0.4589  0.0126
   71MOL   C10929649   5.502   7.218   0.952  0.0047 -0.6937 -0.6920
   71MOL   O11029650   5.593   7.202   0.842 -0.4643 -0.3749 -0.5808
   71MOL   C11129651   5.562   7.267   0.722  0.2491  0.7728  0.0542
   71MOL   C11229652   5.462   7.364   0.705 -0.5328  0.2507  0.4811
   71MOL   C11329653   5.435   7.423   0.580 -0.0633  0.0607  0.1772
   71MOL   C11429654   5.519   7.388   0.468 -0.1484 -0.8286  1.1015
   71MOL   C11529655   5.615   7.286   0.481  0.7072 -0.7021  0.2499
   71MOL   C11629656   5.635   7.226   0.604 -0.1917  0.5428  0.0972
   71MOL   C11729657   5.400   7.317   1.228  0.8214 -0.0685  0.6928
   71MOL   H11829658   5.314   7.341   1.031  0.6449 -1.2059 -0.7966
   71MOL   H11929659   5.406   7.186   0.911 -0.2754 -1.9278  0.8956
   71MOL   H12029660   5.522   7.131   1.014  0.2816  0.0491  0.2737
   71MOL   H12129661   5.394   7.402   0.781 -0.4053 -0.7886  1.1194
   71MOL   H12229662   5.355   7.494   0.571  0.7833  0.9241 -0.7247
   71MOL   H12329663   5.505   7.435   0.372 -0.3606 -2.1275  0.4819
   71MOL   H12429664   5.672   7.248   0.397  2.1598  0.1404  0.8403
   71MOL   H12529665   5.706   7.144   0.609  2.1086  2.4214 -0.6275
   71MOL   H12629666   5.380   7.210   1.220 -0.8369  0.2344  0.5884
   71MOL   H12729667   5.303   7.346   1.267  0.5191 -2.8685  2.2038
   71MOL   C12829668   5.518   7.358   1.323 -0.5310  1.2640  0.5466
   71MOL   O12929669   5.627   7.272   1.294  0.3378 -0.1872 -0.3275
   71MOL   C13029670   5.741   7.331   1.247 -0.2000  0.8390 -0.4559
   71MOL   O13129671   5.854   7.251   1.269  0.0892  0.1915 -0.1927
   71MOL   C13229672   5.979   7.307   1.263  0.1876  0.1367  0.1570
   71MOL   C13329673   6.009   7.441   1.228  0.4391  0.7924  0.4655
   71MOL   C13429674   6.143   7.488   1.231 -0.6609 -0.1292  1.0957
   71MOL   C13529675   6.254   7.406   1.272 -0.2753 -0.3749 -0.4181
   71MOL   C13629676   6.227   7.269   1.300 -0.1205  0.1245  0.3917
   71MOL   C13729677   6.088   7.222   1.295  0.5849  1.2499  0.5937
   71MOL   C13829678   5.489   7.337   1.473 -0.9046  0.4111 -0.7913
   71MOL   H13929679   5.539   7.465   1.312  0.6201  0.9898  0.0212
   71MOL   H14029680   5.761   7.423   1.302  0.9917 -0.9411  2.2213
   71MOL   H14129681   5.729   7.349   1.140 -0.1149 -0.9375 -0.7975
   71MOL   H14229682   5.929   7.509   1.203 -0.4556  0.4628  2.3538
   71MOL   H14329683   6.162   7.593   1.211 -0.4870 -0.0681  1.5655
   71MOL   H14429684   6.356   7.442   1.279 -0.7652  1.1308 -0.7761
   71MOL   H14529685   6.311   7.208   1.330 -0.1703 -0.3815 -0.4656
   71MOL   H14629686   6.064   7.125   1.336 -2.9700  2.3335  1.2268
   71MOL   H14729687   5.423   7.421   1.492 -1.1169  0.5621 -2.1401
   71MOL   H14829688   5.429   7.248   1.489  0.8682 -1.0368 -1.9469
   71MOL   C14929689   5.607   7.359   1.573  0.3413  0.6172  0.4560
   71MOL   O15029690   5.547   7.428   1.686 -0.3179 -0.1572 -0.5850
   71MOL   C15129691   5.633   7.466   1.786  0.2609 -0.0165 -0.2447
   71MOL   O15229692   5.567   7.525   1.895 -0.0229  0.5690  0.3993
   71MOL   C15329693   5.534   7.653   1.898  0.0097 -0.5753 -0.5525
   71MOL   C15429694   5.478   7.713   2.012  1.0533 -0.0821 -0.3718
   71MOL   C15529695   5.450   7.853   2.024  0.6018  0.4717 -0.4798
   71MOL   C15629696   5.472   7.929   1.907 -0.7846  0.3481 -0.0300
   71MOL   C15729697   5.517   7.873   1.782  0.6728 -0.4366 -0.1278
   71MOL   C15829698   5.553   7.738   1.784  0.7921 -0.2464  0.2065
   71MOL   C15929699   5.675   7.223   1.608 -0.0684  0.7749 -0.2135
   71MOL   H16029700   5.677   7.434   1.536  0.0837  0.0130 -1.3088
   71MOL   H16129701   5.678   7.378   1.832 -2.5914 -0.7252  1.2822
   71MOL   H16229702   5.705   7.528   1.732 -0.7210  0.0314 -1.5028
   71MOL   H16329703   5.457   7.644   2.092 -1.3357  1.2241  0.1596
   71MOL   H16429704   5.416   7.886   2.121 -0.2969 -0.4423 -0.4801
   71MOL   H16529705   5.458   0.060   1.909 -1.8635  0.2340 -1.0661
   71MOL   H16629706   5.530   7.939   1.698  1.2084  1.3286  1.3040
   71MOL   H16729707   5.584   7.694   1.691  0.6234  0.6177 -0.2638
   71MOL   H16829708   5.629   7.149   1.543  1.0587  0.1877 -0.3638
   71MOL   H16929709   5.632   7.194   1.704 -1.7143  4.4504  0.2455
   71MOL   C17029710   5.828   7.228   1.604 -0.1898  0.0073  0.2681
   71MOL   O17129711   5.868   7.310   1.711 -0.7558 -0.0004 -0.3591
   71MOL   C17229712   5.983   7.381   1.688 -0.9575 -0.2745  0.7407
   71MOL   O17329713   5.941   7.503   1.649  0.3924  0.2151  0.4056
   71MOL   C17429714   6.033   7.603   1.632  0.0159  0.0308 -0.0809
   71MOL   C17529715   5.987   7.735   1.650  0.6722 -0.0720 -0.2086
   71MOL   C17629716   6.070   7.848   1.641 -0.0055 -0.2569  0.1587
   71MOL   C17729717   6.209   7.826   1.615  0.0380 -0.3861 -0.1304
   71MOL   C17829718   6.258   7.696   1.588  0.4727  0.8247  0.2980
   71MOL   C17929719   6.170   7.588   1.599 -0.1565  0.3011 -0.2609
   71MOL   C18029720   5.887   7.086   1.629  0.2600 -0.4141 -0.0390
   71MOL   H18129721   5.865   7.256   1.505 -1.0192  1.1932  0.2931
   71MOL   H18229722   6.057   7.327   1.629 -0.1884  0.2761  1.1952
   71MOL   H18329723   6.025   7.402   1.787 -0.4254  0.5650  0.3419
   71MOL   H18429724   5.882   7.743   1.677  0.9803 -1.1776  1.4042
   71MOL   H18529725   6.025   7.945   1.654 -0.0484  0.0420 -2.0130
   71MOL   H18629726   6.277   7.910   1.614 -1.2405  0.7471 -5.2184
   71MOL   H18729727   6.363   7.674   1.577  0.2762  0.0854 -0.0729
   71MOL   H18829728   6.209   7.487   1.593  0.7113  0.5666  0.7172
   71MOL   H18929729   5.855   7.032   1.541 -1.7318 -2.0592  1.6350
   71MOL   H19029730   5.994   7.103   1.616  0.2227 -0.1851 -0.0562
   71MOL   C19129731   5.838   7.025   1.766 -0.3564  0.3090 -0.8991
   71MOL   O19229732   5.950   6.951   1.817 -0.5628  0.3537 -0.0655
   71MOL   C19329733   6.029   6.999   1.922 -0.0854 -0.1424 -0.1496
   71MOL   O19429734   6.098   7.118   1.880  0.5548  0.0538  0.3190
   71MOL   C19529735   6.176   7.190   1.963 -0.9116 -0.2662  0.1271
   71MOL   C19629736   6.260   7.288   1.916  0.0432 -0.8781 -0.5509
   71MOL   C19729737   6.351   7.358   1.995 -0.3125 -0.1013 -0.7338
   71MOL   C19829738   6.363   7.324   2.130  0.2899  0.4343  0.2354
   71MOL   C19929739   6.292   7.213   2.176  0.1838 -0.6576 -0.1619
   71MOL   C20029740   6.196   7.142   2.097 -0.2117 -0.2364  0.6631
   71MOL   C20129741   5.733   6.912   1.745 -0.4345  0.5162 -0.8854
   71MOL   H20229742   5.796   7.094   1.839 -0.0602  2.3714 -2.6082
   71MOL   H20329743   6.099   6.920   1.949  0.8277  0.5012 -0.5887
   71MOL   H20429744   5.954   7.020   1.998  0.0324  0.7664 -0.2804
   71MOL   H20529745   6.250   7.317   1.812 -0.0125 -0.2191 -0.3647
   71MOL   H20629746   6.415   7.436   1.956 -0.2963  0.2019 -0.1089
   71MOL   H20729747   6.441   7.361   2.195  3.4000 -0.3108 -2.9201
   71MOL   H20829748   6.315   7.181   2.276  0.1873 -0.3230 -0.0560
   71MOL   H20929749   6.142   7.057   2.136 -2.2321  0.6518 -0.1689
   71MOL   H21029750   5.647   6.953   1.693 -0.8345 -0.4885 -1.0209
   71MOL   H21129751   5.781   6.830   1.692  0.5721  0.4741  0.0618
   71MOL   C21229752   5.685   6.849   1.880 -0.1520 -0.3191 -0.4960
   71MOL   O21329753   5.613   6.956   1.945  0.2133  0.2940  0.1363
   71MOL   C21429754   5.602   6.947   2.084  0.2720  0.2043  0.4192
   71MOL   O21529755   5.722   6.955   2.153 -0.5229 -0.0694  0.0508
   71MOL   C21629756   5.767   7.081   2.181  0.1230  0.0859 -0.7021
   71MOL   C21729757   5.872   7.097   2.272  0.6014 -0.0971 -0.2724
   71MOL   C21829758   5.938   7.222   2.285 -0.6527  0.3952 -0.3049
   71MOL   C21929759   5.904   7.334   2.209 -0.3743  0.0839  0.3793
   71MOL   C22029760   5.806   7.314   2.107  0.1743  0.2627 -0.3487
   71MOL   C22129761   5.736   7.188   2.097  0.4574  0.1630 -0.1963
   71MOL   C22229762   5.600   6.725   1.861 -0.2853 -0.0337  0.8209
   71MOL   H22329763   5.770   6.825   1.944 -0.3486 -3.0735 -1.1775
   71MOL   H22429764   5.554   6.850   2.096  1.5099 -0.3254  1.2382
   71MOL   H22529765   5.524   7.016   2.116 -0.1188  0.7828 -1.7210
   71MOL   H22629766   5.902   7.015   2.336  0.5273 -0.1975 -0.3650
   71MOL   H22729767   6.019   7.221   2.357 -0.4460 -1.3716 -0.5337
   71MOL   H22829768   5.955   7.429   2.222  1.5398 -0.7779 -0.5540
   71MOL   H22929769   5.782   7.385   2.029  2.3536 -0.8454 -2.0393
   71MOL   H23029770   5.673   7.185   2.010  0.0708  0.1478  0.0840
   71MOL   H23129771   5.591   6.683   1.961  0.4208 -0.7251  0.5973
   71MOL   H23229772   5.499   6.736   1.820 -1.3093  0.0267  3.2306
   71MOL   C23329773   5.658   6.605   1.769 -0.5624  0.2916 -0.2034
   71MOL   O23429774   5.604   6.483   1.814  0.0418  0.1856  0.0903
   71MOL   C23529775   5.684   6.420   1.905  0.2416  0.1648  0.5453
   71MOL   O23629776   5.680   6.475   2.028  0.0550 -0.0276  0.6084
   71MOL   C23729777   5.639   6.399   2.132 -0.1124 -1.6683 -0.1324
   71MOL   C23829778   5.533   6.303   2.127 -0.2249 -0.0264  0.7606
   71MOL   C23929779   5.505   6.210   2.230  0.1418  0.0185 -0.2678
   71MOL   C24029780   5.588   6.215   2.344 -0.5674 -0.2224  0.4135
   71MOL   C24129781   5.681   6.315   2.360  0.6829 -0.3938 -0.2922
   71MOL   C24229782   5.705   6.406   2.257  0.6289  0.4545  0.0153
   71MOL   C24329783   5.600   6.608   1.622  0.1767  0.0979 -0.7498
   71MOL   H24429784   5.766   6.592   1.768 -0.5178  0.5188  1.3073
   71MOL   H24529785   5.785   6.415   1.864 -0.5832 -0.9029 -1.4364
   71MOL   H24629786   5.651   6.316   1.906  0.7460  0.0166  1.3645
   71MOL   H24729787   5.482   6.287   2.033  0.9575  0.0313  0.1017
   71MOL   H24829788   5.432   6.130   2.234  0.6676 -0.4188  0.7598
   71MOL   H24929789   5.572   6.140   2.421 -0.1804 -0.9721 -0.2236
   71MOL   H25029790   5.720   6.321   2.460  0.6696  0.3754 -0.3326
   71MOL   H25129791   5.782   6.478   2.281  1.0271  0.0884 -0.1420
   71MOL   H25229792   5.491   6.610   1.630  0.2444 -0.3256  0.2962
   71MOL   H25329793   5.601   6.700   1.562 -0.6475 -0.7570 -2.1149
   71MOL   C25429794   5.651   6.492   1.528 -0.1837  0.2954  0.9299
   71MOL   O25529795   5.536   6.426   1.492  0.2746  0.2115 -0.2452
   71MOL   C25629796   5.488   6.335   1.580  0.6537 -0.0162 -0.5266
   71MOL   O25729797   5.582   6.233   1.599 -0.1185 -0.0772  0.2396
   71MOL   C25829798   5.552   6.134   1.688  0.0796  0.5615 -0.2758
   71MOL   C25929799   5.476   6.160   1.803 -0.2005 -0.0361 -0.5543
   71MOL   C26029800   5.446   6.051   1.890  0.1376 -0.4523 -0.1052
   71MOL   C26129801   5.494   5.925   1.856  0.0677 -0.1132 -0.4813
   71MOL   C26229802   5.564   5.894   1.738 -0.7139  0.1119  0.2121
   71MOL   C26329803   5.597   6.005   1.661 -0.6611  0.1483  0.5246
   71MOL   C26429804   5.722   6.528   1.395  0.9838  0.3551  0.7019
   71MOL   H26529805   5.713   6.424   1.587 -0.1423 -0.4805 -0.0013
   71MOL   H26629806   5.399   6.283   1.545 -0.3461 -0.7072  2.8849
   71MOL   H26729807   5.451   6.386   1.669 -0.2747 -1.0672 -0.2961
   71MOL   H26829808   5.442   6.258   1.831  2.3287  0.2448  1.8376
   71MOL   H26929809   5.381   6.067   1.974  0.9400  1.7748  0.1278
   71MOL   H27029810   5.466   5.846   1.926  0.7395  1.1099  1.2023
   71MOL   H27129811   5.606   5.796   1.723  0.7851  0.9793 -1.4186
   71MOL   H27229812   5.653   5.989   1.571 -2.4583  1.4568 -0.8559
   71MOL   H27329813   5.725   6.446   1.323 -2.1710  0.9454 -0.1374
   71MOL   H27429814   5.654   6.594   1.342  1.7294  0.6726  0.1251
   71MOL   C27529815   5.861   6.592   1.404 -0.2801 -0.2322  0.2558
   71MOL   O27629816   5.840   6.733   1.426 -0.1770  0.4531  0.5191
   71MOL   C27729817   5.885   6.815   1.328 -0.1746  0.7397 -0.3735
   71MOL   O27829818   5.808   6.803   1.210  0.0842  0.1031  0.1649
   71MOL   C27929819   5.674   6.837   1.222  0.1003  0.5295  0.9607
   71MOL   C28029820   5.620   6.895   1.336  0.3432  0.0321 -0.7859
   71MOL   C28129821   5.485   6.922   1.344  0.5229 -0.5369  0.9327
   71MOL   C28229822   5.398   6.893   1.235 -0.7227  0.0147  0.3178
   71MOL   C28329823   5.454   6.825   1.120  0.0840 -0.3813 -0.2389
   71MOL   C28429824   5.589   6.799   1.115  0.4129 -0.0707  0.2289
   71MOL   C28529825   5.955   6.540   1.510 -0.2783 -0.3168  0.0242
   71MOL   H28629826   5.918   6.583   1.311 -1.7740  2.2551 -0.9395
   71MOL   H28729827   5.989   6.791   1.309  0.1315  0.7020  1.3054
   71MOL   H28829828   5.886   6.921   1.351  0.0827  0.6060  0.2213
   71MOL   H28929829   5.682   6.924   1.420  2.1413  0.6184 -2.2831
   71MOL   H29029830   5.443   6.965   1.434  1.2963 -1.9955  2.0266
   71MOL   H29129831   5.294   6.919   1.242 -0.9107 -0.8125  0.5607
   71MOL   H29229832   5.391   6.801   1.035  0.7550 -1.7131 -0.3626
   71MOL   H29329833   5.639   6.764   1.026 -0.2237  1.1958 -0.6500
   71MOL   H29429834   5.959   6.433   1.489  0.9008 -0.0189 -1.3343
   71MOL   H29529835   5.906   6.543   1.607 -1.1464 -0.2834 -0.4061
   71MOL   C29629836   6.094   6.606   1.518  0.7183 -0.1873  0.2357
   71MOL   O29729837   6.161   6.623   1.397  0.2500  0.1565  0.2808
   71MOL   C29829838   6.234   6.518   1.346 -0.3861 -0.1500 -0.0580
   71MOL   O29929839   6.156   6.409   1.306  0.1357 -0.3642  0.3830
   71MOL   C30029840   6.100   6.420   1.177 -0.1878 -0.3538 -0.2465
   71MOL   C30129841   6.105   6.528   1.090 -0.0478 -0.3533 -0.4638
   71MOL   C30229842   6.030   6.523   0.966  0.2734  0.3371  0.1247
   71MOL   C30329843   5.950   6.414   0.935 -0.3352 -0.2246  0.0998
   71MOL   C30429844   5.943   6.308   1.027  0.4095 -0.0676  0.3369
   71MOL   C30529845   6.014   6.312   1.145 -0.0762 -0.1916 -0.1367
   71MOL   C30629846   6.103   6.735   1.603  0.6960 -0.2098 -0.7400
   71MOL   H30729847   6.140   6.533   1.585  2.2494  0.6776  0.1577
   71MOL   H30829848   6.292   6.469   1.425  0.0389 -0.8334 -0.7852
   71MOL   H30929849   6.293   6.572   1.272 -1.7571 -0.8230 -1.6729
   71MOL   H31029850   6.174   6.609   1.107  1.8232 -2.2431  1.1863
   71MOL   H31129851   6.030   6.612   0.905 -0.0601  0.8850  0.9165
   71MOL   H31229852   5.887   6.417   0.848 -1.2931 -0.2822  0.7800
   71MOL   H31329853   5.879   6.222   1.015 -0.9368  0.8947  0.4127
   71MOL   H31429854   6.019   6.236   1.221 -2.8305 -0.3079 -0.0144
   71MOL   H31529855   6.032   6.720   1.685 -1.3394  1.4463 -2.1551
   71MOL   H31629856   6.081   6.824   1.544 -0.2729  1.1000  1.5442
   71MOL   C31729857   6.242   6.760   1.661  0.9143  0.2015 -0.4399
   71MOL   O31829858   6.351   6.755   1.570 -0.4055 -0.1441  0.5369
   71MOL   C31929859   6.352   6.846   1.472 -0.1754 -0.9098  0.5017
   71MOL   O32029860   6.343   6.976   1.514  0.1196 -0.2921 -0.4663
   71MOL   C32129861   6.455   7.060   1.520  0.1348 -0.7250 -0.7276
   71MOL   C32229862   6.425   7.190   1.566  0.1722 -0.5015  0.1748
   71MOL   C32329863   6.523   7.290   1.569  0.1921 -1.0052 -0.4729
   71MOL   C32429864   6.655   7.257   1.526 -0.1543 -0.3627  0.8336
   71MOL   C32529865   6.679   7.127   1.476  0.6967 -0.3241  0.1945
   71MOL   C32629866   6.580   7.032   1.469 -0.1134 -0.2218  0.6520
   71MOL   C32729867   6.283   6.674   1.785  0.5481  0.0646  0.5075
   71MOL   H32829868   6.233   6.862   1.698 -1.2111 -0.5423  1.1619
   71MOL   H32929869   6.263   6.829   1.411  0.8648 -2.0468 -0.7234
   71MOL   H33029870   6.429   6.821   1.400  1.0382  2.9027  0.4094
   71MOL   H33129871   6.326   7.208   1.606 -1.4778 -2.2625 -2.8494
   71MOL   H33229872   6.510   7.383   1.622 -1.0304 -1.2072 -0.3952
   71MOL   H33329873   6.731   7.334   1.526  0.6630 -1.1575  0.0060
   71MOL   H33429874   6.778   7.101   1.442  0.8882  2.8848 -2.0521
   71MOL   H33529875   6.616   6.933   1.445  0.8439  0.5727 -1.2213
   71MOL   H33629876   6.196   6.675   1.850  0.8465  1.8729  0.8854
   71MOL   H33729877   6.293   6.571   1.751  0.2731 -0.1139  0.9628
   71MOL   C33829878   6.418   6.711   1.846  0.2874  0.0352  0.3471
   71MOL   O33929879   6.386   6.819   1.931 -0.1795 -0.4665 -0.1863
   71MOL   C34029880   6.461   6.937   1.904  0.3691  0.7419 -0.0683
   71MOL   O34129881   6.605   6.923   1.914  0.2606 -0.4979 -0.1832
   71MOL   C34229882   6.690   7.031   1.902  1.3827 -0.2524 -0.1490
   71MOL   C34329883   6.640   7.159   1.878  0.3525  0.1701  0.1006
   71MOL   C34429884   6.726   7.263   1.875 -0.5790  0.0467 -0.4947
   71MOL   C34529885   6.866   7.249   1.891  0.0037  0.3408  0.6683
   71MOL   C34629886   6.918   7.126   1.922 -0.1619 -0.2047  0.2352
   71MOL   C34729887   6.827   7.016   1.923  0.0391  0.1936 -0.2171
   71MOL   C34829888   6.465   6.604   1.940 -0.4709 -0.4987  0.3890
   71MOL   H34929889   6.500   6.732   1.777  0.0891 -1.2661 -0.3166
   71MOL   H35029890   6.427   7.013   1.975  0.3540  1.5804 -0.9688
   71MOL   H35129891   6.443   6.977   1.805 -1.2474  2.6387  0.9595
   71MOL   H35229892   6.535   7.179   1.865  0.5538  0.5694 -1.0612
   71MOL   H35329893   6.695   7.361   1.842 -0.2019 -0.0722 -1.2141
   71MOL   H35429894   6.941   7.322   1.867  1.8566 -1.4554  0.8764
   71MOL   H35529895   7.025   7.121   1.927 -0.0447  1.2972 -0.5061
   71MOL   H35629896   6.867   6.917   1.937 -1.0500 -0.4321 -1.4586
   71MOL   H35729897   6.490   6.522   1.873 -0.2997  0.9597 -1.3869
   71MOL   H35829898   6.384   6.576   2.007 -1.5250 -2.0530 -1.4641
   71MOL   C35929899   6.597   6.624   2.015 -0.9000 -0.2372 -0.6592
   71MOL   O36029900   6.653   6.492   2.053  0.3381  0.3761 -0.3649
   71MOL   C36129901   6.747   6.457   1.956  0.4403 -0.0113 -0.4264
   71MOL   O36229902   6.862   6.539   1.960 -0.4549 -0.0319 -0.1590
   71MOL   C36329903   6.980   6.484   2.004 -0.3257  0.9344  0.0760
   71MOL   C36429904   7.035   6.365   1.949 -0.0960 -0.1584 -0.7003
   71MOL   C36529905   7.149   6.301   2.003  0.3302 -0.1637  0.0010
   71MOL   C36629906   7.211   6.363   2.112  0.2778  0.3288  0.3731
   71MOL   C36729907   7.175   6.494   2.156  0.0249 -0.9031 -0.2455
   71MOL   C36829908   7.058   6.552   2.101  0.1880 -0.2949 -0.3989
   71MOL   C36929909   6.577   6.690   2.154 -0.5206  0.0436 -0.6094
   71MOL   H37029910   6.671   6.685   1.964 -1.2760 -0.7077 -1.7826
   71MOL   H37129911   6.699   6.463   1.859 -0.3265 -1.6423 -0.1679
   71MOL   H37229912   6.778   6.353   1.968  1.5553  0.2293 -1.1264
   71MOL   H37329913   6.990   6.327   1.858 -0.8894 -2.9663  0.7995
   71MOL   H37429914   7.188   6.213   1.953 -3.6495 -2.6722  1.0710
   71MOL   H37529915   7.298   6.316   2.155 -1.1719 -1.3781  1.5241
   71MOL   H37629916   7.231   6.556   2.225  0.9799 -1.8360 -0.1684
   71MOL   H37729917   7.024   6.651   2.128  1.0813 -0.0298 -0.2281
   71MOL   H37829918   6.510   6.628   2.214 -0.2446  2.3255  2.1767
   71MOL   H37929919   6.538   6.791   2.141  1.1347  0.5957 -1.4024
   71MOL   C38029920   6.702   6.700   2.242 -0.0421 -0.1127 -0.3313
   71MOL   O38129921   6.684   6.625   2.358  0.1589  0.0185  0.0214
   71MOL   C38229922   6.699   6.484   2.347 -0.0054 -0.1727  0.1707
   71MOL   O38329923   6.682   6.420   2.477 -0.1813 -0.0962 -0.3852
   71MOL   C38429924   6.774   6.447   2.577 -0.4338 -0.1859  0.4796
   71MOL   C38529925   6.874   6.551   2.576  0.1428 -0.3697  0.3961
   71MOL   C38629926   6.949   6.574   2.689 -0.2718 -0.0304  0.4053
   71MOL   C38729927   6.945   6.483   2.798 -0.0794 -0.2537  0.0078
   71MOL   C38829928   6.854   6.372   2.793  0.0119 -0.6161 -0.1488
   71MOL   C38929929   6.770   6.360   2.685  0.4770  0.3941 -0.5483
   71MOL   C39029930   6.738   6.840   2.289 -0.0629 -0.0909  0.6769
   71MOL   H39129931   6.783   6.649   2.189  2.5301  1.1463  2.2739
   71MOL   H39229932   6.614   6.449   2.288  1.1228  1.1073 -2.2863
   71MOL   H39329933   6.786   6.451   2.291  0.6575  0.6150  0.7315
   71MOL   H39429934   6.885   6.635   2.508  1.3092  1.0430  2.2902
   71MOL   H39529935   7.027   6.649   2.696 -0.5129  0.3183 -0.6077
   71MOL   H39629936   7.018   6.487   2.878  0.5941  3.3655 -0.6870
   71MOL   H39729937   6.862   6.304   2.877  2.7979  1.5423  1.4546
   71MOL   H39829938   6.695   6.283   2.687  2.4761 -1.5579  0.9149
   71MOL   H39929939   6.782   6.901   2.210  0.6256  1.2574  2.0786
   71MOL   H40029940   6.817   6.829   2.363 -0.1765  1.6171  1.0866
   71MOL   C40129941   6.622   6.917   2.360  0.5756  1.0779  0.1171
   71MOL   O40229942   6.670   6.975   2.480  0.2277 -0.1515  0.0370
   71MOL   C40329943   6.660   6.894   2.590  0.4971  0.6762  0.2082
   71MOL   O40429944   6.706   6.950   2.700 -0.4556  1.0799 -0.1482
   71MOL   C40529945   6.688   6.894   2.823 -0.2964  0.9253 -0.4799
   71MOL   C40629946   6.672   6.756   2.835 -0.4519 -0.8336 -0.6166
   71MOL   C40729947   6.654   6.705   2.964  0.6664 -0.0276 -0.6222
   71MOL   C40829948   6.646   6.788   3.076 -0.7355  0.6947 -0.4100
   71MOL   C40929949   6.669   6.923   3.064  0.5602 -0.1820  0.0630
   71MOL   C41029950   6.694   6.971   2.937  0.1284  0.1319 -1.3435
   71MOL   C41129951   6.541   7.013   2.274  1.0676 -0.0923 -0.5765
   71MOL   H41229952   6.551   6.838   2.385 -0.7427  1.5453 -2.0143
   71MOL   H41329953   6.719   6.803   2.578 -0.4676 -0.1033  1.1902
   71MOL   H41429954   6.556   6.862   2.599  0.5220  0.1097 -1.3316
   71MOL   H41529955   6.686   6.678   2.762 -0.9260 -1.0584 -0.4714
   71MOL   H41629956   6.653   6.597   2.970 -1.3094  0.1331  4.3848
   71MOL   H41729957   6.657   6.754   3.178 -0.7941 -1.2796 -1.0339
   71MOL   H41829958   6.695   6.984   3.149  1.4028 -0.7430  0.2149
   71MOL   H41929959   6.726   7.074   2.932  2.4065 -0.5302 -0.8146
   71MOL   H42029960   6.605   7.061   2.200 -0.4138  1.8973 -0.6123
   71MOL   H42129961   6.487   7.089   2.331  0.3795 -1.2195  0.2967
   71MOL   H42229962   6.458   6.967   2.220 -0.7431  1.9484  0.4039
   72MOL     C129963   1.128   6.651   0.758  0.5595 -0.0047 -0.1562
   72MOL     O229964   1.048   6.540   0.787  0.2567  0.4309 -0.1280
   72MOL     C329965   1.108   6.417   0.815 -0.1742 -0.7941 -0.3037
   72MOL     O429966   1.200   6.381   0.715 -0.2191 -0.1687  0.4209
   72MOL     C529967   1.299   6.289   0.745 -0.1296 -0.3915 -0.3111
   72MOL     C629968   1.415   6.281   0.661  0.1509  1.1276 -0.4732
   72MOL     C729969   1.517   6.194   0.693 -0.1692  0.3105 -0.6571
   72MOL     C829970   1.508   6.106   0.800  0.0701  0.3329  0.2265
   72MOL     C929971   1.391   6.112   0.881 -0.0584  0.2610 -0.6613
   72MOL    C1029972   1.287   6.207   0.856 -0.6355  0.2075 -0.1660
   72MOL    C1129973   1.041   6.767   0.716  0.0133 -0.5128  0.0223
   72MOL    H1229974   1.184   6.689   0.843 -0.5018  0.1909  0.4753
   72MOL    H1329975   1.162   6.421   0.910  1.3533 -0.8915 -1.1490
   72MOL    H1429976   1.031   6.340   0.821  0.1282 -1.0423  0.4896
   72MOL    H1529977   1.412   6.337   0.569  0.9795 -0.0661 -1.2381
   72MOL    H1629978   1.607   6.191   0.634 -0.4880  0.5802 -1.1589
   72MOL    H1729979   1.591   6.042   0.824 -0.5807 -0.4538  0.3855
   72MOL    H1829980   1.381   6.041   0.962 -1.4805  1.7434  0.5064
   72MOL    H1929981   1.207   6.202   0.928 -1.2352  0.1824 -0.8317
   72MOL    H2029982   0.971   6.801   0.793 -1.5145 -1.6751 -0.8099
   72MOL    H2129983   0.970   6.744   0.637  0.7217  0.3554 -0.8769
   72MOL    H2229984   1.200   6.630   0.679 -0.2167 -0.5223 -0.7413
   72MOL    C2329985   1.127   6.889   0.687  0.0274 -0.9979 -1.0411
   72MOL    O2429986   1.204   6.930   0.800  0.2869  0.2164 -0.4196
   72MOL    C2529987   1.330   6.980   0.776  0.0317 -0.2291  0.3891
   72MOL    O2629988   1.423   6.877   0.749 -0.5744 -0.5700 -0.4359
   72MOL    C2729989   1.435   6.776   0.844  0.8063 -0.4621 -0.5049
   72MOL    C2829990   1.403   6.794   0.983 -0.4807  0.0526  0.2683
   72MOL    C2929991   1.429   6.688   1.075 -0.2557  0.1618  0.2648
   72MOL    C3029992   1.482   6.564   1.031  0.0913  0.7795  0.4999
   72MOL    C3129993   1.495   6.544   0.891 -0.7324  0.0513  0.9128
   72MOL    C3229994   1.476   6.653   0.802  0.5058 -0.6059  0.8573
   72MOL    C3329995   1.045   7.013   0.640  0.0469  0.3321  0.1771
   72MOL    H3429996   1.203   6.864   0.612  0.3255  1.3713 -1.5618
   72MOL    H3529997   1.370   7.029   0.865  2.0976 -2.6949  0.9024
   72MOL    H3629998   1.338   7.051   0.694  0.7155  0.1293  0.7523
   72MOL    H3729999   1.373   6.886   1.030 -0.4453  0.3337 -0.2554
   72MOL    H3830000   1.411   6.701   1.180  1.0188 -2.5543  0.8803
   72MOL    H3930001   1.509   6.484   1.099  0.9597  0.2269 -0.4857
   72MOL    H4030002   1.530   6.451   0.849  2.0626  0.2131  2.6893
   72MOL    H4130003   1.494   6.637   0.697  1.1128 -1.7312  1.1216
   72MOL    H4230004   1.118   7.094   0.637  1.2463 -0.7722 -1.2427
   72MOL    H4330005   0.975   7.037   0.720  1.3404  1.3587  1.0154
   72MOL    C4430006   0.974   6.993   0.499 -0.9040 -0.3371  0.2825
   72MOL    O4530007   1.034   7.094   0.416  0.3041  0.2749 -0.9232
   72MOL    C4630008   1.157   7.056   0.362 -0.6117  0.0776 -0.1305
   72MOL    O4730009   1.154   6.929   0.305 -0.0222 -0.0444 -0.4787
   72MOL    C4830010   1.269   6.855   0.309 -0.6460 -0.0861 -0.2016
   72MOL    C4930011   1.265   6.729   0.366 -0.5928  0.2170  0.4546
   72MOL    C5030012   1.382   6.650   0.368  0.7442  0.3555  0.3061
   72MOL    C5130013   1.499   6.695   0.311  0.5938 -0.4341 -0.0295
   72MOL    C5230014   1.504   6.826   0.258 -0.3179  0.0208 -0.8034
   72MOL    C5330015   1.386   6.902   0.249 -0.1426 -0.8945  0.1076
   72MOL    C5430016   0.823   7.021   0.506  0.6823  0.0617  0.4189
   72MOL    H5530017   0.986   6.892   0.461  0.5076  0.7347 -2.1965
   72MOL    H5630018   1.218   7.043   0.452 -1.6629 -1.7654  0.3563
   72MOL    H5730019   1.187   7.138   0.298 -1.1717  1.2419  1.0734
   72MOL    H5830020   1.171   6.697   0.407 -1.3242 -1.6987 -2.5962
   72MOL    H5930021   1.373   6.553   0.415 -3.3163  1.2746  1.6424
   72MOL    H6030022   1.580   6.624   0.306 -1.2197 -2.7180  1.4561
   72MOL    H6130023   1.598   6.855   0.213 -0.0748  0.7656  0.1631
   72MOL    H6230024   1.390   6.993   0.190  1.7090 -1.1127 -0.1253
   72MOL    H6330025   0.769   6.938   0.552 -0.3477  1.2393  1.3898
   72MOL    H6430026   0.793   7.114   0.555 -0.9441 -0.3036  0.1188
   72MOL    C6530027   0.759   7.035   0.368  0.1046  0.2730  0.3605
   72MOL    O6630028   0.774   6.908   0.305 -0.6692 -0.0121  0.6897
   72MOL    C6730029   0.856   6.909   0.187 -0.1941 -0.1760  0.6849
   72MOL    O6830030   0.791   6.957   0.068 -0.6360  0.6914 -0.0722
   72MOL    C6930031   0.698   6.876   0.009 -0.9267  0.0139 -0.0013
   72MOL    C7030032   0.668   6.744   0.054  0.5006 -0.6196 -0.4602
   72MOL    C7130033   0.557   6.674   0.004 -0.6440 -0.1576 -0.4595
   72MOL    C7230034   0.482   6.728   7.876  0.3097 -0.7376 -0.1792
   72MOL    C7330035   0.518   6.854   7.828 -0.0367 -0.5097  0.1546
   72MOL    C7430036   0.617   6.932   7.885 -0.2534  0.2581  0.3184
   72MOL    C7530037   0.605   7.049   0.387  0.3572  0.3388  0.5083
   72MOL    H7630038   0.799   7.120   0.312 -0.6894 -0.0018 -0.6606
   72MOL    H7730039   0.894   6.808   0.173  0.0073 -0.0664  0.4348
   72MOL    H7830040   0.940   6.974   0.211 -0.2293 -0.4096  1.4542
   72MOL    H7930041   0.719   6.691   0.134  1.2799  0.2473 -0.3793
   72MOL    H8030042   0.546   6.574   0.042 -0.6499 -0.1468 -0.4334
   72MOL    H8130043   0.406   6.668   7.828 -0.7158 -0.4339  1.0276
   72MOL    H8230044   0.466   6.903   7.746  0.4882 -0.6041 -0.2347
   72MOL    H8330045   0.634   7.027   7.836  2.4506 -0.6345 -0.5183
   72MOL    H8430046   0.575   6.948   0.415  0.6602 -0.6733 -2.6569
   72MOL    H8530047   0.582   7.116   0.470  1.9919  2.2279 -0.5326
   72MOL    C8630048   0.534   7.105   0.260 -0.2056 -0.1647 -0.1102
   72MOL    O8730049   0.394   7.062   0.286 -0.4600 -0.6236  0.0820
   72MOL    C8830050   0.352   6.950   0.210 -0.1425  0.0725  0.4191
   72MOL    O8930051   0.232   6.893   0.255 -0.6020 -0.2786 -0.1749
   72MOL    C9030052   0.121   6.953   0.213  0.2010  0.0569 -0.7980
   72MOL    C9130053   0.108   7.085   0.169 -0.4591  0.2563 -0.0632
   72MOL    C9230054   7.958   7.138   0.141  0.1213  0.5943  0.0322
   72MOL    C9330055   7.846   7.060   0.138  0.0130  0.3259 -0.0370
   72MOL    C9430056   7.857   6.925   0.185  0.0530 -0.1701  0.1529
   72MOL    C9530057   0.003   6.877   0.234 -0.1037  0.1033 -0.1078
   72MOL    C9630058   0.547   7.256   0.255  0.6586 -0.9144  0.4019
   72MOL    H9730059   0.568   7.055   0.169 -1.1303 -1.1999  0.0973
   72MOL    H9830060   0.434   6.878   0.211 -0.6613 -0.5299 -0.4678
   72MOL    H9930061   0.340   6.984   0.107  0.1213  0.0093  0.3676
   72MOL   H10030062   0.199   7.142   0.160  1.1532 -2.2624 -0.1366
   72MOL   H10130063   7.952   7.240   0.105  1.8558  1.2645  1.5545
   72MOL   H10230064   7.754   7.097   0.096 -0.1653  1.1830  1.0946
   72MOL   H10330065   7.772   6.861   0.202  0.2424  0.1556  2.6036
   72MOL   H10430066   0.002   6.778   0.277  2.4537  1.0535  2.2465
   72MOL   H10530067   0.494   7.283   0.347  1.0248  1.2015  0.0203
   72MOL   H10630068   0.649   7.291   0.267 -0.3978  2.9440 -0.9779
   72MOL   C10730069   0.462   7.302   0.134 -0.6629  0.1192  0.5095
   72MOL   O10830070   0.425   7.434   0.155  0.7279 -0.4858  0.2053
   72MOL   C10930071   0.300   7.459   0.203 -0.7314  0.2884  0.1845
   72MOL   O11030072   0.201   7.440   0.108 -0.3121 -0.2179  0.5035
   72MOL   C11130073   0.171   7.541   0.016  0.7331  0.9893  0.0106
   72MOL   C11230074   0.241   7.666   0.012  0.2517  0.4550  0.3646
   72MOL   C11330075   0.197   7.774   7.908 -0.5522  0.1438 -0.1306
   72MOL   C11430076   0.080   7.761   7.825  0.0404 -0.4258 -0.5074
   72MOL   C11530077   0.002   7.646   7.842  0.1965 -0.1749  0.2007
   72MOL   C11630078   0.046   7.534   7.922 -0.3192 -0.3188 -0.3117
   72MOL   C11730079   0.543   7.289   0.008 -0.0636  0.4107 -0.0074
   72MOL   H11830080   0.369   7.248   0.114 -0.0547 -1.1356  1.0740
   72MOL   H11930081   0.293   7.559   0.246  3.6092  0.4522  0.7195
   72MOL   H12030082   0.286   7.383   0.281  1.1442 -2.2074 -1.8521
   72MOL   H12130083   0.328   7.676   0.075 -0.0428  0.5907  0.7511
   72MOL   H12230084   0.255   7.865   7.903 -1.6052  0.9326  1.5817
   72MOL   H12330085   0.045   7.839   7.758 -1.1130 -0.9917 -0.5806
   72MOL   H12430086   7.888   7.645   7.781  0.9473  0.8120 -0.9413
   72MOL   H12530087   7.955   7.450   7.935  1.4461 -1.8711 -1.0078
   72MOL   H12630088   0.603   7.198   0.004 -1.5028 -0.5312 -0.8463
   72MOL   H12730089   0.616   7.369   0.004  0.4829  0.0060  1.4081
   72MOL   C12830090   0.448   7.303   7.856 -0.5873  0.0160  0.0958
   72MOL   O12930091   0.352   7.199   7.858  0.4092  0.0343 -0.2935
   72MOL   C13030092   0.226   7.225   7.792  0.0100  0.4520  0.8534
   72MOL   O13130093   0.215   7.157   7.672  0.6468 -0.0589 -0.6564
   72MOL   C13230094   0.205   7.020   7.687 -0.5326 -0.0282 -0.4103
   72MOL   C13330095   0.157   6.947   7.804  0.2509 -0.1017  0.5403
   72MOL   C13430096   0.161   6.804   7.804  0.5446 -0.5519 -0.3434
   72MOL   C13530097   0.199   6.740   7.688  0.2033 -0.3316 -0.0604
   72MOL   C13630098   0.235   6.810   7.569 -0.3459 -0.3607 -0.3233
   72MOL   C13730099   0.240   6.948   7.573  0.0707 -0.3768 -0.6189
   72MOL   C13830100   0.527   7.287   7.725 -0.1917  0.1085  0.5992
   72MOL   H13930101   0.408   7.403   7.840  0.1775  0.1128 -1.3651
   72MOL   H14030102   0.213   7.330   7.765 -1.5799 -0.6512 -2.8623
   72MOL   H14130103   0.154   7.200   7.870 -3.1906  0.6093 -1.9407
   72MOL   H14230104   0.108   7.001   7.883  0.2568  0.9603 -0.1680
   72MOL   H14330105   0.118   6.738   7.878  2.4653  0.8411  2.1199
   72MOL   H14430106   0.192   6.632   7.686  2.5846 -0.5706  1.7762
   72MOL   H14530107   0.243   6.761   7.473 -0.7328  1.1089 -1.1313
   72MOL   H14630108   0.288   6.998   7.490  1.5155  1.9154  1.5190
   72MOL   H14730109   0.625   7.247   7.750  0.4384  1.5073  0.4459
   72MOL   H14830110   0.466   7.222   7.662 -1.2920  2.5993 -1.0099
   72MOL   C14930111   0.539   7.413   7.633 -0.2835  0.4174  0.6840
   72MOL   O15030112   0.652   7.406   7.550 -0.3889  0.1139  0.3395
   72MOL   C15130113   0.754   7.501   7.558  0.0212 -0.6879  0.3210
   72MOL   O15230114   0.805   7.503   7.687 -0.2120  0.1683  0.0569
   72MOL   C15330115   0.877   7.398   7.744  0.1218  0.2892  0.1227
   72MOL   C15430116   0.893   7.399   7.880  0.5157 -0.1667  0.2789
   72MOL   C15530117   0.961   7.293   7.941 -0.4730 -0.2570 -0.7748
   72MOL   C15630118   0.992   7.179   7.862 -0.2571  0.3344  0.0609
   72MOL   C15730119   0.967   7.168   7.719 -1.0159 -0.4358  0.5088
   72MOL   C15830120   0.908   7.288   7.668 -0.1322  0.2758 -0.8415
   72MOL   C15930121   0.420   7.438   7.541 -0.1935  0.4447  0.6192
   72MOL   H16030122   0.557   7.500   7.696 -0.2151  0.2013  0.9643
   72MOL   H16130123   0.829   7.463   7.488  1.8930  5.0423 -1.0292
   72MOL   H16230124   0.725   7.601   7.524  3.0448 -0.5086 -1.9744
   72MOL   H16330125   0.847   7.485   7.927 -0.3430  0.8635 -2.4010
   72MOL   H16430126   0.989   7.296   0.069 -0.0065  1.4698 -0.9399
   72MOL   H16530127   1.043   7.095   7.907 -0.2252 -0.7954 -2.0035
   72MOL   H16630128   1.005   7.085   7.662 -2.2614  0.5934 -1.8790
   72MOL   H16730129   0.897   7.292   7.561 -0.9689 -1.1659 -0.8327
   72MOL   H16830130   0.328   7.423   7.597  0.4990 -0.9354  1.3834
   72MOL   H16930131   0.432   7.352   7.475  1.3507  1.8420 -0.9800
   72MOL   C17030132   0.414   7.572   7.466 -0.1518  1.0206  0.2667
   72MOL   O17130133   0.312   7.570   7.367 -0.2427 -0.2358  0.4228
   72MOL   C17230134   0.363   7.555   7.234 -0.2495 -0.8819 -0.2289
   72MOL   O17330135   0.421   7.671   7.189  0.1863  0.2429  0.2658
   72MOL   C17430136   0.439   7.688   7.050  0.4676  1.5024  0.6001
   72MOL   C17530137   0.530   7.793   7.002 -0.5658  0.0631 -0.5270
   72MOL   C17630138   0.535   7.827   6.864  0.0397 -0.0946  1.2246
   72MOL   C17730139   0.465   7.748   6.773  0.4781  1.2280 -0.2519
   72MOL   C17830140   0.398   7.631   6.817 -0.3006 -0.0045  0.7273
   72MOL   C17930141   0.374   7.613   6.954 -0.5449  0.5135 -0.3690
   72MOL   C18030142   0.390   7.697   7.555  0.4404  0.2883 -0.8224
   72MOL   H18130143   0.510   7.575   7.413 -0.6005  1.7345 -0.5289
   72MOL   H18230144   0.267   7.544   7.184  0.9535 -0.8425 -2.6200
   72MOL   H18330145   0.429   7.470   7.214 -0.8279 -1.0472 -1.4847
   72MOL   H18430146   0.590   7.852   7.068  0.1428  1.2999 -2.2298
   72MOL   H18530147   0.592   7.914   6.836  0.0754 -0.6837 -0.5745
   72MOL   H18630148   0.481   7.771   6.669  0.5284 -0.5595 -0.6482
   72MOL   H18730149   0.332   7.577   6.750 -0.7278  2.0572 -0.5682
   72MOL   H18830150   0.309   7.530   6.976  0.3330 -0.5040 -1.5276
   72MOL   H18930151   0.285   7.720   7.571  0.0244 -2.3333  0.5298
   72MOL   H19030152   0.440   7.685   7.651 -1.2577 -4.0627 -0.3762
   72MOL   C19130153   0.449   7.824   7.499 -0.0423 -0.0531  0.8455
   72MOL   O19230154   0.584   7.820   7.545 -0.3280 -0.6210  0.1772
   72MOL   C19330155   0.673   7.880   7.458  0.1948 -0.3297 -0.0903
   72MOL   O19430156   0.707   7.789   7.356 -0.2996 -0.0333  0.2825
   72MOL   C19530157   0.809   7.819   7.271  0.4898 -0.4637 -0.2389
   72MOL   C19630158   0.861   7.949   7.254 -0.9214 -0.2852 -0.8011
   72MOL   C19730159   0.972   7.964   7.170  0.2199 -0.1449 -0.2873
   72MOL   C19830160   1.020   7.866   7.090  0.2242  0.0052  0.4615
   72MOL   C19930161   0.960   7.739   7.103 -0.7148  1.0362  0.1096
   72MOL   C20030162   0.852   7.716   7.187  0.4019 -0.3953 -0.3810
   72MOL   C20130163   0.372   7.948   7.544 -0.2908  0.0001  0.2781
   72MOL   H20230164   0.453   7.823   7.391  1.3782  0.9663  0.8817
   72MOL   H20330165   0.751   7.917   7.525 -0.5924 -0.4316  0.8951
   72MOL   H20430166   0.626   7.962   7.403  2.9433  0.2273 -1.7123
   72MOL   H20530167   0.832   0.056   7.316  0.0373 -0.0888 -0.6135
   72MOL   H20630168   1.009   0.089   7.181 -0.9221  0.2444  0.0741
   72MOL   H20730169   1.100   7.893   7.023  0.9832  2.4247  2.2699
   72MOL   H20830170   1.001   7.655   7.047  0.2338  2.5285 -1.5022
   72MOL   H20930171   0.802   7.621   7.194  2.2071 -1.2918  0.5353
   72MOL   H21030172   0.358   7.952   7.652  1.8238  0.7651  0.5396
   72MOL   H21130173   0.439   0.056   7.527 -1.8439  1.3338  0.6046
   72MOL   C21230174   0.228   7.975   7.488 -0.1665  0.1855  0.3254
   72MOL   O21330175   0.204   0.134   7.502  0.0986 -0.1708  0.5430
   72MOL   C21430176   0.071   0.168   7.534 -0.1083 -0.6319  0.3551
   72MOL   O21530177   0.051   0.132   7.665  0.1108 -0.1683 -0.1655
   72MOL   C21630178   7.932   0.202   7.738  0.0494 -0.0739 -0.1685
   72MOL   C21730179   7.940   0.183   7.874  0.3272 -0.1600  0.1717
   72MOL   C21830180   7.851   0.249   7.964  0.5495 -0.4390 -0.6403
   72MOL   C21930181   7.748   0.328   7.909 -0.0827 -0.0137 -0.1005
   72MOL   C22030182   7.746   0.350   7.769 -0.9571 -0.1836  0.3283
   72MOL   C22130183   7.840   0.292   7.684 -0.4667  0.3308 -0.1057
   72MOL   C22230184   0.195   7.924   7.350  0.0804  0.4725  0.2094
   72MOL   H22330185   0.159   7.926   7.557 -0.4832  1.0460  0.6382
   72MOL   H22430186   0.008   0.116   7.462  1.7049 -1.3865 -0.7077
   72MOL   H22530187   0.073   0.277   7.533  1.4612 -0.6527 -0.0028
   72MOL   H22630188   0.052   0.133   7.913  0.8345  0.1296 -0.6011
   72MOL   H22730189   7.870   0.244   0.095 -0.8072 -1.4246 -0.4322
   72MOL   H22830190   7.677   0.382   7.970  1.3548  1.1347  0.5974
   72MOL   H22930191   7.674   0.419   7.727  0.1974  0.3587 -0.7887
   72MOL   H23030192   7.834   0.329   7.583  0.2023 -0.3196 -0.3853
   72MOL   H23130193   0.239   7.825   7.335 -1.3260 -0.0120 -0.8125
   72MOL   H23230194   0.088   7.907   7.344  0.4851 -2.1641 -0.5446
   72MOL   C23330195   0.246   0.050   7.240  0.2948  0.3922  0.1022
   72MOL   O23430196   0.388   0.062   7.242 -0.6633 -0.3670 -0.7407
   72MOL   C23530197   0.438   0.194   7.254 -1.2771 -0.2378 -0.7542
   72MOL   O23630198   0.577   0.203   7.223  0.0550  0.3655 -0.3953
   72MOL   C23730199   0.613   0.219   7.090  0.4681 -0.3799  0.3167
   72MOL   C23830200   0.745   0.253   7.058  0.4184 -0.2900  0.4826
   72MOL   C23930201   0.787   0.258   6.923 -0.4875 -0.6256  0.5441
   72MOL   C24030202   0.687   0.257   6.821 -0.0902  0.0519 -0.2125
   72MOL   C24130203   0.553   0.222   6.851 -0.6930 -0.8816 -0.0796
   72MOL   C24230204   0.518   0.205   6.986 -0.5857 -0.4256 -0.4971
   72MOL   C24330205   0.212   7.967   7.097 -0.2947 -0.5359  0.6633
   72MOL   H24430206   0.197   0.145   7.264 -0.4260  0.2341 -0.6920
   72MOL   H24530207   0.427   0.221   7.359  1.0076 -0.6567 -0.3896
   72MOL   H24630208   0.391   0.272   7.194 -0.0760  0.4895 -0.7660
   72MOL   H24730209   0.814   0.270   7.139  0.1359 -0.7904  0.8239
   72MOL   H24830210   0.889   0.281   6.895 -1.2252 -0.7845 -2.3984
   72MOL   H24930211   0.725   0.252   6.720  2.2644 -2.5906  0.7420
   72MOL   H25030212   0.480   0.195   6.777 -0.5522 -1.1783 -0.1083
   72MOL   H25130213   0.418   0.179   7.019 -0.5679  1.3984  1.0726
   72MOL   H25230214   0.291   0.022   7.028 -0.7627  0.8236  0.7146
   72MOL   H25330215   0.227   7.859   7.105  1.5203 -0.2322  1.6423
   72MOL   C25430216   0.073   0.038   7.048  0.2455  0.4435 -0.0418
   72MOL   O25530217   0.092   0.167   6.985  0.2457  0.0289  0.3924
   72MOL   C25630218   7.949   0.239   7.001 -0.6207 -0.1944  0.3322
   72MOL   O25730219   7.931   0.292   7.128 -0.2170  0.8750 -0.1238
   72MOL   C25830220   0.049   0.376   7.184  0.0566 -0.1396 -0.9604
   72MOL   C25930221   0.170   0.408   7.123  0.1143 -0.0465 -0.3462
   72MOL   C26030222   0.255   0.504   7.191  0.0888  0.1957  0.0592
   72MOL   C26130223   0.216   0.558   7.320 -0.7941  0.0967 -0.2554
   72MOL   C26230224   0.092   0.526   7.376  0.1545  0.6386  0.3135
   72MOL   C26330225   0.014   0.422   7.314  0.4007  1.3856 -0.0132
   72MOL   C26430226   0.023   7.925   6.931  0.3653 -0.1771 -0.3588
   72MOL   H26530227   7.975   0.049   7.127  2.1323  0.2789  1.7682
   72MOL   H26630228   7.856   0.184   6.985 -1.2298  1.0321 -0.4254
   72MOL   H26730229   7.938   0.316   6.924 -0.6182 -0.6383 -0.1144
   72MOL   H26830230   0.196   0.379   7.022  1.1892  0.5986 -0.2654
   72MOL   H26930231   0.345   0.544   7.146 -0.9554  1.2313 -1.1299
   72MOL   H27030232   0.279   0.628   7.372  0.5857 -2.6456  1.9009
   72MOL   H27130233   0.051   0.561   7.470 -1.4668  0.3439 -0.2723
   72MOL   H27230234   7.893   0.388   7.347  1.6864 -1.8995  0.5167
   72MOL   H27330235   7.911   7.975   6.890 -1.1162 -0.0135  2.8761
   72MOL   H27430236   0.103   7.911   6.858  1.8970  0.2013  1.2019
   72MOL   C27530237   7.953   7.784   6.971 -0.0659 -0.5035 -0.0838
   72MOL   O27630238   7.844   7.804   7.067  0.1126 -0.2189  0.2252
   72MOL   C27730239   7.820   7.710   7.170  0.1168  0.7388  0.1817
   72MOL   O27830240   7.923   7.709   7.262  0.2000 -0.1469  0.4966
   72MOL   C27930241   7.906   7.626   7.374 -0.6765 -0.1124  0.3693
   72MOL   C28030242   0.037   7.615   7.470 -0.3853 -0.5361  0.4771
   72MOL   C28130243   0.026   7.518   7.571 -0.0251  0.0747  0.1894
   72MOL   C28230244   7.891   7.438   7.590  0.6150  0.0630 -0.1747
   72MOL   C28330245   7.782   7.456   7.508  0.3700  0.7578 -0.4033
   72MOL   C28430246   7.793   7.544   7.398 -0.4374 -0.7468 -0.3484
   72MOL   C28530247   7.865   7.720   6.856  0.7570 -0.3931 -0.0940
   72MOL   H28630248   0.057   7.729   7.022  0.2166  0.8351  0.9605
   72MOL   H28730249   7.796   7.615   7.124  1.7411  0.6351 -0.4904
   72MOL   H28830250   7.732   7.746   7.222 -0.9680 -1.8565  0.1934
   72MOL   H28930251   0.122   7.681   7.459 -1.0406 -0.1438 -2.7626
   72MOL   H29030252   0.112   7.498   7.632  0.1956  0.8037  0.1227
   72MOL   H29130253   7.897   7.369   7.672 -0.3024  0.0587 -0.1061
   72MOL   H29230254   7.689   7.402   7.510 -0.3821  1.9285 -2.4685
   72MOL   H29330255   7.707   7.554   7.334  0.0733  0.1611 -0.9079
   72MOL   H29430256   7.795   7.793   6.816  1.6852 -0.4695 -1.9024
   72MOL   H29530257   7.810   7.637   6.899 -0.9851  0.2750 -0.9473
   72MOL   C29630258   7.959   7.658   6.741  0.5629 -0.8238 -0.2165
   72MOL   O29730259   7.945   7.519   6.744  0.0434  0.3939 -0.6321
   72MOL   C29830260   0.053   7.438   6.816  0.3281  0.1769  0.2099
   72MOL   O29930261   0.013   7.432   6.953  0.0563 -0.6020 -0.2574
   72MOL   C30030262   7.878   7.366   6.985 -0.0287 -0.0261 -0.4652
   72MOL   C30130263   7.867   7.341   7.124 -0.1220 -0.1223  0.1587
   72MOL   C30230264   7.756   7.270   7.172  0.2606 -0.7244 -0.2434
   72MOL   C30330265   7.662   7.220   7.083  0.3614 -0.2280 -0.6700
   72MOL   C30430266   7.680   7.245   6.942  0.3146 -1.0142 -0.3960
   72MOL   C30530267   7.783   7.316   6.894  0.3014  0.0190 -0.1520
   72MOL   C30630268   7.917   7.715   6.603 -1.0890 -0.1314  0.5906
   72MOL   H30730269   0.089   7.683   6.749  0.0885  0.9713  0.8965
   72MOL   H30830270   0.156   7.475   6.811  0.1718  0.5500 -0.3082
   72MOL   H30930271   0.048   7.335   6.781  0.2006  0.3433 -0.2608
   72MOL   H31030272   7.943   7.383   7.188 -0.3636 -1.4736  1.3405
   72MOL   H31130273   7.743   7.249   7.278 -0.1613  1.0346  0.0735
   72MOL   H31230274   7.576   7.162   7.114  0.1241  0.4244 -0.0919
   72MOL   H31330275   7.602   7.202   6.882  0.8291 -2.1006 -0.2970
   72MOL   H31430276   7.784   7.339   6.788 -1.3993 -0.1591 -0.2164
   72MOL   H31530277   7.809   7.723   6.595 -0.9622  2.2951  1.1233
   72MOL   H31630278   7.956   7.646   6.528  0.6638  0.4606  0.9231
   72MOL   C31730279   7.974   7.854   6.563  0.0456  0.3376 -0.8809
   72MOL   O31830280   7.923   7.913   6.439 -0.7027  0.5034  0.4355
   72MOL   C31930281   7.859   7.836   6.340  0.8339  0.1470 -0.5630
   72MOL   O32030282   7.948   7.744   6.275  0.5734 -0.3676  1.2527
   72MOL   C32130283   7.889   7.621   6.253 -0.3452 -0.3934  0.0591
   72MOL   C32230284   7.964   7.502   6.236  0.3581  0.2317 -0.3345
   72MOL   C32330285   7.901   7.382   6.188 -0.0869 -0.4871  0.4900
   72MOL   C32430286   7.761   7.381   6.173 -0.2465 -0.5481 -0.2165
   72MOL   C32530287   7.682   7.496   6.205 -0.6650  0.2116  0.6078
   72MOL   C32630288   7.747   7.616   6.236  0.0977 -0.0486 -0.5503
   72MOL   C32730289   0.142   7.861   6.544 -0.4135 -0.3199 -0.2862
   72MOL   H32830290   7.956   7.924   6.644 -0.5433  0.7529 -1.3640
   72MOL   H32930291   7.811   7.910   6.276  0.1515  1.6298  1.5837
   72MOL   H33030292   7.782   7.793   6.403  1.6017 -0.6727 -0.1701
   72MOL   H33130293   0.096   7.504   6.239  0.3823 -0.7385 -0.5118
   72MOL   H33230294   7.961   7.296   6.162  0.4273 -0.3946  1.3454
   72MOL   H33330295   7.713   7.287   6.150  0.3344 -0.7563 -0.6252
   72MOL   H33430296   7.576   7.498   6.187 -0.3941  1.7728 -0.9539
   72MOL   H33530297   7.683   7.702   6.244 -0.2809 -0.1922 -1.9077
   72MOL   H33630298   0.191   7.807   6.626  0.6076 -0.1079 -0.7533
   72MOL   H33730299   0.165   7.802   6.455  0.7601  0.6326 -0.6267
   72MOL   C33830300   0.204   0.028   6.520 -0.0525 -0.0865 -1.0243
   72MOL   O33930301   0.192   0.096   6.639 -0.2936  0.3133 -0.4653
   72MOL   C34030302   0.113   0.209   6.637 -0.4961  0.5536 -0.6201
   72MOL   O34130303   0.193   0.321   6.628 -0.4950  0.0162 -0.1866
   72MOL   C34230304   0.152   0.424   6.543 -0.1755  0.1018 -0.6643
   72MOL   C34330305   0.190   0.557   6.562  0.4352 -0.0936 -0.0288
   72MOL   C34430306   0.158   0.661   6.475  0.7968  0.1902 -0.5186
   72MOL   C34530307   0.088   0.623   6.355 -0.9570  0.3026  0.7563
   72MOL   C34630308   0.068   0.487   6.322  0.0100  0.2270 -0.2018
   72MOL   C34730309   0.098   0.389   6.419 -0.5024  0.2159  0.5072
   72MOL   C34830310   0.355   0.038   6.500 -0.2982  0.7747  0.4097
   72MOL   H34930311   0.157   0.078   6.436  1.6429  2.0478 -0.7433
   72MOL   H35030312   0.073   0.223   6.738  0.0198 -2.6801  0.0605
   72MOL   H35130313   0.022   0.199   6.578  0.0337  1.9205 -1.7055
   72MOL   H35230314   0.248   0.573   6.652  0.1269 -0.7344  0.2891
   72MOL   H35330315   0.181   0.765   6.494 -1.1342  0.6003 -0.3367
   72MOL   H35430316   0.064   0.705   6.289 -1.3560  0.0192  0.5506
   72MOL   H35530317   0.022   0.454   6.229 -1.0142  0.0449  0.3568
   72MOL   H35630318   0.084   0.285   6.394 -1.1599  0.3301  0.4013
   72MOL   H35730319   0.396   0.013   6.597  0.5207  0.2994 -0.0557
   72MOL   H35830320   0.374   0.144   6.481 -1.6781  0.6820 -1.7604
   72MOL   C35930321   0.407   7.928   6.382  0.0359  0.3489  0.0381
   72MOL   O36030322   0.549   7.952   6.376  0.0208  0.1689 -0.0681
   72MOL   C36130323   0.631   7.831   6.365 -0.0973 -1.0072 -0.3791
   72MOL   O36230324   0.635   7.751   6.474  0.4945 -0.6393  0.0316
   72MOL   C36330325   0.741   7.758   6.560 -0.0896 -0.3671  0.1868
   72MOL   C36430326   0.790   7.882   6.618 -0.0028  0.3532 -0.0992
   72MOL   C36530327   0.901   7.884   6.707  0.0592 -0.0931  0.2048
   72MOL   C36630328   0.957   7.757   6.745  0.0119 -0.0938 -0.1148
   72MOL   C36730329   0.909   7.635   6.691  0.0339  0.2710  0.0045
   72MOL   C36830330   0.805   7.637   6.593  0.0001 -0.2007  0.0098
   72MOL   C36930331   0.341   7.967   6.249 -0.6392 -0.0975  0.1744
   72MOL   H37030332   0.402   7.821   6.403  1.3666 -0.0112 -1.4125
   72MOL   H37130333   0.734   7.850   6.335 -0.4614  0.5414 -0.6930
   72MOL   H37230334   0.594   7.772   6.282  1.9203 -0.4080 -1.7343
   72MOL   H37330335   0.749   0.005   6.600 -1.6007  0.0780  1.8395
   72MOL   H37430336   0.952   7.969   6.750 -0.3054 -0.2516  0.9689
   72MOL   H37530337   1.045   7.758   6.807 -1.3405  1.8792  1.8600
   72MOL   H37630338   0.950   7.537   6.714 -1.5826 -0.6029 -0.7689
   72MOL   H37730339   0.777   7.544   6.546 -1.7740 -0.7028  1.9877
   72MOL   H37830340   0.342   0.100   6.239 -2.4575  0.2075  2.7688
   72MOL   H37930341   0.235   7.943   6.254 -0.7489 -0.2549 -2.0994
   72MOL   C38030342   0.389   7.900   6.122 -0.1621 -0.3258 -0.1500
   72MOL   O38130343   0.314   7.966   6.019  0.4175 -0.5997  0.4367
   72MOL   C38230344   0.377   0.107   5.981 -0.6837 -0.3195  0.3720
   72MOL   O38330345   0.504   0.084   5.928 -0.2416  0.0480  0.5433
   72MOL   C38430346   0.509   0.061   5.793  0.7890  0.4598 -0.1778
   72MOL   C38530347   0.633   0.106   5.736  0.1886 -0.1620 -0.1703
   72MOL   C38630348   0.653   0.103   5.598  0.0514 -0.8167  0.1203
   72MOL   C38730349   0.545   0.055   5.523  0.2319 -0.6518 -0.0446
   72MOL   C38830350   0.427   0.002   5.573  0.7618 -0.7281  0.2710
   72MOL   C38930351   0.410   0.012   5.708 -0.2458  0.2955 -0.0425
   72MOL   C39030352   0.338   7.754   6.118 -0.0168  0.2165 -0.5619
   72MOL   H39130353   0.497   7.905   6.115  0.0869  0.0546  3.2015
   72MOL   H39230354   0.320   0.165   5.909  0.5069 -0.6953 -0.8928
   72MOL   H39330355   0.389   0.178   6.063 -0.7359 -1.5791  1.4978
   72MOL   H39430356   0.712   0.146   5.798  1.7891 -3.2339 -0.0955
   72MOL   H39530357   0.748   0.131   5.555 -0.5625 -1.8934 -2.0208
   72MOL   H39630358   0.568   0.045   5.418 -0.0325  0.1425 -0.1840
   72MOL   H39730359   0.353   7.931   5.509  0.9873 -0.9028  0.1406
   72MOL   H39830360   0.315   7.961   5.752 -0.6393 -0.4078 -1.2855
   72MOL   H39930361   0.230   7.758   6.128  0.2178  0.1351  2.3256
   72MOL   H40030362   0.372   7.701   6.207 -1.8199 -0.4048 -0.2216
   72MOL   C40130363   0.373   7.663   6.003  0.0553 -0.6218  0.6583
   72MOL   O40230364   0.512   7.667   5.998  0.2562  0.2685 -0.3194
   72MOL   C40330365   0.564   7.695   5.868 -0.5804  0.4087 -0.4640
   72MOL   O40430366   0.574   7.574   5.792  0.3448 -0.4008  0.0056
   72MOL   C40530367   0.649   7.583   5.679 -0.1181  0.4198  0.8227
   72MOL   C40630368   0.661   7.465   5.607  0.2582 -0.0068 -0.3434
   72MOL   C40730369   0.744   7.459   5.492 -0.4067 -0.6768  0.1496
   72MOL   C40830370   0.805   7.582   5.444  0.3002  0.4197  0.1848
   72MOL   C40930371   0.790   7.698   5.518  0.3782  0.0622  0.6742
   72MOL   C41030372   0.704   7.705   5.628 -0.6357 -1.0233 -0.2328
   72MOL   C41130373   0.317   7.521   6.032  0.1781 -0.9353 -0.2620
   72MOL   H41230374   0.316   7.700   5.918  0.0772 -0.8315  0.5516
   72MOL   H41330375   0.666   7.731   5.874 -1.4880  2.9359  0.4598
   72MOL   H41430376   0.499   7.762   5.811 -1.9647  0.7103  1.4313
   72MOL   H41530377   0.602   7.383   5.646 -0.7561 -0.8336 -3.4602
   72MOL   H41630378   0.750   7.373   5.427 -0.5613 -1.0149  0.5814
   72MOL   H41730379   0.878   7.577   5.363 -1.7525 -0.5852 -1.6612
   72MOL   H41830380   0.847   7.788   5.503  1.2394 -0.7105 -0.8920
   72MOL   H41930381   0.687   7.795   5.686 -2.0962 -2.0566  0.9743
   72MOL   H42030382   0.209   7.517   6.046  0.2996 -0.3195  0.9353
   72MOL   H42130383   0.359   7.487   6.126 -1.1099 -1.4838  0.1259
   72MOL   H42230384   0.348   7.451   5.955  1.7987  0.6671 -1.1026
   73MOL     C130385   4.059   5.558   2.818  0.5000 -0.2635  0.7649
   73MOL     O230386   4.016   5.687   2.788  0.4104  0.2697  0.4093
   73MOL     C330387   4.109   5.795   2.791  0.4760  0.9097 -0.2623
   73MOL     O430388   4.137   5.840   2.923 -0.7873  0.4565  0.1213
   73MOL     C530389   4.035   5.893   2.996 -0.3496 -0.0631 -0.2867
   73MOL     C630390   3.896   5.876   2.975  0.3665 -0.1174 -0.1747
   73MOL     C730391   3.809   5.956   3.056 -0.1588  0.2440 -0.0054
   73MOL     C830392   3.860   6.024   3.164 -0.4116 -0.3924 -0.4306
   73MOL     C930393   3.996   6.029   3.192  0.1587  0.3613  0.7390
   73MOL    C1030394   4.090   5.967   3.104  0.6235  0.5677 -0.0739
   73MOL    C1130395   3.957   5.450   2.779  0.1743 -0.8884  0.0242
   73MOL    H1230396   4.162   5.541   2.788  0.2036  0.6426 -0.8571
   73MOL    H1330397   4.203   5.786   2.737  0.2609  1.0015 -0.6550
   73MOL    H1430398   4.064   5.884   2.747 -2.2494 -0.6603 -0.7833
   73MOL    H1530399   3.854   5.812   2.899  0.5520 -0.4127 -0.0295
   73MOL    H1630400   3.703   5.947   3.036  0.2237 -0.1325 -1.9088
   73MOL    H1730401   3.791   6.076   3.229  0.6584  1.7097 -0.9266
   73MOL    H1830402   4.030   6.080   3.281 -2.4733 -0.6263  2.3736
   73MOL    H1930403   4.197   5.979   3.118  0.4095  0.3911  1.7844
   73MOL    H2030404   3.974   5.436   2.673 -0.8124  1.6264 -0.4932
   73MOL    H2130405   3.856   5.488   2.790 -0.6696 -2.4860 -1.9439
   73MOL    H2230406   4.069   5.578   2.924 -0.7164  2.0894  0.4785
   73MOL    C2330407   3.972   5.318   2.865 -0.2995  0.1272 -0.6481
   73MOL    O2430408   3.913   5.203   2.810  0.2941  0.4034  0.0613
   73MOL    C2530409   3.934   5.085   2.874  0.4608 -0.3188 -0.5183
   73MOL    O2630410   4.068   5.052   2.899 -0.2838 -0.4978  0.4630
   73MOL    C2730411   4.146   4.997   2.800 -0.1402  0.4348 -0.2186
   73MOL    C2830412   4.253   4.911   2.837  0.3517  0.0051 -0.2450
   73MOL    C2930413   4.337   4.854   2.741  0.5776  0.4259 -0.3223
   73MOL    C3030414   4.301   4.870   2.608  0.7972  0.2840  0.0940
   73MOL    C3130415   4.198   4.957   2.567  0.3342  0.0304 -0.2675
   73MOL    C3230416   4.118   5.019   2.663  0.0028  0.8515  0.6813
   73MOL    C3330417   3.922   5.343   3.016 -0.6424  0.4814  0.0269
   73MOL    H3430418   4.079   5.297   2.864 -0.2860 -0.2075  3.0479
   73MOL    H3530419   3.896   4.998   2.821  1.2669 -0.8567 -0.2269
   73MOL    H3630420   3.899   5.093   2.977 -1.1587 -0.4305 -1.0495
   73MOL    H3730421   4.266   4.876   2.938  2.8334  1.3910 -0.0309
   73MOL    H3830422   4.413   4.784   2.772 -0.3899 -0.4218  0.1766
   73MOL    H3930423   4.364   4.814   2.540  0.4923 -0.2592  0.2566
   73MOL    H4030424   4.174   4.970   2.463  2.4424  1.9816 -0.5547
   73MOL    H4130425   4.043   5.083   2.619  0.7698  0.7591 -0.7913
   73MOL    H4230426   3.837   5.277   3.037 -0.4673 -0.0834 -1.0277
   73MOL    H4330427   3.879   5.441   3.034 -0.5624  0.2093  1.8271
   73MOL    C4430428   4.026   5.320   3.127 -0.3058 -0.0299  0.8727
   73MOL    O4530429   3.959   5.320   3.248 -0.1754 -0.2899  0.6546
   73MOL    C4630430   3.954   5.202   3.324  0.1394  0.2483 -0.1512
   73MOL    O4730431   3.882   5.099   3.259  0.2507 -1.4012  0.0505
   73MOL    C4830432   3.745   5.111   3.238 -0.2732  0.0084 -0.0749
   73MOL    C4930433   3.672   5.224   3.291 -0.0498  0.2519  0.2900
   73MOL    C5030434   3.536   5.238   3.259  0.1191  0.1943 -0.2664
   73MOL    C5130435   3.468   5.147   3.177  0.3193  0.2107 -0.2790
   73MOL    C5230436   3.539   5.038   3.116 -0.1768  0.0310 -0.4762
   73MOL    C5330437   3.670   5.025   3.155  0.7699  0.3623  0.9172
   73MOL    C5430438   4.140   5.427   3.148  0.1335  0.1449 -0.1754
   73MOL    H5530439   4.073   5.224   3.106  0.3524  0.9228 -2.2558
   73MOL    H5630440   3.912   5.227   3.421 -0.2155 -2.0400  0.3238
   73MOL    H5730441   4.060   5.180   3.335 -0.0278  0.0031  0.9740
   73MOL    H5830442   3.726   5.306   3.335  1.2428 -0.7175  0.5447
   73MOL    H5930443   3.487   5.331   3.285  0.3579  0.2884 -0.1545
   73MOL    H6030444   3.364   5.168   3.155  0.5670 -0.0295 -1.7172
   73MOL    H6130445   3.496   4.980   3.035 -0.9852  0.8123 -0.6169
   73MOL    H6230446   3.732   4.946   3.116 -2.1965 -0.6177 -2.0478
   73MOL    H6330447   4.098   5.528   3.150  0.1085  0.1240  0.3400
   73MOL    H6430448   4.173   5.398   3.248  1.9185 -3.3613 -1.6947
   73MOL    C6530449   4.265   5.415   3.059  0.1079  0.5690  0.4180
   73MOL    O6630450   4.370   5.508   3.084 -0.2073  0.3964 -0.1262
   73MOL    C6730451   4.352   5.640   3.055 -0.4774  0.1571 -0.2075
   73MOL    O6830452   4.308   5.710   3.160 -0.4848  0.6771  0.3284
   73MOL    C6930453   4.391   5.738   3.268 -0.3033  0.2369  0.0411
   73MOL    C7030454   4.338   5.812   3.372 -0.6626 -0.1356  0.5196
   73MOL    C7130455   4.424   5.845   3.476 -0.4837 -0.3194  0.4433
   73MOL    C7230456   4.554   5.793   3.487  0.0176  0.7449 -0.1464
   73MOL    C7330457   4.607   5.714   3.383 -0.2757  0.0835  0.2906
   73MOL    C7430458   4.522   5.681   3.276 -0.4317  0.2165  0.9839
   73MOL    C7530459   4.332   5.273   3.089 -0.7275  0.2967  0.6243
   73MOL    H7630460   4.229   5.413   2.956  0.3547  2.3529  0.2828
   73MOL    H7730461   4.282   5.649   2.972 -1.1350 -0.0424  0.3205
   73MOL    H7830462   4.446   5.672   3.011  0.1366  1.3888  1.9186
   73MOL    H7930463   4.238   5.851   3.362 -1.4620 -2.8774 -3.3642
   73MOL    H8030464   4.391   5.905   3.559 -1.7137 -1.8048  1.0574
   73MOL    H8130465   4.609   5.829   3.573  1.5172 -0.9891 -0.3625
   73MOL    H8230466   4.710   5.683   3.390  0.0536  0.8910 -0.9900
   73MOL    H8330467   4.560   5.626   3.191  0.3965  0.3332  1.2720
   73MOL    H8430468   4.352   5.265   3.196 -1.4057 -0.1701  0.7164
   73MOL    H8530469   4.268   5.186   3.076  0.4859 -0.6098  0.6040
   73MOL    C8630470   4.470   5.243   3.014  0.6773 -0.0923 -0.3225
   73MOL    O8730471   4.524   5.137   3.079  0.1668 -0.2039 -0.5573
   73MOL    C8830472   4.629   5.158   3.171 -0.2853  0.2144 -0.1775
   73MOL    O8930473   4.596   5.260   3.265 -0.0059 -0.3897  0.4955
   73MOL    C9030474   4.679   5.278   3.375 -0.0878  0.0862  0.7219
   73MOL    C9130475   4.654   5.395   3.453  0.1346 -0.1906 -0.0200
   73MOL    C9230476   4.733   5.426   3.567  0.1901 -0.3833  0.3648
   73MOL    C9330477   4.845   5.347   3.595  0.4019  0.0281 -0.0003
   73MOL    C9430478   4.876   5.228   3.520 -0.4747  0.1626 -0.3482
   73MOL    C9530479   4.791   5.198   3.414 -0.4062  0.8054  0.1367
   73MOL    C9630480   4.454   5.208   2.866 -0.0413 -0.5557  0.3493
   73MOL    H9730481   4.536   5.328   3.033 -0.7440  0.6450  1.4701
   73MOL    H9830482   4.713   5.192   3.110  1.2073 -0.3810  1.5301
   73MOL    H9930483   4.670   5.070   3.218  0.8650  1.4250  1.1262
   73MOL   H10030484   4.573   5.462   3.428 -0.9170 -1.8933 -1.2717
   73MOL   H10130485   4.703   5.507   3.631  0.5782  0.0706 -0.0305
   73MOL   H10230486   4.918   5.381   3.667  1.1630 -0.3066 -0.6063
   73MOL   H10330487   4.958   5.161   3.542  0.1147  1.0467  0.1917
   73MOL   H10430488   4.817   5.108   3.361  0.6949 -0.3467  2.5559
   73MOL   H10530489   4.403   5.112   2.856  0.3072 -0.6195 -1.0052
   73MOL   H10630490   4.379   5.278   2.829  0.7284  0.0097 -0.1457
   73MOL   C10730491   4.575   5.227   2.769 -0.0512 -0.1587  0.6457
   73MOL   O10830492   4.625   5.354   2.807 -0.1100 -0.5900  0.0571
   73MOL   C10930493   4.599   5.455   2.706 -0.3977  0.5813 -0.5262
   73MOL   O11030494   4.462   5.477   2.693  0.3071 -0.1924  0.1000
   73MOL   C11130495   4.427   5.588   2.619  0.3275  0.1105 -0.4826
   73MOL   C11230496   4.505   5.706   2.608 -0.1887  0.0160 -0.2713
   73MOL   C11330497   4.462   5.814   2.530 -0.0946 -0.4079 -0.1695
   73MOL   C11430498   4.335   5.809   2.465  0.3991  0.2365  0.4188
   73MOL   C11530499   4.252   5.695   2.482  1.1402 -0.9318  0.2391
   73MOL   C11630500   4.299   5.584   2.563  0.0232  0.0884 -0.1448
   73MOL   C11730501   4.685   5.117   2.786 -0.1225  0.3234  0.3231
   73MOL   H11830502   4.545   5.227   2.665  0.3364 -0.9590  0.5298
   73MOL   H11930503   4.646   5.423   2.613 -0.4351 -2.6765  0.4962
   73MOL   H12030504   4.642   5.546   2.748  1.1510 -0.0026 -0.8235
   73MOL   H12130505   4.603   5.713   2.654  0.4362 -2.2047 -1.2012
   73MOL   H12230506   4.536   5.885   2.497 -0.4034  0.3863  0.8249
   73MOL   H12330507   4.304   5.883   2.392 -1.8070 -1.2979 -0.2672
   73MOL   H12430508   4.162   5.688   2.422  0.8830 -0.4993  0.5710
   73MOL   H12530509   4.238   5.498   2.583 -0.6583  0.7527  0.6566
   73MOL   H12630510   4.646   5.015   2.790  0.7619 -0.1712 -2.6182
   73MOL   H12730511   4.725   5.137   2.885  2.2638 -0.4303 -0.4481
   73MOL   C12830512   4.799   5.125   2.687 -0.5304  0.1335 -0.3734
   73MOL   O12930513   4.749   5.088   2.554 -0.6417 -0.2154  0.0888
   73MOL   C13030514   4.808   5.155   2.450 -0.2059  0.4460 -0.3472
   73MOL   O13130515   4.787   5.291   2.456 -0.4612 -0.0804 -0.0384
   73MOL   C13230516   4.875   5.370   2.381 -0.1858 -0.3127  0.3471
   73MOL   C13330517   4.873   5.506   2.424 -0.5404 -0.1664 -0.1180
   73MOL   C13430518   4.961   5.603   2.365 -0.5827 -0.4280 -0.8111
   73MOL   C13530519   5.045   5.562   2.266 -0.2772  0.6414 -0.6838
   73MOL   C13630520   5.047   5.427   2.214 -0.2226 -1.1093  0.8390
   73MOL   C13730521   4.961   5.328   2.274  0.5236  0.1964 -0.4590
   73MOL   C13830522   4.911   5.018   2.725  0.4117 -0.0723  0.1809
   73MOL   H13930523   4.842   5.225   2.688 -0.4972  0.1221 -0.7490
   73MOL   H14030524   4.763   5.111   2.361 -1.0796  1.6576 -0.5099
   73MOL   H14130525   4.915   5.137   2.463 -0.2396  1.2227  1.0607
   73MOL   H14230526   4.807   5.547   2.498  0.2130  1.4791 -0.3312
   73MOL   H14330527   4.968   5.701   2.409 -1.1525 -0.1955 -1.2385
   73MOL   H14430528   5.115   5.627   2.217  0.6095 -0.6637 -1.1869
   73MOL   H14530529   5.111   5.403   2.131 -1.1618 -1.7819  0.3025
   73MOL   H14630530   4.962   5.230   2.228  0.3102 -1.6562  3.2580
   73MOL   H14730531   4.990   5.035   2.652  0.2949  4.4351  1.0145
   73MOL   H14830532   4.946   5.029   2.828  0.7484 -4.3219  0.6234
   73MOL   C14930533   4.870   4.869   2.728  0.4201 -0.5201  0.7916
   73MOL   O15030534   4.978   4.790   2.674 -0.1525 -0.7573 -0.1706
   73MOL   C15130535   4.947   4.674   2.597 -0.1195 -0.0399  0.2716
   73MOL   O15230536   4.891   4.712   2.473 -0.2383  0.5107  0.1151
   73MOL   C15330537   4.957   4.793   2.385  0.8449  0.2090 -0.3344
   73MOL   C15430538   5.092   4.824   2.396 -0.0186 -0.2491  0.3924
   73MOL   C15530539   5.161   4.906   2.304  0.2798 -0.5833 -0.0152
   73MOL   C15630540   5.086   4.967   2.196 -0.9755  0.5765 -0.2064
   73MOL   C15730541   4.952   4.934   2.183 -0.2313  0.6722 -0.6574
   73MOL   C15830542   4.886   4.846   2.275 -0.1415 -0.2767 -0.4132
   73MOL   C15930543   4.823   4.798   2.862  0.8651 -0.1919 -0.4388
   73MOL   H16030544   4.788   4.861   2.656  0.5291 -2.3850  0.8590
   73MOL   H16130545   5.037   4.616   2.578  0.5703  1.0094  0.2986
   73MOL   H16230546   4.875   4.598   2.629 -0.4969  0.0942 -0.2526
   73MOL   H16330547   5.154   4.777   2.470 -0.2382 -1.2587 -0.0654
   73MOL   H16430548   5.266   4.924   2.318  0.1161 -0.2719  0.9075
   73MOL   H16530549   5.136   5.016   2.114  1.8668 -0.5316  0.7900
   73MOL   H16630550   4.913   4.975   2.091  1.0485  2.4939 -0.4094
   73MOL   H16730551   4.784   4.817   2.256 -0.6110  1.3658 -0.5099
   73MOL   H16830552   4.779   4.700   2.844  2.0658 -1.3362  2.5770
   73MOL   H16930553   4.724   4.830   2.895  1.0268 -0.1883  0.0458
   73MOL   C17030554   4.931   4.780   2.976 -0.5717  0.5917  0.8333
   73MOL   O17130555   4.915   4.873   3.071  0.0888 -0.0033 -0.1110
   73MOL   C17230556   5.026   4.912   3.143 -0.6330  0.0543  0.4801
   73MOL   O17330557   5.076   4.825   3.235 -0.4513  0.0317 -0.2951
   73MOL   C17430558   5.028   4.849   3.361 -0.4490  0.0764  0.0997
   73MOL   C17530559   5.118   4.874   3.465  0.3334 -0.5945  0.0801
   73MOL   C17630560   5.064   4.899   3.593  0.5365  0.3478  0.3682
   73MOL   C17730561   4.921   4.893   3.616 -1.1907  0.2269 -0.3171
   73MOL   C17830562   4.835   4.857   3.518 -0.1023  0.8593 -0.2201
   73MOL   C17930563   4.890   4.839   3.389 -0.6730  0.5328 -0.2223
   73MOL   C18030564   4.940   4.631   3.034 -0.7682 -0.3712 -0.3128
   73MOL   H18130565   5.020   4.811   2.921 -0.3521  1.6552  1.7718
   73MOL   H18230566   5.009   5.011   3.185  1.5212  0.8326 -0.4179
   73MOL   H18330567   5.105   4.936   3.071  0.8326  0.1534  2.0818
   73MOL   H18430568   5.222   4.889   3.441  0.3779  0.1565  0.7183
   73MOL   H18530569   5.128   4.936   3.671  0.4601  1.0931  0.0793
   73MOL   H18630570   4.885   4.898   3.718 -0.1552 -1.3600  0.1372
   73MOL   H18730571   4.730   4.852   3.541 -0.6191  0.2023 -2.5893
   73MOL   H18830572   4.825   4.812   3.307  1.0365 -1.1565 -1.0561
   73MOL   H18930573   4.966   4.620   3.139 -1.3907  3.1265  0.2596
   73MOL   H19030574   4.834   4.607   3.050 -0.5645 -0.4841  0.9055
   73MOL   C19130575   5.001   4.523   2.948  0.1863  0.4321  0.0246
   73MOL   O19230576   4.928   4.397   2.978  0.1603 -0.6271  0.5760
   73MOL   C19330577   4.925   4.301   2.871  0.6488 -0.3284  0.0013
   73MOL   O19430578   4.856   4.346   2.754  0.1440 -0.8168 -0.6487
   73MOL   C19530579   4.723   4.372   2.753  0.5273 -0.0294 -0.0606
   73MOL   C19630580   4.634   4.368   2.864 -0.0591  0.4867  0.1540
   73MOL   C19730581   4.500   4.410   2.845  0.2122 -0.5951 -0.1788
   73MOL   C19830582   4.450   4.478   2.733  0.6883  0.1308  0.0405
   73MOL   C19930583   4.539   4.484   2.624  0.4807 -0.5174 -0.0958
   73MOL   C20030584   4.672   4.431   2.637 -0.0307 -0.4068 -0.4007
   73MOL   C20130585   5.144   4.503   2.987 -0.7007  0.5031  0.3806
   73MOL   H20230586   4.975   4.547   2.845 -0.5409 -1.9420 -0.3874
   73MOL   H20330587   4.880   4.205   2.897  2.0495 -1.4256 -1.5643
   73MOL   H20430588   5.029   4.288   2.843 -0.0469 -2.7198 -1.5658
   73MOL   H20530589   4.671   4.333   2.960 -3.2364  0.5925  1.4738
   73MOL   H20630590   4.427   4.395   2.923 -0.1890 -0.4827 -0.5324
   73MOL   H20730591   4.352   4.522   2.718  0.4284 -0.8485 -1.2999
   73MOL   H20830592   4.507   4.514   2.526 -0.4820 -0.0539  0.3560
   73MOL   H20930593   4.735   4.441   2.550  0.3117  0.1153 -0.0967
   73MOL   H21030594   5.154   4.490   3.094 -0.0369 -0.4015  0.2205
   73MOL   H21130595   5.172   4.406   2.945 -3.0884 -0.2066  0.4013
   73MOL   C21230596   5.244   4.607   2.941 -0.0940 -0.0932 -0.1017
   73MOL   O21330597   5.374   4.585   3.010 -0.3040  1.4474 -0.3712
   73MOL   C21430598   5.389   4.656   3.131 -0.0875 -0.8056 -0.2917
   73MOL   O21530599   5.388   4.792   3.120  1.1114  0.0537 -0.4729
   73MOL   C21630600   5.468   4.867   3.210 -0.3754 -0.0635 -0.1584
   73MOL   C21730601   5.545   4.816   3.311 -0.2352 -0.2607 -0.9630
   73MOL   C21830602   5.630   4.896   3.392  0.0822 -0.4399  0.1084
   73MOL   C21930603   5.625   5.037   3.378 -0.1066 -0.3558 -0.3502
   73MOL   C22030604   5.541   5.092   3.285  0.3073  0.1873  0.0253
   73MOL   C22130605   5.469   5.004   3.200 -0.1749 -0.3879  0.5805
   73MOL   C22230606   5.272   4.588   2.789  0.1696  0.1076  0.7527
   73MOL   H22330607   5.201   4.704   2.965  1.1874  0.5587 -0.3609
   73MOL   H22430608   5.467   4.606   3.190  0.5344 -0.4513 -0.8149
   73MOL   H22530609   5.297   4.635   3.186  0.1188 -2.2090 -0.4461
   73MOL   H22630610   5.552   4.711   3.335 -0.5742  0.0498  0.5257
   73MOL   H22730611   5.702   4.854   3.461  0.9951  0.6060 -0.2009
   73MOL   H22830612   5.695   5.103   3.427  0.6554  0.3860 -2.3787
   73MOL   H22930613   5.541   5.200   3.281  0.0455  0.1693 -0.6609
   73MOL   H23030614   5.402   5.048   3.127 -0.4909 -1.4055  0.2418
   73MOL   H23130615   5.326   4.493   2.782  1.6590  1.0948 -1.4955
   73MOL   H23230616   5.182   4.575   2.730 -0.2325  0.4083  1.2949
   73MOL   C23330617   5.374   4.686   2.731 -0.4881 -0.1231 -0.0550
   73MOL   O23430618   5.404   4.639   2.598 -0.1188  0.3019  0.1867
   73MOL   C23530619   5.516   4.685   2.537  0.8588 -0.3760  0.2583
   73MOL   O23630620   5.632   4.645   2.603 -0.1644 -0.4874 -0.2672
   73MOL   C23730621   5.753   4.670   2.544 -0.0790 -0.4149  0.3888
   73MOL   C23830622   5.778   4.706   2.409  0.2601  0.0566  0.0946
   73MOL   C23930623   5.911   4.715   2.364  0.2903 -0.9249 -0.4264
   73MOL   C24030624   6.022   4.689   2.451 -0.1905 -0.4912  0.5651
   73MOL   C24130625   5.998   4.638   2.577  0.0685  1.0299 -0.4146
   73MOL   C24230626   5.866   4.642   2.622  0.3898  0.0259 -0.0547
   73MOL   C24330627   5.318   4.836   2.730  0.0689 -0.3592  0.1356
   73MOL   H24430628   5.463   4.689   2.793 -1.2691  3.2285  1.0136
   73MOL   H24530629   5.502   4.793   2.532 -0.1955 -0.5722 -1.2890
   73MOL   H24630630   5.515   4.645   2.435  1.5958 -1.5094  0.6814
   73MOL   H24730631   5.696   4.721   2.339  1.1754  1.2708 -0.7414
   73MOL   H24830632   5.938   4.752   2.266  0.4870  2.3688  0.8088
   73MOL   H24930633   6.125   4.697   2.420 -0.0514  0.6705  1.3114
   73MOL   H25030634   6.082   4.614   2.641 -0.6524  0.8617  0.4812
   73MOL   H25130635   5.850   4.597   2.718 -0.6824  1.7447  0.6004
   73MOL   H25230636   5.309   4.864   2.625 -2.1798 -1.3832  0.0376
   73MOL   H25330637   5.212   4.834   2.754  0.5087  1.0510  2.2835
   73MOL   C25430638   5.398   4.946   2.799  0.0186  0.3249  0.3324
   73MOL   O25530639   5.542   4.917   2.777  0.1306 -0.3608  0.0226
   73MOL   C25630640   5.614   4.926   2.887 -0.2039  0.1219 -0.1455
   73MOL   O25730641   5.614   5.065   2.927  0.3794 -0.2114  0.3999
   73MOL   C25830642   5.723   5.109   2.984 -0.0745  0.1902 -0.4285
   73MOL   C25930643   5.812   5.025   3.060  0.1529  0.3439 -0.9549
   73MOL   C26030644   5.932   5.082   3.110 -0.2201 -0.1850  0.2175
   73MOL   C26130645   5.957   5.218   3.081 -0.6020  0.0697 -0.4897
   73MOL   C26230646   5.871   5.293   2.996  0.6374  0.3125  0.5793
   73MOL   C26330647   5.745   5.240   2.960 -0.1277 -0.2336 -0.8301
   73MOL   C26430648   5.368   5.089   2.745 -0.6370 -0.3895  0.0399
   73MOL   H26530649   5.375   4.950   2.906  3.5884 -0.5762  1.1901
   73MOL   H26630650   5.711   4.889   2.854  0.3945  0.8939  0.7299
   73MOL   H26730651   5.569   4.871   2.969 -1.2853 -0.7144 -1.2729
   73MOL   H26830652   5.788   4.927   3.098  4.1476  0.5362  2.4767
   73MOL   H26930653   6.000   5.023   3.170  0.9397 -0.7043 -1.5399
   73MOL   H27030654   6.048   5.260   3.121 -0.5736 -1.4260  1.0852
   73MOL   H27130655   5.906   5.388   2.959 -0.1340  0.5328  0.4212
   73MOL   H27230656   5.666   5.297   2.913 -1.5344 -0.9505  0.6120
   73MOL   H27330657   5.260   5.101   2.750 -0.6785 -1.2463  1.3768
   73MOL   H27430658   5.407   5.160   2.817 -0.5682 -1.0111  0.6143
   73MOL   C27530659   5.419   5.126   2.601  0.2239  0.5275 -0.1794
   73MOL   O27630660   5.329   5.233   2.561 -0.3463  0.1697  0.1289
   73MOL   C27730661   5.237   5.207   2.458  0.4513  0.4594  0.0628
   73MOL   O27830662   5.298   5.188   2.338 -0.6874 -0.0882  0.4228
   73MOL   C27930663   5.341   5.298   2.268  0.0742  0.5343  0.1678
   73MOL   C28030664   5.371   5.278   2.134 -0.0068  0.3671  0.1331
   73MOL   C28130665   5.420   5.382   2.054  0.5399  0.1604 -0.6624
   73MOL   C28230666   5.439   5.502   2.116 -0.8092 -0.1398  0.2301
   73MOL   C28330667   5.425   5.524   2.255 -0.0797  0.2510 -0.1632
   73MOL   C28430668   5.362   5.425   2.325 -0.9085 -0.3337 -0.1739
   73MOL   C28530669   5.565   5.190   2.601  0.3057  0.3924  0.2318
   73MOL   H28630670   5.403   5.050   2.523 -0.8951 -1.5956  2.0432
   73MOL   H28730671   5.163   5.287   2.452 -2.3894 -1.6667  4.1803
   73MOL   H28830672   5.173   5.121   2.480  0.3708  0.4508 -0.1950
   73MOL   H28930673   5.364   5.182   2.086 -0.3934  0.7312 -0.5417
   73MOL   H29030674   5.439   5.372   1.948 -1.4077 -1.5749 -0.8658
   73MOL   H29130675   5.467   5.584   2.052 -0.3336 -1.1976 -0.9490
   73MOL   H29230676   5.436   5.621   2.299  1.3864 -0.1661  0.4379
   73MOL   H29330677   5.351   5.440   2.432  0.6440  0.3565 -0.0990
   73MOL   H29430678   5.629   5.127   2.663 -0.0029 -0.2637 -0.1111
   73MOL   H29530679   5.561   5.279   2.663 -4.7738 -0.3810  1.2535
   73MOL   C29630680   5.630   5.206   2.461 -0.0363  0.0400 -0.2812
   73MOL   O29730681   5.748   5.290   2.466  0.3520  0.1795 -0.3558
   73MOL   C29830682   5.712   5.423   2.489  0.3385  0.7145  0.2499
   73MOL   O29930683   5.796   5.511   2.412 -0.5343 -0.6157  0.5879
   73MOL   C30030684   5.932   5.518   2.442 -0.4741 -0.7061  0.3697
   73MOL   C30130685   5.981   5.483   2.572  0.3832  0.0414  0.6722
   73MOL   C30230686   6.118   5.502   2.598 -0.0145  0.5604 -0.0550
   73MOL   C30330687   6.206   5.552   2.505 -0.1844  0.1567 -0.6428
   73MOL   C30430688   6.155   5.595   2.383  0.1752 -0.1099 -0.5052
   73MOL   C30530689   6.020   5.588   2.356  0.1846 -0.3792 -0.0067
   73MOL   C30630690   5.677   5.064   2.408  0.3935  0.3404  0.0164
   73MOL   H30730691   5.560   5.243   2.386  0.1907  0.0727 -0.4763
   73MOL   H30830692   5.717   5.428   2.598  0.7258 -1.1203  0.3327
   73MOL   H30930693   5.610   5.446   2.459  0.2322  1.5264  1.2145
   73MOL   H31030694   5.916   5.453   2.653 -0.5219 -1.1837 -0.4744
   73MOL   H31130695   6.160   5.490   2.697  0.9840  1.0143 -0.4195
   73MOL   H31230696   6.311   5.540   2.525 -0.4366 -1.6705 -0.2665
   73MOL   H31330697   6.211   5.651   2.309  0.9835 -0.6130 -0.2741
   73MOL   H31430698   5.980   5.627   2.263  0.5170 -1.7750 -0.7483
   73MOL   H31530699   5.591   4.999   2.426  0.7557 -0.0803  0.2209
   73MOL   H31630700   5.761   5.021   2.462 -0.9777  0.5658  2.4117
   73MOL   C31730701   5.703   5.057   2.254  0.6220  0.3414 -0.1753
   73MOL   O31830702   5.684   4.934   2.199  0.4416  0.2413  0.6935
   73MOL   C31930703   5.555   4.917   2.151  0.2723 -0.1752  1.1713
   73MOL   O32030704   5.527   5.002   2.041 -0.3048 -0.1343 -0.2386
   73MOL   C32130705   5.425   4.970   1.954 -0.3832 -0.3415  0.2723
   73MOL   C32230706   5.392   5.068   1.856 -0.3429  0.5639 -0.6440
   73MOL   C32330707   5.291   5.054   1.760  0.5765 -0.0167 -0.2036
   73MOL   C32430708   5.232   4.926   1.751  0.8533 -0.4681  0.4529
   73MOL   C32530709   5.263   4.824   1.840  0.2315 -0.8142 -0.0184
   73MOL   C32630710   5.367   4.845   1.935  0.3932 -0.0332  0.0473
   73MOL   C32730711   5.855   5.060   2.215  0.4740  0.0553  0.0965
   73MOL   H32830712   5.660   5.144   2.205 -0.7711  0.5722  1.4101
   73MOL   H32930713   5.473   4.912   2.223  0.5029  0.7642  1.5131
   73MOL   H33030714   5.561   4.814   2.116 -0.0664 -0.5285  2.1490
   73MOL   H33130715   5.436   5.165   1.872 -0.6572  0.3972  1.3578
   73MOL   H33230716   5.268   5.135   1.692  1.9456  1.0222  0.5522
   73MOL   H33330717   5.168   4.908   1.666  0.8238  0.1450  0.3410
   73MOL   H33430718   5.211   4.731   1.824 -2.7140  0.3386  2.3833
   73MOL   H33530719   5.391   4.762   1.999 -1.9903 -2.0466 -1.5313
   73MOL   H33630720   5.913   4.980   2.261 -1.5175 -0.9565  0.9289
   73MOL   H33730721   5.862   5.040   2.108 -3.5400  3.1310 -0.8471
   73MOL   C33830722   5.942   5.180   2.249 -0.2860  0.0244  0.1765
   73MOL   O33930723   6.078   5.138   2.226  0.1766 -0.0160  0.4079
   73MOL   C34030724   6.158   5.133   2.336 -0.2549 -0.2897 -0.3281
   73MOL   O34130725   6.277   5.080   2.296 -0.4125 -0.2744  0.8895
   73MOL   C34230726   6.380   5.162   2.272 -0.2134 -0.0786  1.3729
   73MOL   C34330727   6.503   5.101   2.238  0.7233 -0.3936 -0.4005
   73MOL   C34430728   6.613   5.176   2.203 -0.3125 -0.2689  0.0567
   73MOL   C34530729   6.611   5.318   2.221 -0.4098  0.3191 -0.7441
   73MOL   C34630730   6.493   5.377   2.265  0.2224 -0.6725 -0.3707
   73MOL   C34730731   6.374   5.302   2.280  0.0072 -0.5360  0.0086
   73MOL   C34830732   5.915   5.307   2.167  0.5736 -0.1946  0.0735
   73MOL   H34930733   5.926   5.204   2.355  0.0360  2.0348 -0.2185
   73MOL   H35030734   6.107   5.054   2.390 -0.3097  0.1725  0.3016
   73MOL   H35130735   6.164   5.219   2.402 -1.2530  0.1727 -0.8275
   73MOL   H35230736   6.503   4.994   2.223  1.3609 -0.9287  3.0617
   73MOL   H35330737   6.700   5.120   2.172 -0.9013 -1.7457  1.0291
   73MOL   H35430738   6.704   5.371   2.205 -1.3595  2.1945 -0.2515
   73MOL   H35530739   6.489   5.484   2.277  0.3128 -0.6260 -0.7614
   73MOL   H35630740   6.283   5.354   2.307 -0.3662 -0.6627 -0.9760
   73MOL   H35730741   5.980   5.388   2.199 -0.7001 -0.1892  2.7911
   73MOL   H35830742   5.816   5.344   2.195 -0.7963 -4.8220  1.8589
   73MOL   C35930743   5.921   5.292   2.015 -0.1720 -1.4335 -0.7906
   73MOL   O36030744   6.012   5.395   1.961 -0.7524 -0.4115 -0.2172
   73MOL   C36130745   6.152   5.383   2.000 -0.0970  0.0212  0.3888
   73MOL   O36230746   6.238   5.432   1.906 -0.2454 -0.1660  0.0590
   73MOL   C36330747   6.253   5.358   1.790  0.3628  0.0418  0.1770
   73MOL   C36430748   6.315   5.419   1.676 -0.3454  0.1161 -0.1107
   73MOL   C36530749   6.328   5.355   1.553  0.4829  0.1647  0.4858
   73MOL   C36630750   6.268   5.229   1.537 -0.6916  0.9482  0.0551
   73MOL   C36730751   6.218   5.162   1.649  0.2415 -0.9666  0.5332
   73MOL   C36830752   6.214   5.220   1.780 -0.3830  0.6143 -0.1289
   73MOL   C36930753   5.780   5.291   1.956 -0.3949  0.4608  0.5177
   73MOL   H37030754   5.966   5.195   1.998 -1.6267 -2.2388 -0.0904
   73MOL   H37130755   6.177   5.281   2.031  0.5122 -0.5780 -1.9592
   73MOL   H37230756   6.167   5.453   2.082 -1.1162 -0.2962  0.8582
   73MOL   H37330757   6.341   5.523   1.689 -0.0671 -0.0292  0.4980
   73MOL   H37430758   6.376   5.401   1.468  0.2802 -1.1578 -0.3678
   73MOL   H37530759   6.271   5.173   1.444  0.0433  2.2534 -0.7215
   73MOL   H37630760   6.181   5.061   1.642 -1.0791 -0.5252  1.1004
   73MOL   H37730761   6.171   5.158   1.857  0.0282 -1.0235 -1.1728
   73MOL   H37830762   5.723   5.370   2.005 -1.2061 -1.7456  3.3137
   73MOL   H37930763   5.727   5.203   1.994 -0.5905  0.2598 -0.2086
   73MOL   C38030764   5.764   5.278   1.800  0.2934 -0.4689  0.2245
   73MOL   O38130765   5.629   5.324   1.772 -0.1068  0.5160  0.3585
   73MOL   C38230766   5.628   5.458   1.735  0.4574  0.5828  0.3125
   73MOL   O38330767   5.508   5.527   1.766  0.7822 -0.0655  0.6134
   73MOL   C38430768   5.397   5.512   1.688  0.8226 -0.2849  0.1700
   73MOL   C38530769   5.380   5.420   1.576 -0.3272  0.1499  0.7552
   73MOL   C38630770   5.255   5.410   1.507 -0.1450  0.4033 -0.6982
   73MOL   C38730771   5.152   5.498   1.553  0.1443 -0.4348  0.7670
   73MOL   C38830772   5.169   5.587   1.665 -0.4293  0.1171  0.1742
   73MOL   C38930773   5.293   5.599   1.726 -0.3121  0.3890  0.2981
   73MOL   C39030774   5.777   5.139   1.750  0.3605 -0.2465 -0.5049
   73MOL   H39130775   5.843   5.339   1.758 -0.9338 -0.7887 -2.6788
   73MOL   H39230776   5.701   5.504   1.801 -1.1804  1.6076  1.4568
   73MOL   H39330777   5.637   5.460   1.627 -0.5328 -1.6228  0.1488
   73MOL   H39430778   5.460   5.349   1.561 -0.3718  0.5710 -1.6398
   73MOL   H39530779   5.246   5.336   1.429  2.1676 -0.5078 -0.1607
   73MOL   H39630780   5.055   5.490   1.505  0.1771  0.2666  0.5816
   73MOL   H39730781   5.092   5.649   1.709  1.8702  1.5385  2.3498
   73MOL   H39830782   5.305   5.675   1.802  1.8058 -0.1627  0.5651
   73MOL   H39930783   5.700   5.074   1.792  1.5785 -1.3263  0.0942
   73MOL   H40030784   5.875   5.105   1.785  0.4513 -1.4697 -1.9455
   73MOL   C40130785   5.798   5.130   1.596  0.6289 -0.2317  0.0714
   73MOL   O40230786   5.909   5.208   1.554 -0.2539 -0.1018 -0.1920
   73MOL   C40330787   5.897   5.251   1.417 -0.6214 -0.3814 -0.1315
   73MOL   O40430788   5.816   5.370   1.411  0.0473 -0.1406  0.1645
   73MOL   C40530789   5.861   5.488   1.470 -0.4181 -0.0086 -0.1630
   73MOL   C40630790   5.793   5.609   1.449  0.4825  0.3703 -0.1822
   73MOL   C40730791   5.833   5.724   1.514 -0.1789  0.1079 -0.0943
   73MOL   C40830792   5.933   5.725   1.609 -0.0403  0.3918  0.1252
   73MOL   C40930793   5.995   5.600   1.632 -0.2420  0.2695  0.5112
   73MOL   C41030794   5.971   5.486   1.555 -0.3591 -0.4479 -0.0744
   73MOL   C41130795   5.824   4.983   1.547 -0.4773  0.3910  0.3953
   73MOL   H41230796   5.706   5.165   1.550  0.2704 -2.2920 -0.8721
   73MOL   H41330797   5.849   5.188   1.342 -0.9426  2.8124 -2.6787
   73MOL   H41430798   5.995   5.283   1.381 -0.3031  0.5362  1.5337
   73MOL   H41530799   5.709   5.617   1.381  0.4131 -0.0667 -0.1544
   73MOL   H41630800   5.787   5.819   1.493 -2.3460 -0.8489  0.1788
   73MOL   H41730801   5.961   5.819   1.655 -0.8621  0.6307  0.1335
   73MOL   H41830802   6.080   5.594   1.698 -0.6783  0.5440  1.1089
   73MOL   H41930803   6.029   5.403   1.593 -2.0221 -2.1725 -1.2072
   73MOL   H42030804   5.909   4.930   1.588  1.0736  1.9253 -0.7842
   73MOL   H42130805   5.833   4.980   1.438  0.7297 -0.8941  0.5165
   73MOL   H42230806   5.739   4.920   1.575  0.2451 -0.6141  0.3710
   74MOL     C130807   1.811   5.415   3.040 -0.0856  0.1827  0.5525
   74MOL     O230808   1.772   5.298   3.110  0.5816 -0.0596  0.0127
   74MOL     C330809   1.677   5.297   3.210 -0.1534 -1.4087  1.2904
   74MOL     O430810   1.558   5.351   3.163 -0.3539 -0.7598 -0.1552
   74MOL     C530811   1.453   5.363   3.255 -0.0869  0.0318 -0.2882
   74MOL     C630812   1.465   5.327   3.393 -0.0239 -0.0002 -0.2962
   74MOL     C730813   1.361   5.364   3.477 -0.5189  0.2296 -0.4087
   74MOL     C830814   1.244   5.430   3.431  0.0309  0.3337 -0.8116
   74MOL     C930815   1.232   5.452   3.292 -0.5094  0.0442 -0.1893
   74MOL    C1030816   1.337   5.423   3.201  0.3147 -0.3794 -0.5326
   74MOL    C1130817   1.745   5.427   2.895 -0.5027  0.3136  0.3869
   74MOL    H1230818   1.785   5.495   3.109  0.7134  0.6055  0.3684
   74MOL    H1330819   1.657   5.196   3.248 -2.6873 -0.9184  1.3220
   74MOL    H1430820   1.723   5.364   3.282 -1.1174 -0.2192  0.8024
   74MOL    H1530821   1.544   5.271   3.441  1.0445  1.4939 -0.2680
   74MOL    H1630822   1.371   5.326   3.578 -1.0192 -0.1100 -0.4853
   74MOL    H1730823   1.157   5.449   3.492  0.3059 -1.0876  0.0558
   74MOL    H1830824   1.142   5.500   3.259 -0.1217  1.0908  0.2398
   74MOL    H1930825   1.340   5.459   3.099  2.8316  0.1336 -0.3213
   74MOL    H2030826   1.642   5.460   2.908 -1.4593 -1.4561 -2.2069
   74MOL    H2130827   1.729   5.328   2.852 -1.3827 -0.6894  2.9371
   74MOL    H2230828   1.919   5.413   3.030 -0.3017 -1.5596 -1.8512
   74MOL    C2330829   1.822   5.513   2.796 -0.5968 -0.2053 -0.3862
   74MOL    O2430830   1.816   5.639   2.852  0.6491 -0.0023 -0.0627
   74MOL    C2530831   1.940   5.696   2.883 -0.0384 -0.2223  0.2708
   74MOL    O2630832   2.025   5.629   2.968  0.0954 -0.0687 -0.0352
   74MOL    C2730833   2.124   5.701   3.020  0.6562  0.5033  0.3575
   74MOL    C2830834   2.168   5.658   3.139 -0.3360 -0.0646  0.4523
   74MOL    C2930835   2.285   5.712   3.197  0.0082  0.3849 -0.2454
   74MOL    C3030836   2.338   5.825   3.142  0.0807 -0.0054  0.6088
   74MOL    C3130837   2.290   5.881   3.024  0.1833  0.3528 -0.1405
   74MOL    C3230838   2.186   5.811   2.956  0.0101 -0.6406 -0.6665
   74MOL    C3330839   1.764   5.517   2.649 -0.0623 -0.0151 -0.1964
   74MOL    H3430840   1.922   5.471   2.791 -0.9740 -1.2083  0.3597
   74MOL    H3530841   1.916   5.790   2.932  0.3071  1.1883 -2.1948
   74MOL    H3630842   1.993   5.726   2.793  2.7388  0.8273  2.1873
   74MOL    H3730843   2.118   5.579   3.194  1.5518 -0.5827  1.4667
   74MOL    H3830844   2.329   5.660   3.280 -0.7514 -1.0728 -0.7362
   74MOL    H3930845   2.414   5.882   3.193 -0.5958  2.0755 -0.6178
   74MOL    H4030846   2.341   5.959   2.971 -0.1902  0.8439  0.2246
   74MOL    H4130847   2.163   5.839   2.854 -0.0956  0.4135 -0.3601
   74MOL    H4230848   1.658   5.543   2.652 -0.2469 -0.6805 -0.7655
   74MOL    H4330849   1.764   5.416   2.609  0.0424  0.7186 -2.1126
   74MOL    C4430850   1.828   5.616   2.545  0.3629 -0.7462 -0.0008
   74MOL    O4530851   1.770   5.602   2.419  0.1691 -0.0470  0.2805
   74MOL    C4630852   1.639   5.657   2.404  0.0841 -0.1220 -0.0822
   74MOL    O4730853   1.548   5.555   2.400  0.1936  0.4147  0.6473
   74MOL    C4830854   1.419   5.579   2.379 -0.3834 -0.1677  0.2838
   74MOL    C4930855   1.340   5.468   2.404 -0.2028  1.0875  0.7818
   74MOL    C5030856   1.203   5.472   2.373  0.0807 -0.2345 -0.5955
   74MOL    C5130857   1.148   5.597   2.330  0.5148 -0.8006 -0.6479
   74MOL    C5230858   1.223   5.714   2.304  0.0350 -0.4132  0.1089
   74MOL    C5330859   1.363   5.695   2.327  0.9170  0.0296 -1.2416
   74MOL    C5430860   1.980   5.591   2.512  0.2849  0.3024 -0.4351
   74MOL    H5530861   1.811   5.713   2.593  1.2890 -0.5056 -0.1565
   74MOL    H5630862   1.637   5.701   2.304 -1.0100 -0.3193 -0.1419
   74MOL    H5730863   1.609   5.730   2.478  0.7541 -0.4852  0.5523
   74MOL    H5830864   1.379   5.376   2.445 -0.0144  1.3485  1.1913
   74MOL    H5930865   1.137   5.392   2.403 -1.2557  1.0858  0.0932
   74MOL    H6030866   1.041   5.609   2.325  0.2775 -0.4346  3.8247
   74MOL    H6130867   1.174   5.805   2.272 -0.4462 -1.2928 -1.7324
   74MOL    H6230868   1.426   5.782   2.320 -0.1382  1.0133  0.9088
   74MOL    H6330869   2.026   5.563   2.607 -1.5531 -0.3981  0.2683
   74MOL    H6430870   1.991   5.493   2.465  0.1889 -0.7996  1.7888
   74MOL    C6530871   2.046   5.706   2.433  0.3787  0.0309 -0.2324
   74MOL    O6630872   2.104   5.799   2.530 -0.0315 -0.0401 -0.5187
   74MOL    C6730873   2.108   5.936   2.503  0.5346  0.4532  0.1572
   74MOL    O6830874   2.169   6.007   2.610 -0.2040  0.6056  0.5769
   74MOL    C6930875   2.303   5.991   2.625 -0.8835 -0.1839 -0.5435
   74MOL    C7030876   2.380   6.099   2.667  0.2333  0.8155 -0.5882
   74MOL    C7130877   2.521   6.089   2.697 -0.9387 -0.1743 -0.4131
   74MOL    C7230878   2.581   5.965   2.684 -0.3639  0.5449 -0.0109
   74MOL    C7330879   2.503   5.853   2.648 -1.1020  1.0807  0.6258
   74MOL    C7430880   2.369   5.869   2.615  0.5282  0.1598  0.5100
   74MOL    C7530881   2.165   5.646   2.356  0.1390  0.3546 -0.3138
   74MOL    H7630882   1.981   5.748   2.355  0.2019 -0.0217 -0.1140
   74MOL    H7730883   2.006   5.975   2.505  0.6554  0.7334  1.8969
   74MOL    H7830884   2.150   5.961   2.406  2.5284 -0.2255  0.8163
   74MOL    H7930885   2.330   6.193   2.683 -1.0549  0.3564 -1.7861
   74MOL    H8030886   2.575   6.180   2.720 -0.6171 -0.3669 -0.4009
   74MOL    H8130887   2.688   5.963   2.693 -0.2538  1.1782 -1.1001
   74MOL    H8230888   2.549   5.757   2.634 -1.4581  0.6311  2.4532
   74MOL    H8330889   2.309   5.783   2.588  0.5538 -0.0325  1.0605
   74MOL    H8430890   2.226   5.726   2.312 -1.2671  0.8993 -1.3052
   74MOL    H8530891   2.230   5.594   2.427  3.4176 -0.1880 -3.5193
   74MOL    C8630892   2.137   5.546   2.244 -0.0007  0.3320  0.3431
   74MOL    O8730893   2.041   5.607   2.164  0.9195  0.1567  0.3023
   74MOL    C8830894   1.944   5.527   2.097 -0.9343  0.4266 -0.2055
   74MOL    O8930895   1.993   5.407   2.055  0.2496  0.3823 -0.0279
   74MOL    C9030896   1.908   5.316   1.998  0.0966 -0.2522 -0.3792
   74MOL    C9130897   1.971   5.204   1.939  0.1469  0.2355  1.0268
   74MOL    C9230898   1.897   5.096   1.888 -0.4177 -0.2967  0.2890
   74MOL    C9330899   1.759   5.101   1.893  0.1174 -0.1527  0.1303
   74MOL    C9430900   1.693   5.212   1.956  0.4165 -0.5984 -0.2059
   74MOL    C9530901   1.768   5.317   2.016  0.4143 -0.3352  0.7213
   74MOL    C9630902   2.265   5.505   2.170  1.2499 -0.3259  0.3402
   74MOL    H9730903   2.088   5.461   2.291  0.4917  0.1235  0.4770
   74MOL    H9830904   1.929   5.578   2.002 -0.8373 -0.6836 -0.8286
   74MOL    H9930905   1.855   5.511   2.159  0.3186 -1.7702  1.1043
   74MOL   H10030906   2.078   5.191   1.932  0.0792  0.2572 -0.2995
   74MOL   H10130907   1.959   5.016   1.851  0.0189  0.3551 -0.4246
   74MOL   H10230908   1.694   5.022   1.858 -2.6516  1.3189  1.7244
   74MOL   H10330909   1.587   5.225   1.970  0.1216  1.1146 -3.5196
   74MOL   H10430910   1.716   5.395   2.069 -1.7230  0.6559 -2.6626
   74MOL   H10530911   2.232   5.438   2.091  0.3950 -0.2555  0.6338
   74MOL   H10630912   2.303   5.593   2.117  0.7820  0.7679  1.7825
   74MOL   C10730913   2.374   5.433   2.242 -0.9472 -0.0742  0.1062
   74MOL   O10830914   2.447   5.506   2.337 -0.5555 -0.1226  0.2067
   74MOL   C10930915   2.584   5.498   2.310 -0.5006  0.7174  0.6878
   74MOL   O11030916   2.624   5.547   2.184  0.8387 -0.1829 -0.0572
   74MOL   C11130917   2.651   5.679   2.159  0.2463 -0.3577 -0.6927
   74MOL   C11230918   2.713   5.717   2.039 -0.0182  0.0815  0.9535
   74MOL   C11330919   2.733   5.854   2.002 -0.1173  1.3036 -0.1453
   74MOL   C11430920   2.686   5.952   2.089 -0.2736  0.3899 -0.9866
   74MOL   C11530921   2.637   5.920   2.219 -0.0878 -0.7540  0.4646
   74MOL   C11630922   2.623   5.788   2.250 -0.9076 -0.2375 -0.1240
   74MOL   C11730923   2.331   5.298   2.320  0.9126 -0.9062  0.0517
   74MOL   H11830924   2.438   5.392   2.164 -1.4472  1.6175 -1.2022
   74MOL   H11930925   2.620   5.396   2.324  0.0910  1.0494  1.6557
   74MOL   H12030926   2.633   5.561   2.384 -1.5695  0.7462  1.3767
   74MOL   H12130927   2.747   5.637   1.977  1.8012  0.7933  1.0052
   74MOL   H12230928   2.778   5.874   1.905  2.5072 -1.3736  0.4774
   74MOL   H12330929   2.709   6.054   2.062  0.6347  0.1376 -1.1986
   74MOL   H12430930   2.611   5.992   2.295 -1.1132 -1.3102  0.6565
   74MOL   H12530931   2.566   5.767   2.340 -0.8594  1.4764  0.3275
   74MOL   H12630932   2.251   5.325   2.388  1.0601  0.0523 -0.1499
   74MOL   H12730933   2.406   5.262   2.390  2.4058  2.2012  0.1404
   74MOL   C12830934   2.303   5.178   2.218 -0.2365 -0.7779  0.5533
   74MOL   O12930935   2.221   5.089   2.292  0.0255 -0.3574  0.4332
   74MOL   C13030936   2.101   5.057   2.238  0.3743  0.6703  0.1215
   74MOL   O13130937   2.008   5.161   2.256 -0.4440  0.4190  0.2481
   74MOL   C13230938   1.939   5.147   2.374 -0.1309 -0.1948 -0.1774
   74MOL   C13330939   1.995   5.104   2.496 -0.2940  0.0731 -0.2531
   74MOL   C13430940   1.915   5.100   2.610 -0.4515  0.9638  0.6874
   74MOL   C13530941   1.783   5.153   2.608 -0.1417 -0.2212 -0.2168
   74MOL   C13630942   1.723   5.186   2.488  0.2906 -0.1503 -0.2564
   74MOL   C13730943   1.801   5.176   2.370 -0.1512 -0.2566  0.1075
   74MOL   C13830944   2.436   5.110   2.172 -0.2255 -0.4470 -0.5176
   74MOL   H13930945   2.248   5.215   2.132 -1.9751 -0.1533  1.9166
   74MOL   H14030946   2.072   4.959   2.274 -0.3794  0.6067 -0.6391
   74MOL   H14130947   2.100   5.059   2.129  1.7596 -0.4642  0.0756
   74MOL   H14230948   2.101   5.085   2.504 -0.5413 -1.5009 -0.4394
   74MOL   H14330949   1.960   5.073   2.704  3.3977 -0.2715 -1.4033
   74MOL   H14430950   1.728   5.144   2.701 -0.4323  0.9035 -0.2763
   74MOL   H14530951   1.624   5.229   2.485  0.1945 -0.2353  1.4692
   74MOL   H14630952   1.745   5.196   2.280 -3.0756 -1.1563  1.6860
   74MOL   H14730953   2.484   5.193   2.120 -1.2000  2.9479  3.7096
   74MOL   H14830954   2.508   5.081   2.248  1.0762 -1.5232 -2.1274
   74MOL   C14930955   2.416   5.001   2.073  0.9538 -0.6246 -0.1832
   74MOL   O15030956   2.361   5.053   1.948 -0.2710 -0.0759 -0.0979
   74MOL   C15130957   2.282   4.970   1.864  0.1794 -1.0517 -0.5940
   74MOL   O15230958   2.365   4.891   1.775  0.1478  0.6125 -1.0323
   74MOL   C15330959   2.403   4.946   1.656  0.2273 -0.3182  0.2077
   74MOL   C15430960   2.409   5.080   1.629 -0.2332 -0.2653 -0.2311
   74MOL   C15530961   2.458   5.135   1.512 -1.1231  0.6617 -0.2030
   74MOL   C15630962   2.496   5.056   1.401 -0.2428 -0.4432  0.6750
   74MOL   C15730963   2.499   4.921   1.430 -0.5409 -0.0051  0.3251
   74MOL   C15830964   2.451   4.863   1.552  0.2512 -0.1830  0.8152
   74MOL   C15930965   2.544   4.924   2.050 -0.2750  0.2976 -0.1698
   74MOL   H16030966   2.349   4.933   2.125  0.6975 -0.2046  0.0353
   74MOL   H16130967   2.219   4.907   1.926 -2.2600  2.4413  0.6100
   74MOL   H16230968   2.215   5.026   1.799  1.2568  0.7036 -0.2337
   74MOL   H16330969   2.383   5.148   1.709  2.5986  2.2418 -1.3233
   74MOL   H16430970   2.446   5.242   1.507 -0.3685  0.7166 -1.0368
   74MOL   H16530971   2.532   5.097   1.308  0.0554 -0.7883  0.6364
   74MOL   H16630972   2.524   4.846   1.356  0.0239 -0.2249  0.7347
   74MOL   H16730973   2.448   4.756   1.568 -0.7772 -0.1626  0.8043
   74MOL   H16830974   2.627   4.950   2.115  0.1741 -1.4217 -0.0414
   74MOL   H16930975   2.580   4.954   1.952 -0.4260 -0.5167 -0.4787
   74MOL   C17030976   2.530   4.773   2.030  0.2971  0.8698 -0.2559
   74MOL   O17130977   2.648   4.726   1.955  0.4608 -0.1784  0.5269
   74MOL   C17230978   2.608   4.640   1.854  0.0047 -0.1671  0.1872
   74MOL   O17330979   2.563   4.516   1.911 -0.2330 -0.5005  0.0135
   74MOL   C17430980   2.531   4.423   1.815 -0.8404  0.1806  0.5663
   74MOL   C17530981   2.573   4.426   1.679 -0.3288  0.0398  0.5027
   74MOL   C17630982   2.546   4.314   1.595 -0.2554 -0.0468  0.3604
   74MOL   C17730983   2.482   4.201   1.637  0.4970 -0.1157 -0.3678
   74MOL   C17830984   2.441   4.197   1.773 -0.5146 -0.3570 -0.3419
   74MOL   C17930985   2.471   4.303   1.866  0.2997  0.2220 -0.7394
   74MOL   C18030986   2.531   4.701   2.167  0.4512  0.0957  0.5150
   74MOL   H18130987   2.432   4.750   1.989 -0.8359  0.8336  2.4129
   74MOL   H18230988   2.701   4.633   1.799  0.6781  5.1141  0.4214
   74MOL   H18330989   2.538   4.683   1.782  0.4872 -2.4203 -1.6695
   74MOL   H18430990   2.628   4.506   1.632 -0.8210  0.8296  1.2475
   74MOL   H18530991   2.590   4.320   1.497 -2.1361 -2.0400 -0.6237
   74MOL   H18630992   2.459   4.117   1.573 -0.5125  0.1334 -0.3427
   74MOL   H18730993   2.408   4.104   1.817  1.8833 -1.2444 -0.3569
   74MOL   H18830994   2.451   4.276   1.969  0.7622  1.9061 -0.1932
   74MOL   H18930995   2.630   4.675   2.204  0.2185 -2.0926 -0.3487
   74MOL   H19030996   2.508   4.786   2.232  1.4213  0.0410  0.9392
   74MOL   C19130997   2.427   4.588   2.190  0.1773  0.3927  0.1368
   74MOL   O19230998   2.295   4.636   2.172 -0.0158  0.6649  0.0830
   74MOL   C19330999   2.203   4.541   2.122  0.1271 -0.4346  0.0486
   74MOL   O19431000   2.092   4.608   2.060  0.0927  0.4380  0.3732
   74MOL   C19531001   2.009   4.679   2.139  0.5092  0.0576 -0.5382
   74MOL   C19631002   1.927   4.773   2.072 -0.5303 -0.7533  0.1281
   74MOL   C19731003   1.828   4.851   2.144  0.0934  0.1379 -0.0182
   74MOL   C19831004   1.812   4.830   2.280  0.1412 -0.3741 -0.3620
   74MOL   C19931005   1.890   4.733   2.346  0.3497 -0.1067 -0.1335
   74MOL   C20031006   1.989   4.663   2.273 -0.0665 -0.5359 -0.4151
   74MOL   C20131007   2.449   4.528   2.332  0.3194  0.0971  0.3154
   74MOL   H20231008   2.456   4.516   2.114  0.8579  0.1553  0.6190
   74MOL   H20331009   2.169   4.474   2.201  1.2126  1.0420  1.8246
   74MOL   H20431010   2.243   4.478   2.044  1.3159  1.1688 -0.6663
   74MOL   H20531011   1.939   4.789   1.965  3.0465  2.3536  0.9003
   74MOL   H20631012   1.765   4.930   2.104  2.9594  3.0038  0.9034
   74MOL   H20731013   1.739   4.881   2.340  1.8830  1.7697  0.0088
   74MOL   H20831014   1.873   4.723   2.452 -0.4534 -1.9668 -0.4287
   74MOL   H20931015   2.050   4.589   2.323 -0.5772  0.2142  1.3313
   74MOL   H21031016   2.444   4.606   2.408 -0.8429  0.3424  0.0047
   74MOL   H21131017   2.365   4.461   2.353  0.2325  0.3036  0.6189
   74MOL   C21231018   2.578   4.443   2.353  0.4280  0.0639  0.1982
   74MOL   O21331019   2.593   4.416   2.488 -0.3584 -0.0944  0.4372
   74MOL   C21431020   2.689   4.503   2.557 -0.2110 -0.5009  0.1069
   74MOL   O21531021   2.815   4.493   2.505  0.2879  0.2689  0.3299
   74MOL   C21631022   2.870   4.369   2.520  0.0473  0.1836  0.4753
   74MOL   C21731023   2.808   4.259   2.578 -0.8855 -0.0018 -0.1737
   74MOL   C21831024   2.886   4.142   2.597 -0.2276  0.0750 -0.2611
   74MOL   C21931025   3.020   4.136   2.549 -0.0224 -0.2990 -0.6118
   74MOL   C22031026   3.074   4.244   2.480  0.1010 -0.0151  0.0442
   74MOL   C22131027   2.998   4.358   2.459  0.8544 -0.3052  0.7516
   74MOL   C22231028   2.584   4.299   2.291 -0.1259 -0.2423  0.0348
   74MOL   H22331029   2.660   4.504   2.313  1.0160  0.8410  2.5472
   74MOL   H22431030   2.685   4.480   2.663  1.2783  0.4778  0.3939
   74MOL   H22531031   2.653   4.606   2.552  0.1369 -0.2802  1.8152
   74MOL   H22631032   2.710   4.255   2.623 -0.4660 -0.2555  0.7201
   74MOL   H22731033   2.848   4.055   2.648 -2.0885 -0.4260 -2.3913
   74MOL   H22831034   3.077   4.044   2.547 -0.4980 -0.6064 -0.2211
   74MOL   H22931035   3.176   4.242   2.445  0.3058  0.9004  0.5862
   74MOL   H23031036   3.026   4.435   2.390 -1.0397 -1.7394 -1.7075
   74MOL   H23131037   2.554   4.292   2.187  0.9441 -0.2130 -0.2812
   74MOL   H23231038   2.687   4.266   2.289 -0.1226 -0.3046  0.8250
   74MOL   C23331039   2.498   4.191   2.360  0.7062  0.3105 -0.5572
   74MOL   O23431040   2.366   4.225   2.324 -0.0189  0.3380  0.2405
   74MOL   C23531041   2.271   4.167   2.407  0.3305  0.0947 -0.3348
   74MOL   O23631042   2.161   4.245   2.393  0.1618  0.5004  0.0359
   74MOL   C23731043   2.079   4.233   2.283  0.1858  0.4984 -0.1859
   74MOL   C23831044   2.126   4.173   2.169 -0.2061 -0.8039 -0.4218
   74MOL   C23931045   2.053   4.174   2.050  0.0004  0.3888 -0.2363
   74MOL   C24031046   1.920   4.218   2.060  0.6923 -0.1829 -0.0326
   74MOL   C24131047   1.863   4.262   2.182 -0.1782  0.3105 -0.5550
   74MOL   C24231048   1.947   4.277   2.287 -0.1597 -0.2694  0.5095
   74MOL   C24331049   2.527   4.050   2.300 -0.1885  0.4915  0.2037
   74MOL   H24431050   2.506   4.195   2.468 -3.8890 -1.5652 -0.0057
   74MOL   H24531051   2.301   4.189   2.510  0.1524 -0.4023 -0.1716
   74MOL   H24631052   2.252   4.059   2.404 -0.0620  0.0997  1.2354
   74MOL   H24731053   2.221   4.122   2.164  0.1227 -0.2259 -0.0789
   74MOL   H24831054   2.081   4.130   1.955 -2.2807  0.1903 -0.8531
   74MOL   H24931055   1.860   4.222   1.970 -2.0325  4.4605  1.7847
   74MOL   H25031056   1.763   4.301   2.177  0.0183  0.9333  0.2655
   74MOL   H25131057   1.916   4.325   2.378  0.2882 -2.8023  2.0510
   74MOL   H25231058   2.445   4.025   2.232 -0.1042  0.2424  0.1932
   74MOL   H25331059   2.605   4.054   2.225 -1.3655  0.8934 -1.0172
   74MOL   C25431060   2.552   3.938   2.404 -0.1142  0.1136 -0.9247
   74MOL   O25531061   2.461   3.941   2.506 -0.1926  0.4990  0.7703
   74MOL   C25631062   2.479   3.867   2.621 -0.5261 -0.0413 -0.7815
   74MOL   O25731063   2.601   3.900   2.681 -0.0158  0.2081  0.1136
   74MOL   C25831064   2.607   4.006   2.771  1.6331  0.0689  0.3415
   74MOL   C25931065   2.514   4.115   2.763 -0.4242 -0.8379  0.0685
   74MOL   C26031066   2.517   4.218   2.859 -0.5207  0.0600 -0.6784
   74MOL   C26131067   2.617   4.222   2.957  0.4297  0.4497 -0.1904
   74MOL   C26231068   2.712   4.121   2.959 -0.6099 -0.2178  0.4372
   74MOL   C26331069   2.712   4.015   2.869 -0.0890  0.0003  0.3180
   74MOL   C26431070   2.570   3.800   2.338 -0.1635  0.0313 -0.8669
   74MOL   H26531071   2.653   3.953   2.443  0.0814 -3.3859  0.0770
   74MOL   H26631072   2.483   3.761   2.594 -0.2367  0.1807 -1.6524
   74MOL   H26731073   2.399   3.866   2.695 -0.3058 -1.3176 -0.5489
   74MOL   H26831074   2.432   4.117   2.693  0.6573 -2.2153 -1.2921
   74MOL   H26931075   2.448   4.301   2.857 -3.2414 -2.1390 -1.3993
   74MOL   H27031076   2.625   4.314   3.013 -1.1881 -0.8295  2.2337
   74MOL   H27131077   2.795   4.128   3.028 -1.1767 -1.9807  1.3334
   74MOL   H27231078   2.790   3.941   2.856  0.0161  0.1944 -0.1609
   74MOL   H27331079   2.651   3.796   2.265  0.7904  0.6483  0.1432
   74MOL   H27431080   2.604   3.729   2.413 -0.2345  0.8771 -0.0293
   74MOL   C27531081   2.442   3.746   2.271  0.2833  0.7098  0.4615
   74MOL   O27631082   2.432   3.806   2.140  0.1023 -0.4681  0.0461
   74MOL   C27731083   2.296   3.836   2.107  0.0985  1.2445 -0.5703
   74MOL   O27831084   2.275   3.894   1.981  0.1361 -0.4282  0.0138
   74MOL   C27931085   2.308   3.819   1.867  0.2694 -0.1972  0.3687
   74MOL   C28031086   2.250   3.868   1.749  0.6876 -0.0811 -0.0318
   74MOL   C28131087   2.285   3.815   1.625 -0.1930  0.8192  0.5233
   74MOL   C28231088   2.373   3.708   1.611 -0.2979 -0.0003  0.1028
   74MOL   C28331089   2.423   3.652   1.726 -0.4880  0.8703 -0.3514
   74MOL   C28431090   2.397   3.708   1.854  0.2217  0.3096 -0.1247
   74MOL   C28531091   2.451   3.599   2.219  0.7124 -0.0124  0.1448
   74MOL   H28631092   2.354   3.764   2.333 -0.3105 -0.5910 -0.0077
   74MOL   H28731093   2.265   3.912   2.179 -1.6606 -0.5302  0.5740
   74MOL   H28831094   2.237   3.745   2.111  1.2373  0.5042 -0.5222
   74MOL   H28931095   2.179   3.949   1.747 -1.4397 -1.9133  0.2160
   74MOL   H29031096   2.235   3.852   1.538 -0.4420  0.4907  0.5235
   74MOL   H29131097   2.390   3.653   1.519  2.6982  0.3568  0.4071
   74MOL   H29231098   2.478   3.560   1.717 -0.9951  0.7022 -1.7750
   74MOL   H29331099   2.442   3.664   1.941  1.5327  0.3990 -0.7490
   74MOL   H29431100   2.557   3.577   2.212  0.3035 -2.0017 -0.1867
   74MOL   H29531101   2.402   3.580   2.123 -2.7801 -0.1405  1.8738
   74MOL   C29631102   2.391   3.487   2.311  0.2618 -0.5282  0.2891
   74MOL   O29731103   2.251   3.509   2.319  1.2341  0.2370  0.4865
   74MOL   C29831104   2.195   3.497   2.445  0.5318  0.1669 -0.1758
   74MOL   O29931105   2.161   3.622   2.488  0.2951 -0.6338 -0.2199
   74MOL   C30031106   2.076   3.698   2.408 -0.1733 -0.2187 -0.2441
   74MOL   C30131107   2.054   3.830   2.458  0.0651 -0.2021  0.1154
   74MOL   C30231108   1.966   3.917   2.400  0.0840  0.3201 -0.0259
   74MOL   C30331109   1.904   3.877   2.276 -0.1522  0.1319 -0.6802
   74MOL   C30431110   1.922   3.748   2.218  0.6324 -0.2328  0.0833
   74MOL   C30531111   2.012   3.665   2.285  0.2241  1.1959  0.5745
   74MOL   C30631112   2.417   3.343   2.257 -0.1729 -0.0021  0.7282
   74MOL   H30731113   2.439   3.496   2.408  0.5871 -0.8156  0.1521
   74MOL   H30831114   2.244   3.437   2.522 -0.1987  0.2612  0.3693
   74MOL   H30931115   2.099   3.446   2.436 -0.3299  1.6650  0.4181
   74MOL   H31031116   2.108   3.863   2.546  1.4385 -2.1261  0.0215
   74MOL   H31131117   1.939   4.019   2.424  0.2632  0.6292 -1.1186
   74MOL   H31231118   1.854   3.955   2.219 -0.8971 -0.3532 -0.6986
   74MOL   H31331119   1.873   3.718   2.127  1.6737 -0.9838 -0.2426
   74MOL   H31431120   2.034   3.572   2.236 -0.1709  1.3467  0.1046
   74MOL   H31531121   2.499   3.345   2.185 -0.4595 -2.6264  0.2582
   74MOL   H31631122   2.328   3.319   2.199  0.6259  2.1079 -1.4503
   74MOL   C31731123   2.462   3.236   2.358 -0.1173 -0.1719  0.1420
   74MOL   O31831124   2.375   3.247   2.465 -0.1674 -0.3803  0.2387
   74MOL   C31931125   2.303   3.137   2.501  0.3155 -0.2181  0.7669
   74MOL   O32031126   2.367   3.090   2.618  0.3895 -1.1138 -0.3421
   74MOL   C32131127   2.298   3.003   2.700  0.0658 -0.1934  0.2349
   74MOL   C32231128   2.227   2.894   2.642 -0.1831  0.9659  0.2386
   74MOL   C32331129   2.153   2.807   2.718 -0.4932 -0.0885 -0.4574
   74MOL   C32431130   2.161   2.816   2.856 -0.1546 -0.3581  0.0446
   74MOL   C32531131   2.230   2.924   2.919 -0.6352  0.7354  0.2487
   74MOL   C32631132   2.301   3.013   2.838 -0.4030  0.5221 -0.2674
   74MOL   C32731133   2.603   3.275   2.410 -0.0411  0.2966 -0.2318
   74MOL   H32831134   2.458   3.140   2.307  0.5168 -0.7064  1.1002
   74MOL   H32931135   2.304   3.063   2.421  2.7676  0.9536 -0.3306
   74MOL   H33031136   2.206   3.184   2.519  0.2765  0.4269 -1.0829
   74MOL   H33131137   2.233   2.874   2.536 -3.1901 -1.8671  0.5143
   74MOL   H33231138   2.103   2.722   2.674 -0.5514 -0.2018 -0.1676
   74MOL   H33331139   2.114   2.738   2.915 -0.5368 -0.7906 -0.8170
   74MOL   H33431140   2.237   2.936   3.026  2.5200 -1.7528  0.3919
   74MOL   H33531141   2.340   3.101   2.887 -0.2594 -1.1388  2.6615
   74MOL   H33631142   2.609   3.381   2.435 -1.3229  0.3654 -0.2102
   74MOL   H33731143   2.619   3.230   2.508  1.3994 -0.8083 -0.9518
   74MOL   C33831144   2.727   3.246   2.318  0.0596 -0.0029 -0.3102
   74MOL   O33931145   2.835   3.338   2.357  0.7917 -0.0763  0.0965
   74MOL   C34031146   2.894   3.412   2.253 -0.3363  0.2664  0.8155
   74MOL   O34131147   3.023   3.445   2.282  0.1460  0.0714 -0.1498
   74MOL   C34231148   3.044   3.537   2.387  0.3309 -0.1006 -0.2748
   74MOL   C34331149   2.944   3.605   2.463 -0.4430 -0.4210  0.4418
   74MOL   C34431150   2.979   3.687   2.572  0.1480 -0.0501 -0.0191
   74MOL   C34531151   3.114   3.716   2.598  0.5554  0.7160 -0.1194
   74MOL   C34631152   3.216   3.652   2.526 -0.3825 -0.8111 -0.2969
   74MOL   C34731153   3.184   3.563   2.418  0.7797  0.4366 -0.0914
   74MOL   C34831154   2.780   3.096   2.328 -0.2924 -0.0704  0.9961
   74MOL   H34931155   2.696   3.270   2.216 -2.7281 -1.1968  0.2203
   74MOL   H35031156   2.836   3.501   2.228 -0.0843  0.2311  0.1027
   74MOL   H35131157   2.903   3.349   2.165  0.5538 -0.2247  1.2598
   74MOL   H35231158   2.842   3.590   2.430 -0.5169  1.2636 -0.0945
   74MOL   H35331159   2.900   3.725   2.636 -1.5646 -2.6761 -0.4836
   74MOL   H35431160   3.153   3.774   2.680 -0.4563 -1.7883  2.2215
   74MOL   H35531161   3.317   3.678   2.554 -0.3901 -1.9536  0.7973
   74MOL   H35631162   3.262   3.502   2.375  0.9186 -0.3180  1.1950
   74MOL   H35731163   2.722   3.051   2.408 -1.2254 -0.1042  0.3055
   74MOL   H35831164   2.882   3.113   2.365  0.1964  1.0227 -0.7941
   74MOL   C35931165   2.797   3.011   2.202 -0.0975 -0.2599  0.1373
   74MOL   O36031166   2.668   2.979   2.157 -0.0327  0.4959 -0.2175
   74MOL   C36131167   2.658   2.937   2.021 -0.2192  0.2943  0.3478
   74MOL   O36231168   2.743   3.014   1.939  0.1426 -0.2404 -0.4306
   74MOL   C36331169   2.715   3.150   1.924  0.5213  0.3683 -0.1395
   74MOL   C36431170   2.825   3.221   1.881 -0.1327 -0.0370  1.0402
   74MOL   C36531171   2.816   3.359   1.860  0.3270 -0.0524  0.0394
   74MOL   C36631172   2.691   3.419   1.877 -0.2557  0.0996  0.0918
   74MOL   C36731173   2.573   3.347   1.910 -0.7948  0.9421  0.5934
   74MOL   C36831174   2.587   3.211   1.937 -0.0839 -0.5632 -0.6984
   74MOL   C36931175   2.862   2.875   2.249 -0.4906 -0.3632 -0.1677
   74MOL   H37031176   2.870   3.059   2.138  0.9081  1.5563  2.5662
   74MOL   H37131177   2.552   2.935   1.996 -0.6853  2.4147  2.0131
   74MOL   H37231178   2.693   2.833   2.028 -1.5655 -0.1182  1.3076
   74MOL   H37331179   2.918   3.170   1.859  1.4664  3.5338 -0.8954
   74MOL   H37431180   2.903   3.406   1.817 -0.0580  0.9889  0.3913
   74MOL   H37531181   2.684   3.525   1.857  0.1868  0.0745 -0.2179
   74MOL   H37631182   2.470   3.380   1.914 -0.9012  0.7026 -0.1390
   74MOL   H37731183   2.491   3.166   1.960 -0.0872 -0.8351 -1.2308
   74MOL   H37831184   2.777   2.808   2.264 -1.3766 -0.1349 -3.7024
   74MOL   H37931185   2.908   2.889   2.347 -1.7485 -1.7138  0.6316
   74MOL   C38031186   2.960   2.822   2.145 -0.8590  0.3242 -0.1402
   74MOL   O38131187   2.968   2.678   2.150  0.3174  0.5476 -0.1635
   74MOL   C38231188   2.852   2.600   2.104 -0.1303 -0.1269 -0.3939
   74MOL   O38331189   2.817   2.639   1.974 -0.0813  0.6795 -0.0811
   74MOL   C38431190   2.740   2.557   1.890 -0.5480  0.5125 -0.2950
   74MOL   C38531191   2.643   2.458   1.936 -0.1041 -0.0716 -0.1295
   74MOL   C38631192   2.563   2.384   1.839 -0.2147 -0.0841  0.1043
   74MOL   C38731193   2.568   2.420   1.707 -0.0944  0.2000 -0.6699
   74MOL   C38831194   2.655   2.512   1.662 -0.0233 -0.0816 -0.1632
   74MOL   C38931195   2.745   2.576   1.747 -0.3479 -0.0437 -0.3392
   74MOL   C39031196   3.105   2.882   2.164 -0.1851 -0.2938 -0.4298
   74MOL   H39131197   2.928   2.852   2.045 -1.0818 -0.4389 -0.3044
   74MOL   H39231198   2.859   2.492   2.115 -0.1299  0.0214  1.1867
   74MOL   H39331199   2.764   2.608   2.167 -1.4262 -0.6737 -2.0961
   74MOL   H39431200   2.639   2.436   2.042  1.8982 -1.9157 -0.3918
   74MOL   H39531201   2.491   2.310   1.870 -0.7962  0.8620  1.0590
   74MOL   H39631202   2.505   2.376   1.631  0.7301 -1.7858 -0.2538
   74MOL   H39731203   2.644   2.539   1.558  0.8293 -0.7137 -0.4176
   74MOL   H39831204   2.814   2.648   1.705  0.0711  2.2392  3.8700
   74MOL   H39931205   3.153   2.840   2.253  0.1051 -1.1795 -1.0022
   74MOL   H40031206   3.093   2.984   2.202 -1.4801 -0.8035  0.5621
   74MOL   C40131207   3.195   2.873   2.038 -0.4067  0.9027 -0.1014
   74MOL   O40231208   3.272   2.991   2.027 -0.2330 -0.5550 -0.3467
   74MOL   C40331209   3.316   3.022   1.902  0.1319 -0.0411 -0.0446
   74MOL   O40431210   3.396   3.135   1.893  0.3760 -0.2482 -0.1443
   74MOL   C40531211   3.341   3.258   1.927 -0.3967  1.3147  0.6428
   74MOL   C40631212   3.206   3.271   1.969 -0.5950 -0.2192  0.0969
   74MOL   C40731213   3.167   3.404   2.009  0.3260 -0.5984  0.6425
   74MOL   C40831214   3.250   3.518   1.996  0.5277 -0.3998 -0.2462
   74MOL   C40931215   3.382   3.500   1.957  0.4825 -0.1033  0.5729
   74MOL   C41031216   3.429   3.369   1.922 -0.1840  0.9018  0.4210
   74MOL   C41131217   3.277   2.739   2.038 -0.5451  0.4165 -0.2944
   74MOL   H41231218   3.129   2.858   1.953  2.0035 -2.1123 -1.5255
   74MOL   H41331219   3.238   3.023   1.826 -1.7065  0.2106  1.8039
   74MOL   H41431220   3.378   2.935   1.882 -1.3464 -2.1806  4.1148
   74MOL   H41531221   3.132   3.193   1.969 -1.8587  0.9140  2.9298
   74MOL   H41631222   3.066   3.427   2.036  0.3185 -0.6573  0.6659
   74MOL   H41731223   3.210   3.617   2.012 -1.9351 -1.6367  1.5124
   74MOL   H41831224   3.446   3.585   1.939  3.1094 -2.2617 -0.5491
   74MOL   H41931225   3.534   3.347   1.904 -0.9228 -1.6196 -1.0338
   74MOL   H42031226   3.318   2.709   1.941  1.0207  1.9229 -0.1259
   74MOL   H42131227   3.207   2.662   2.069  1.2344 -1.1950 -0.1599
   74MOL   H42231228   3.354   2.741   2.115 -0.1595  2.1016 -0.7062
   75MOL     C131229   7.961   6.610   6.364 -0.6881  0.5037  0.6013
   75MOL     O231230   0.036   6.709   6.447 -0.1163 -0.5644  0.1508
   75MOL     C331231   0.032   6.679   6.585 -0.6486  0.2113  0.9884
   75MOL     O431232   7.874   6.678   6.620  0.5148 -0.5667 -0.0400
   75MOL     C531233   7.813   6.803   6.636  1.0275  0.0726  0.3597
   75MOL     C631234   7.875   6.926   6.625  0.3268 -0.0769 -0.4359
   75MOL     C731235   7.805   7.048   6.630  0.3469  0.8370  0.3261
   75MOL     C831236   7.667   7.050   6.655 -0.2726 -0.4600 -0.4836
   75MOL     C931237   7.598   6.927   6.668  0.2591  0.1105  0.0861
   75MOL    C1031238   7.672   6.806   6.662 -0.1649 -0.0327 -0.5850
   75MOL    C1131239   7.964   6.656   6.214  0.0313  0.7140 -0.2834
   75MOL    H1231240   0.042   6.517   6.375 -1.6647 -0.1662  0.0371
   75MOL    H1331241   0.071   6.577   6.581 -0.1040  0.5198 -3.7697
   75MOL    H1431242   0.096   6.732   6.655  0.3920  1.1291 -0.6389
   75MOL    H1531243   0.008   6.924   6.626  0.3996  2.7670 -0.5938
   75MOL    H1631244   7.859   7.142   6.630  0.9439  0.5010  1.1843
   75MOL    H1731245   7.609   7.140   6.665 -1.7935 -1.3795 -0.8768
   75MOL    H1831246   7.494   6.923   6.696  0.8218 -2.7962  1.9062
   75MOL    H1931247   7.613   6.717   6.677 -0.0565 -0.0464 -0.2273
   75MOL    H2031248   0.091   6.693   6.203 -0.2248  1.8522  1.0630
   75MOL    H2131249   7.911   6.749   6.194  0.5112  0.8796 -0.8231
   75MOL    H2231250   7.856   6.593   6.388 -0.5525 -1.2452  0.0202
   75MOL    C2331251   7.927   6.548   6.106  0.5334 -0.2014 -0.2165
   75MOL    O2431252   7.917   6.613   5.980 -0.1591  0.2439  0.1183
   75MOL    C2531253   0.067   6.622   5.910 -0.5199  0.5683 -0.0429
   75MOL    O2631254   0.107   6.494   5.872 -0.1168 -0.1773  0.1739
   75MOL    C2731255   0.237   6.494   5.821 -0.4066 -0.1807 -0.1180
   75MOL    C2831256   0.300   6.370   5.833  0.8500 -0.6309 -0.5028
   75MOL    C2931257   0.431   6.353   5.781  0.3439  0.3572  0.0254
   75MOL    C3031258   0.501   6.468   5.739  0.5741 -1.0157 -0.3689
   75MOL    C3131259   0.437   6.596   5.730  0.3900 -0.1353  0.4586
   75MOL    C3231260   0.299   6.604   5.758  0.2567  1.1364 -0.4027
   75MOL    C3331261   7.791   6.471   6.117  0.3192  0.2201  1.1660
   75MOL    H3431262   0.025   6.468   6.118  0.2458 -0.4352  0.0053
   75MOL    H3531263   0.135   6.690   5.962  0.3439 -0.7455  0.5753
   75MOL    H3631264   0.046   6.674   5.817  0.4559  2.3896  0.7216
   75MOL    H3731265   0.245   6.296   5.890  1.5263 -0.6561  0.1372
   75MOL    H3831266   0.482   6.258   5.785  2.0409  1.0978 -2.4516
   75MOL    H3931267   0.604   6.469   5.707  0.7759 -1.3697  0.2770
   75MOL    H4031268   0.495   6.680   5.694  1.2896 -0.6816  0.6296
   75MOL    H4131269   0.249   6.697   5.737  1.1341  1.7539  0.1743
   75MOL    H4231270   7.709   6.541   6.101 -0.4453 -0.8981  0.1388
   75MOL    H4331271   7.772   6.434   6.217  2.4089  1.2863  1.9828
   75MOL    C4431272   7.777   6.364   6.007 -1.1232  0.2170  0.6359
   75MOL    O4531273   7.640   6.325   5.994 -0.4487  0.6207  0.3101
   75MOL    C4631274   7.579   6.352   5.875  0.5445 -0.7623 -0.0134
   75MOL    O4731275   7.567   6.496   5.854 -0.0523  0.7083 -0.0256
   75MOL    C4831276   7.540   6.537   5.724 -0.3158 -0.2307  0.2436
   75MOL    C4931277   7.446   6.471   5.641  0.2148  0.5615  0.1917
   75MOL    C5031278   7.425   6.530   5.509 -0.0633  0.2986  0.1720
   75MOL    C5131279   7.489   6.648   5.466  0.7834  0.9000  0.7135
   75MOL    C5231280   7.581   6.707   5.550  0.0930  0.1655  0.6506
   75MOL    C5331281   7.606   6.655   5.677 -0.0188  0.0884 -0.3317
   75MOL    C5431282   7.849   6.233   6.037 -0.5048 -0.1326 -0.4269
   75MOL    H5531283   7.809   6.409   5.913  1.2919 -2.2436  0.2262
   75MOL    H5631284   7.477   6.316   5.878 -0.3080  1.6059  0.4626
   75MOL    H5731285   7.638   6.308   5.794  0.3157  0.6617 -0.9671
   75MOL    H5831286   7.401   6.375   5.660  2.1944 -0.7257 -1.3887
   75MOL    H5931287   7.361   6.488   5.434 -0.1727  1.8448 -0.6258
   75MOL    H6031288   7.460   6.688   5.370 -3.5100 -0.2159  1.4410
   75MOL    H6131289   7.636   6.791   5.510  1.3114 -1.6539 -1.6291
   75MOL    H6231290   7.678   6.697   5.747 -1.2434  0.8973  0.4536
   75MOL    H6331291   7.953   6.250   6.065 -0.8589  1.5024 -0.0302
   75MOL    H6431292   7.794   6.189   6.120 -2.6824  2.0648 -0.6181
   75MOL    C6531293   7.864   6.128   5.930 -0.4236  0.1092  0.0860
   75MOL    O6631294   7.749   6.070   5.874 -0.1722  0.4619 -0.0896
   75MOL    C6731295   7.665   5.985   5.951  0.6879  0.1692  0.0397
   75MOL    O6831296   7.718   5.862   5.987  0.2014  0.1249  0.5535
   75MOL    C6931297   7.725   5.765   5.900 -0.0878  0.0670 -0.9742
   75MOL    C7031298   7.696   5.770   5.766 -0.2576  0.2342  0.0915
   75MOL    C7131299   7.717   5.666   5.678  0.2528  0.1466  0.5189
   75MOL    C7231300   7.763   5.540   5.730 -1.0316 -0.1700 -0.3501
   75MOL    C7331301   7.789   5.524   5.869  0.1629  0.6003 -0.0812
   75MOL    C7431302   7.771   5.639   5.950 -1.0879  0.2807  0.4863
   75MOL    C7531303   7.948   6.186   5.816 -0.1819 -0.4574 -0.1879
   75MOL    H7631304   7.916   6.048   5.984 -0.4750 -0.3343 -0.5140
   75MOL    H7731305   7.563   5.989   5.911  0.6601 -1.0549 -0.0464
   75MOL    H7831306   7.657   6.038   6.045 -1.0782 -1.4604  0.8477
   75MOL    H7931307   7.674   5.864   5.718  0.1776 -0.0684 -0.7128
   75MOL    H8031308   7.700   5.680   5.573 -0.2845 -0.2802  0.5489
   75MOL    H8131309   7.771   5.456   5.662 -1.9298 -1.4612  1.0860
   75MOL    H8231310   7.838   5.437   5.911  1.6445  2.1205  1.4011
   75MOL    H8331311   7.789   5.629   6.056 -2.1063  2.5930  0.8992
   75MOL    H8431312   7.877   6.243   5.757  0.0921  0.8963  0.7594
   75MOL    H8531313   0.043   6.262   5.849  0.2273 -0.6216 -0.6674
   75MOL    C8631314   0.049   6.079   5.733  0.4600 -0.2893 -0.3153
   75MOL    O8731315   0.104   6.121   5.603  0.0966 -0.0665 -0.2822
   75MOL    C8831316   0.009   6.142   5.501 -0.0113 -0.3297 -0.3941
   75MOL    O8931317   7.915   6.026   5.464 -0.4610  0.0365 -0.0254
   75MOL    C9031318   7.798   6.035   5.392  0.1403 -0.4058 -0.1140
   75MOL    C9131319   7.690   6.108   5.454  0.2362  0.0640 -0.5818
   75MOL    C9231320   7.567   6.123   5.392  0.2812 -1.0325  0.8931
   75MOL    C9331321   7.554   6.082   5.255  0.1160 -0.1936 -0.3873
   75MOL    C9431322   7.665   6.031   5.186  0.2234 -0.1803  0.0361
   75MOL    C9531323   7.782   5.999   5.255 -0.0142 -0.5734  0.7798
   75MOL    C9631324   0.172   6.022   5.812 -0.8301  0.8029 -0.2229
   75MOL    H9731325   7.951   5.999   5.719  2.0437 -1.5582 -1.5986
   75MOL    H9831326   0.064   6.180   5.414  0.8764  0.3124  0.4348
   75MOL    H9931327   7.923   6.226   5.531  0.9277 -0.3845  1.7317
   75MOL   H10031328   7.692   6.145   5.556 -1.3628 -1.4337  0.0298
   75MOL   H10131329   7.488   6.171   5.449  1.8561  2.1965  0.4399
   75MOL   H10231330   7.464   6.099   5.199 -0.6777  0.0123  0.9426
   75MOL   H10331331   7.651   6.017   5.080 -1.8663  2.3755 -0.0669
   75MOL   H10431332   7.864   5.955   5.200  0.2288 -1.2743  1.6868
   75MOL   H10531333   0.244   6.102   5.829 -1.8869  0.9634  4.1914
   75MOL   H10631334   0.148   6.000   5.916  0.4151  0.6848  0.0508
   75MOL   C10731335   0.238   5.908   5.741 -0.2053 -0.0210  0.4684
   75MOL   O10831336   0.367   5.944   5.696  0.0119 -0.1553 -1.1036
   75MOL   C10931337   0.380   5.958   5.553 -0.0847 -0.0474 -0.6906
   75MOL   O11031338   0.405   5.835   5.502 -0.4220 -0.6201  0.3335
   75MOL   C11131339   0.403   5.815   5.366  0.5392 -0.5144  0.1271
   75MOL   C11231340   0.397   5.925   5.280  0.4286  0.8413 -0.1013
   75MOL   C11331341   0.392   5.908   5.139  0.4789 -0.2527 -0.2236
   75MOL   C11431342   0.396   5.780   5.090  0.1471  0.1494  0.6765
   75MOL   C11531343   0.402   5.664   5.171  0.7425  0.5429 -0.3273
   75MOL   C11631344   0.406   5.688   5.309 -0.3216  0.4346  0.0252
   75MOL   C11731345   0.264   5.793   5.840 -0.2945  0.3242 -0.2887
   75MOL   H11831346   0.183   5.875   5.653 -0.2048 -0.4581  0.6286
   75MOL   H11931347   0.477   6.007   5.548 -0.0327 -0.0164  0.4832
   75MOL   H12031348   0.305   6.029   5.518  0.3265  1.6060  1.6702
   75MOL   H12131349   0.389   6.025   5.321  2.2046  0.2604  1.7342
   75MOL   H12231350   0.383   6.001   5.084  0.8893  1.1196  1.9360
   75MOL   H12331351   0.395   5.759   4.984  1.0300 -0.0877  0.7077
   75MOL   H12431352   0.402   5.565   5.129 -0.1421  0.6744 -0.6587
   75MOL   H12531353   0.405   5.607   5.380 -0.3284  0.0315 -0.4342
   75MOL   H12631354   0.173   5.762   5.891  0.1563 -0.4126  0.0836
   75MOL   H12731355   0.322   5.819   5.929 -0.4521  0.5633 -0.2556
   75MOL   C12831356   0.297   5.667   5.764  0.3762  0.2407  0.0589
   75MOL   O12931357   0.170   5.623   5.719  0.5625 -0.0195  0.2363
   75MOL   C13031358   0.171   5.584   5.581 -0.6207 -0.4562  0.0297
   75MOL   O13131359   0.256   5.467   5.549 -0.0446 -0.5178  0.1659
   75MOL   C13231360   0.197   5.341   5.550  0.1076  0.0051 -0.3610
   75MOL   C13331361   0.271   5.233   5.598  0.2092  0.1026  0.1287
   75MOL   C13431362   0.225   5.110   5.620 -0.1444 -0.0464  0.0062
   75MOL   C13531363   0.092   5.076   5.582  0.1752  0.7227 -0.2381
   75MOL   C13631364   0.010   5.182   5.535 -0.8745  0.4264  0.2894
   75MOL   C13731365   0.062   5.316   5.519 -0.3565  0.1892  0.0759
   75MOL   C13831366   0.370   5.556   5.848 -0.8962  0.4108  0.4427
   75MOL   H13931367   0.367   5.682   5.682  0.1553  0.6417 -0.0574
   75MOL   H14031368   0.191   5.680   5.534 -2.1729  0.8175  1.8884
   75MOL   H14131369   0.066   5.557   5.571 -1.0139  1.3787 -1.0654
   75MOL   H14231370   0.375   5.253   5.619 -0.4806  0.0657  3.9372
   75MOL   H14331371   0.293   5.033   5.654 -1.0065 -0.3049  1.1612
   75MOL   H14431372   0.065   4.972   5.585 -1.3672  1.1136 -0.4933
   75MOL   H14531373   7.881   5.164   5.518 -1.0014  1.4941 -0.0690
   75MOL   H14631374   7.975   5.390   5.470  1.3965  0.9695 -0.9994
   75MOL   H14731375   0.311   5.536   5.937 -0.4808 -1.6989  0.2817
   75MOL   H14831376   0.361   5.459   5.798  0.0594  1.0834 -1.0718
   75MOL   C14931377   0.522   5.573   5.878 -0.2880 -0.3665  0.1917
   75MOL   O15031378   0.553   5.478   5.985 -0.3055  0.0166 -0.2533
   75MOL   C15131379   0.601   5.535   6.109  0.2274 -0.2483  0.0375
   75MOL   O15231380   0.516   5.623   6.172 -0.1394  0.0989 -0.1106
   75MOL   C15331381   0.538   5.665   6.301 -0.1923  0.1077  0.7179
   75MOL   C15431382   0.628   5.605   6.385  0.3518 -0.4041 -0.3908
   75MOL   C15531383   0.659   5.660   6.512 -0.0236  0.3980  0.2031
   75MOL   C15631384   0.604   5.785   6.544  0.4052  0.1251  0.1319
   75MOL   C15731385   0.506   5.841   6.460 -0.2769  0.6928  0.5996
   75MOL   C15831386   0.470   5.786   6.339 -0.1397 -0.2930  0.2874
   75MOL   C15931387   0.605   5.524   5.764 -0.3984 -0.1040 -0.9287
   75MOL   H16031388   0.568   5.668   5.908 -0.4680  0.2963 -1.5668
   75MOL   H16131389   0.614   5.448   6.174 -0.6425 -0.2139  0.2632
   75MOL   H16231390   0.702   5.571   6.090  0.7582 -1.7523 -0.1236
   75MOL   H16331391   0.678   5.513   6.359  0.1096 -0.3708 -0.9638
   75MOL   H16431392   0.736   5.618   6.575  0.2360  1.8935  0.8934
   75MOL   H16531393   0.645   5.844   6.624  1.0150  0.4406 -0.4112
   75MOL   H16631394   0.491   5.946   6.482  1.1838  0.9134  0.5573
   75MOL   H16731395   0.406   5.837   6.268 -2.2978 -1.7641  1.1150
   75MOL   H16831396   0.603   5.597   5.682 -0.5142  2.2253  1.0972
   75MOL   H16931397   0.573   5.423   5.737  0.1061 -0.7845  0.9432
   75MOL   C17031398   0.754   5.522   5.792 -0.0901 -0.0448  0.3767
   75MOL   O17131399   0.831   5.458   5.692 -0.0461  0.4051  0.1471
   75MOL   C17231400   0.917   5.354   5.724 -0.2670 -0.1646  0.3686
   75MOL   O17331401   0.990   5.319   5.613 -0.9139 -0.3302 -0.4877
   75MOL   C17431402   1.081   5.218   5.616  0.0315 -0.1285  0.6800
   75MOL   C17531403   1.132   5.164   5.739  0.2641 -1.0949  0.2139
   75MOL   C17631404   1.216   5.050   5.729  1.0040  0.0067 -0.5659
   75MOL   C17731405   1.245   4.988   5.607  0.0949 -0.1955 -0.3011
   75MOL   C17831406   1.185   5.036   5.491  0.0273 -0.1913 -0.8886
   75MOL   C17931407   1.107   5.151   5.497 -0.4372  0.6012 -0.5141
   75MOL   C18031408   0.835   5.653   5.816  0.2437  0.3289 -0.5239
   75MOL   H18131409   0.762   5.469   5.887  0.9313  2.4214  1.7133
   75MOL   H18231410   0.855   5.269   5.755  1.1095 -0.3885  2.6464
   75MOL   H18331411   0.984   5.381   5.806  0.2451 -0.6910  0.1338
   75MOL   H18431412   1.123   5.213   5.835 -1.2424  0.6248 -0.8010
   75MOL   H18531413   1.261   4.999   5.812 -2.2819 -2.2165 -0.0444
   75MOL   H18631414   1.311   4.902   5.611  1.4697  0.9300  2.0934
   75MOL   H18731415   1.200   4.981   5.399  0.4770 -0.0271 -0.9116
   75MOL   H18831416   1.057   5.183   5.406 -0.7989  0.3931 -0.3899
   75MOL   H18931417   0.826   5.713   5.726 -0.3434  1.7316  0.4524
   75MOL   H19031418   0.777   5.701   5.895  0.6483  1.3717 -0.8543
   75MOL   C19131419   0.980   5.662   5.869  0.2619  0.4034 -0.1232
   75MOL   O19231420   0.998   5.564   5.967  0.4592 -0.3276  0.1214
   75MOL   C19331421   1.135   5.514   5.964  0.0523  0.3434  0.1173
   75MOL   O19431422   1.149   5.398   6.037 -0.1197  0.1720 -0.2800
   75MOL   C19531423   1.269   5.325   6.033  0.8229 -0.3210  0.5869
   75MOL   C19631424   1.269   5.189   6.077 -0.1911 -0.2554 -0.0320
   75MOL   C19731425   1.387   5.112   6.073  0.5149  0.6142  0.4522
   75MOL   C19831426   1.501   5.173   6.020  0.3528  0.5928  0.0734
   75MOL   C19931427   1.505   5.306   5.973  0.9104 -0.5957  0.2522
   75MOL   C20031428   1.390   5.384   5.983  0.0086  0.4544 -0.0705
   75MOL   C20131429   0.996   5.800   5.935 -0.5720  0.2317  0.1944
   75MOL   H20231430   1.041   5.650   5.780 -1.6531 -2.6993 -1.1269
   75MOL   H20331431   1.195   5.594   6.007 -0.1857  0.1867  0.7472
   75MOL   H20431432   1.170   5.487   5.864  0.9861  0.6751  0.3528
   75MOL   H20531433   1.180   5.150   6.123 -0.6731  1.6257  0.6410
   75MOL   H20631434   1.383   5.011   6.113 -0.0810  0.1930 -0.6498
   75MOL   H20731435   1.585   5.107   6.003 -0.7518 -0.3551 -1.8856
   75MOL   H20831436   1.598   5.355   5.947  1.3850 -1.0103  1.1360
   75MOL   H20931437   1.395   5.487   5.952  1.2207  0.1005 -1.0481
   75MOL   H21031438   0.924   5.873   5.897  0.1490  1.6103  1.4152
   75MOL   H21131439   0.949   5.801   6.033 -0.4556  1.4631  0.2484
   75MOL   C21231440   1.136   5.863   5.949  0.0269  0.5607 -0.5080
   75MOL   O21331441   1.184   5.879   5.817 -0.6754  0.0484  0.0914
   75MOL   C21431442   1.313   5.847   5.792 -0.3759  0.0026 -0.0803
   75MOL   O21531443   1.329   5.708   5.792  0.0410 -0.0419 -0.3000
   75MOL   C21631444   1.328   5.655   5.662 -0.2014 -0.1324 -0.3143
   75MOL   C21731445   1.402   5.543   5.635 -0.1955  0.4510  0.0018
   75MOL   C21831446   1.393   5.487   5.504  0.0886 -1.5697 -0.2744
   75MOL   C21931447   1.305   5.536   5.405  0.1199 -0.5595 -0.0155
   75MOL   C22031448   1.231   5.653   5.435  0.6010  0.7438 -0.7609
   75MOL   C22131449   1.242   5.710   5.562  0.1951  0.1099  0.2610
   75MOL   C22231450   1.123   6.000   6.013 -0.0898  0.5020 -0.7964
   75MOL   H22331451   1.214   5.813   6.006 -0.3885 -0.0195 -0.4512
   75MOL   H22431452   1.372   5.885   5.875 -0.2044  0.7659 -0.5483
   75MOL   H22531453   1.353   5.894   5.702  1.0356  1.0507  1.0689
   75MOL   H22631454   1.458   5.490   5.711 -1.1296 -2.1226 -1.0430
   75MOL   H22731455   1.455   5.402   5.479  0.8890 -0.7243 -1.1732
   75MOL   H22831456   1.293   5.493   5.307  0.1112 -2.0422  0.6121
   75MOL   H22931457   1.169   5.694   5.357  1.9996  2.5906 -0.9322
   75MOL   H23031458   1.181   5.797   5.583 -1.0240 -0.7543  0.3768
   75MOL   H23131459   1.100   6.074   5.935  0.5366  0.1826 -1.2873
   75MOL   H23231460   1.034   6.016   6.073  0.1463  0.1472 -0.3540
   75MOL   C23331461   1.233   6.052   6.111  0.1288  0.1360  0.1771
   75MOL   O23431462   1.362   6.042   6.050  0.4309 -0.1021  0.1148
   75MOL   C23531463   1.463   5.987   6.134  0.3476  0.7560 -0.3982
   75MOL   O23631464   1.426   5.858   6.171 -0.3163 -0.5369 -0.1683
   75MOL   C23731465   1.499   5.785   6.264  0.1221 -0.1779  0.6221
   75MOL   C23831466   1.503   5.648   6.233  0.0703  0.7153 -0.0788
   75MOL   C23931467   1.561   5.558   6.323  0.3251 -0.1804 -0.0347
   75MOL   C24031468   1.635   5.605   6.439 -0.9813  0.2184  1.2181
   75MOL   C24131469   1.625   5.740   6.474 -0.0057  0.3767  0.1073
   75MOL   C24231470   1.560   5.830   6.386 -0.8015 -0.1545 -0.8806
   75MOL   C24331471   1.210   6.196   6.166 -1.0573 -0.0687 -0.8281
   75MOL   H24431472   1.227   5.998   6.205 -4.5183 -2.0187 -1.1982
   75MOL   H24531473   1.478   6.064   6.209 -0.0288 -0.7769  1.2755
   75MOL   H24631474   1.557   5.964   6.083 -0.4858 -1.3278 -1.0734
   75MOL   H24731475   1.453   5.622   6.141  3.9048  0.1155 -2.0800
   75MOL   H24831476   1.572   5.454   6.299  1.8861 -0.5207  1.9945
   75MOL   H24931477   1.684   5.533   6.503  1.5935  0.5313 -0.3619
   75MOL   H25031478   1.666   5.765   6.571 -0.6450 -0.0930  0.5034
   75MOL   H25131479   1.548   5.930   6.425 -0.0855 -0.7399  0.8707
   75MOL   H25231480   1.302   6.244   6.200 -1.5304 -0.8027  1.5637
   75MOL   H25331481   1.175   6.253   6.079  0.6704 -0.2270 -1.6618
   75MOL   C25431482   1.091   6.210   6.270 -0.6714  0.3370  0.1526
   75MOL   O25531483   1.135   6.134   6.382 -0.3244  0.4154 -0.0732
   75MOL   C25631484   1.033   6.082   6.466 -0.2343  0.0761  1.0351
   75MOL   O25731485   0.954   5.980   6.410 -0.4366 -0.4730  0.9456
   75MOL   C25831486   1.004   5.854   6.389 -0.5897  0.3928  0.0749
   75MOL   C25931487   1.131   5.810   6.432  0.9061  0.0643  0.0270
   75MOL   C26031488   1.184   5.689   6.383 -0.2585  0.3711  0.3126
   75MOL   C26131489   1.103   5.595   6.309 -0.1043 -0.3319  0.7305
   75MOL   C26231490   0.967   5.633   6.286  0.2674 -0.7267  0.0397
   75MOL   C26331491   0.922   5.763   6.318  0.5843  0.3180 -0.1368
   75MOL   C26431492   1.093   6.358   6.312 -0.1921  0.4566 -0.7113
   75MOL   H26531493   0.995   6.177   6.230 -0.1101 -1.2380  0.0444
   75MOL   H26631494   0.969   6.158   6.510  0.5494  0.9753  0.6403
   75MOL   H26731495   1.081   6.042   6.555  1.1095 -2.7601 -0.8709
   75MOL   H26831496   1.197   5.875   6.487 -0.4558  2.3426 -0.9595
   75MOL   H26931497   1.282   5.651   6.410 -0.1571  2.1057  2.5403
   75MOL   H27031498   1.156   5.503   6.287  0.1815 -0.0524  0.2454
   75MOL   H27131499   0.902   5.573   6.224 -2.7668  2.1611  0.2699
   75MOL   H27231500   0.829   5.808   6.287 -0.2822 -0.5075  1.2211
   75MOL   H27331501   1.030   6.365   6.401 -1.6988  0.9859 -1.8041
   75MOL   H27431502   1.196   6.390   6.326 -0.5886  1.0723  0.9708
   75MOL   C27531503   1.028   6.454   6.206 -0.4905 -0.0938  0.6815
   75MOL   O27631504   0.907   6.400   6.168  0.3760  0.2069 -0.0345
   75MOL   C27731505   0.868   6.415   6.039  0.3371 -0.3828  0.1682
   75MOL   O27831506   0.914   6.312   5.952 -0.2590 -0.4202  0.1228
   75MOL   C27931507   0.896   6.327   5.818  0.4956 -0.2913  0.2934
   75MOL   C28031508   0.918   6.451   5.747  0.1070 -0.3310  0.5372
   75MOL   C28131509   0.886   6.459   5.606  0.4679  0.1694 -0.0367
   75MOL   C28231510   0.833   6.345   5.540 -0.1874  0.2951 -0.2154
   75MOL   C28331511   0.817   6.223   5.610  0.1326  0.0733  0.1312
   75MOL   C28431512   0.848   6.212   5.747 -0.3669 -0.2234 -0.3530
   75MOL   C28531513   0.986   6.588   6.266 -0.3690  0.5512 -0.2651
   75MOL   H28631514   1.084   6.457   6.112 -1.8502  1.1403 -0.1121
   75MOL   H28731515   0.901   6.515   6.015 -0.4463  0.5351  2.7117
   75MOL   H28831516   0.761   6.415   6.059  0.1215  4.9175 -0.3648
   75MOL   H28931517   0.953   6.537   5.803 -2.5094  0.1776  1.4529
   75MOL   H29031518   0.916   6.549   5.554  2.0255 -0.7629 -0.7933
   75MOL   H29131519   0.811   6.346   5.434  0.4763  1.8281 -0.3459
   75MOL   H29231520   0.785   6.141   5.547 -0.3876  0.4781 -0.1441
   75MOL   H29331521   0.827   6.117   5.793 -0.6482  0.2744  0.5538
   75MOL   H29431522   0.921   6.567   6.351 -0.2567  2.7405  0.3836
   75MOL   H29531523   0.934   6.655   6.198 -1.3116 -1.7928 -1.9553
   75MOL   C29631524   1.113   6.674   6.312 -0.7571  0.5268  0.1068
   75MOL   O29731525   1.197   6.714   6.207 -0.1277 -0.2291  0.3678
   75MOL   C29831526   1.334   6.700   6.216 -0.0592  0.4630 -0.0615
   75MOL   O29931527   1.364   6.571   6.171 -0.7747 -0.3771  0.6524
   75MOL   C30031528   1.493   6.527   6.156  0.5875  0.0366 -0.5734
   75MOL   C30131529   1.606   6.598   6.191  0.0501  0.6066  0.5347
   75MOL   C30231530   1.734   6.531   6.202 -0.3590  0.5211 -0.1851
   75MOL   C30331531   1.751   6.399   6.156  0.3577 -0.0214 -0.4908
   75MOL   C30431532   1.637   6.332   6.106  0.3406  0.3974 -0.0406
   75MOL   C30531533   1.512   6.396   6.103 -0.1917  0.4834 -0.4325
   75MOL   C30631534   1.072   6.796   6.401 -0.4870 -0.1642  0.1676
   75MOL   H30731535   1.176   6.616   6.379  0.9626  0.7289 -1.3187
   75MOL   H30831536   1.390   6.715   6.308  0.6683 -1.7521 -0.1371
   75MOL   H30931537   1.383   6.765   6.144  2.1170  1.3729  2.1934
   75MOL   H31031538   1.602   6.699   6.228 -0.6515 -0.8787  4.8653
   75MOL   H31131539   1.814   6.588   6.247 -0.6975 -0.0063  1.1003
   75MOL   H31231540   1.846   6.347   6.158 -1.4833 -3.6220 -1.5515
   75MOL   H31331541   1.656   6.237   6.058 -1.9151 -0.2026  0.1871
   75MOL   H31431542   1.434   6.338   6.057  0.6164 -3.0403  2.4174
   75MOL   H31531543   1.005   6.849   6.333  1.1215  2.2037  0.3933
   75MOL   H31631544   1.145   6.874   6.418 -0.8896  0.4606 -0.9359
   75MOL   C31731545   0.996   6.760   6.530  0.6025  0.1896  0.5509
   75MOL   O31831546   0.931   6.871   6.589 -0.2398  0.5953 -0.1355
   75MOL   C31931547   0.796   6.889   6.551  0.5278 -0.3016 -0.6150
   75MOL   O32031548   0.795   6.931   6.415 -0.1436 -0.1488  0.2333
   75MOL   C32131549   0.781   7.065   6.392 -0.0535  0.5385 -0.0819
   75MOL   C32231550   0.670   7.148   6.437  0.1189 -0.1296 -0.3163
   75MOL   C32331551   0.669   7.289   6.423 -0.6463  0.6251 -0.4258
   75MOL   C32431552   0.771   7.350   6.345  0.1696  0.1381  1.4747
   75MOL   C32531553   0.879   7.267   6.296  0.0473 -0.1013  0.5038
   75MOL   C32631554   0.888   7.127   6.318  0.2872  0.5705 -0.0690
   75MOL   C32731555   1.088   6.707   6.643 -0.0623 -0.0710 -0.0785
   75MOL   H32831556   0.934   6.671   6.517  1.1752 -0.4889  2.3244
   75MOL   H32931557   0.750   6.963   6.616  0.9226 -1.7483  1.3598
   75MOL   H33031558   0.725   6.807   6.557  1.3618 -1.1677 -2.2941
   75MOL   H33131559   0.589   7.102   6.492 -0.3183 -0.4168 -1.1799
   75MOL   H33231560   0.587   7.350   6.458  0.5953  1.0271  1.8669
   75MOL   H33331561   0.769   7.455   6.319  1.2078 -0.1309  0.2598
   75MOL   H33431562   0.964   7.314   6.249 -0.4401 -0.3109 -0.5984
   75MOL   H33531563   0.968   7.061   6.287 -0.0713  0.5401 -0.9324
   75MOL   H33631564   1.020   6.677   6.723  1.7092 -2.9564  0.4289
   75MOL   H33731565   1.138   6.617   6.608 -0.2870  0.2824 -1.3044
   75MOL   C33831566   1.198   6.807   6.692  0.8060 -0.0055  0.3836
   75MOL   O33931567   1.196   6.809   6.833 -0.2834  0.4960 -0.6391
   75MOL   C34031568   1.134   6.913   6.894  0.2602  0.3145  0.3055
   75MOL   O34131569   1.204   7.031   6.871 -0.1307 -0.0752 -0.1036
   75MOL   C34231570   1.178   7.119   6.770 -0.3745 -0.3031 -0.2125
   75MOL   C34331571   1.284   7.207   6.737 -0.3105 -0.5563 -0.1688
   75MOL   C34431572   1.263   7.309   6.648 -0.3329 -0.2986 -0.1080
   75MOL   C34531573   1.133   7.330   6.595  0.1343  0.0126 -0.1653
   75MOL   C34631574   1.028   7.245   6.624 -0.5294 -0.1881 -0.0176
   75MOL   C34731575   1.052   7.137   6.709  0.7055 -0.5950 -0.3001
   75MOL   C34831576   1.336   6.760   6.646 -0.0334  0.4765  0.2966
   75MOL   H34931577   1.176   6.906   6.650  1.5103  0.6521  1.5306
   75MOL   H35031578   1.128   6.885   6.999 -0.8212 -3.4918 -0.6927
   75MOL   H35131579   1.031   6.924   6.858  1.2459  0.9957 -2.4380
   75MOL   H35231580   1.386   7.184   6.766  0.2381 -1.4447 -2.6472
   75MOL   H35331581   1.347   7.365   6.612 -0.3639 -0.7196 -0.8477
   75MOL   H35431582   1.116   7.403   6.518  0.0251 -0.9757 -1.0849
   75MOL   H35531583   0.936   7.249   6.569  1.0711 -0.6979 -2.8338
   75MOL   H35631584   0.974   7.064   6.725  0.5884 -0.2040  0.9344
   75MOL   H35731585   1.323   6.754   6.538 -0.6822 -0.6240  0.4259
   75MOL   H35831586   1.354   6.662   6.691  2.9261 -0.5878 -2.9384
   75MOL   C35931587   1.459   6.850   6.668  0.1550  0.1020  0.8193
   75MOL   O36031588   1.549   6.804   6.562  0.2427  0.1666  0.0339
   75MOL   C36131589   1.595   6.900   6.479  0.5725 -0.5630 -0.4023
   75MOL   O36231590   1.492   6.953   6.394  0.5711  0.1193  0.3601
   75MOL   C36331591   1.496   7.077   6.342  0.3309  0.3372 -0.1254
   75MOL   C36431592   1.595   7.172   6.372  0.0568  0.5159  0.0600
   75MOL   C36531593   1.579   7.304   6.331 -0.0196 -0.2928 -0.2941
   75MOL   C36631594   1.468   7.343   6.253 -0.0047  0.2349  0.0154
   75MOL   C36731595   1.367   7.247   6.218  0.6802  0.3150 -0.5174
   75MOL   C36831596   1.379   7.120   6.272  0.2935  0.5633  0.3575
   75MOL   C36931597   1.524   6.843   6.815 -0.6651  0.3545  0.1291
   75MOL   H37031598   1.421   6.949   6.646  0.9500 -0.0679 -1.4193
   75MOL   H37131599   1.677   6.859   6.420  0.4299  0.4676 -1.3291
   75MOL   H37231600   1.637   6.975   6.548  1.5827 -1.6694  0.2066
   75MOL   H37331601   1.688   7.140   6.416 -0.9307 -3.0900 -0.3622
   75MOL   H37431602   1.645   7.381   6.369 -1.5067  0.9897 -0.2412
   75MOL   H37531603   1.462   7.442   6.209 -0.4532  0.8822  1.4901
   75MOL   H37631604   1.291   7.283   6.150 -1.0574 -1.6457  0.3516
   75MOL   H37731605   1.292   7.059   6.254 -1.6016  2.8890  1.3694
   75MOL   H37831606   1.556   6.740   6.832 -0.9011  0.2791  0.1172
   75MOL   H37931607   1.445   6.876   6.883  1.4063 -0.6924  3.1045
   75MOL   C38031608   1.661   6.913   6.832  0.8265  0.1615 -0.0118
   75MOL   O38131609   1.706   6.874   6.958 -0.0800  0.0518  0.2858
   75MOL   C38231610   1.799   6.767   6.952  0.5702  0.0863 -0.1668
   75MOL   O38331611   1.925   6.816   6.907  0.4295  0.0292  0.6317
   75MOL   C38431612   2.002   6.900   6.984  0.3935 -0.1608  0.6070
   75MOL   C38531613   2.116   6.957   6.924 -0.5019  0.2014 -0.5642
   75MOL   C38631614   2.202   7.052   6.986  0.1215 -0.3562 -1.0603
   75MOL   C38731615   2.161   7.092   7.119  0.4338  0.3554 -0.5588
   75MOL   C38831616   2.048   7.037   7.178  0.1967 -0.1511 -0.0667
   75MOL   C38931617   1.967   6.944   7.116 -0.3679 -0.6880 -0.0091
   75MOL   C39031618   1.651   7.062   6.830  1.2089  0.3014 -0.2588
   75MOL   H39131619   1.723   6.881   6.749  0.9216  1.4723 -0.4532
   75MOL   H39231620   1.805   6.736   7.056  0.1116 -0.7927 -0.4026
   75MOL   H39331621   1.752   6.685   6.899 -2.3057  1.2618  0.4568
   75MOL   H39431622   2.150   6.921   6.828  3.1712  0.7073  0.4763
   75MOL   H39531623   2.288   7.095   6.936  0.3979 -1.5316 -1.5946
   75MOL   H39631624   2.219   7.161   7.177  0.3402 -1.3341  1.5882
   75MOL   H39731625   2.019   7.059   7.280  1.1592  0.9708 -0.0293
   75MOL   H39831626   1.886   6.901   7.173 -0.8749 -0.5624 -0.6298
   75MOL   H39931627   1.627   7.092   6.932  1.2337  0.1753 -0.2159
   75MOL   H40031628   1.575   7.090   6.756  2.1572  1.2274 -0.8986
   75MOL   C40131629   1.773   7.144   6.786 -0.2328 -0.1592  0.2324
   75MOL   O40231630   1.816   7.103   6.653  0.3969 -0.2446  0.0619
   75MOL   C40331631   1.951   7.111   6.648  0.1814 -0.6261 -0.2957
   75MOL   O40431632   1.993   7.083   6.520 -0.1832 -0.0370  0.2843
   75MOL   C40531633   2.001   6.955   6.479 -0.1594  0.3937 -0.3728
   75MOL   C40631634   2.054   6.924   6.351  1.1878 -0.4449 -0.3557
   75MOL   C40731635   2.039   6.789   6.312 -0.4379  0.0584  0.3395
   75MOL   C40831636   1.990   6.686   6.395 -0.6422  0.5805 -0.7448
   75MOL   C40931637   1.942   6.718   6.520 -0.2632 -0.3871 -0.1147
   75MOL   C41031638   1.952   6.849   6.567 -0.5830 -0.2964  0.7040
   75MOL   C41131639   1.741   7.295   6.798 -0.1210  0.1936 -0.1284
   75MOL   H41231640   1.840   7.119   6.867 -1.3956 -4.2493  0.0094
   75MOL   H41331641   2.002   7.052   6.724  1.3555 -2.4759 -2.4566
   75MOL   H41431642   1.990   7.210   6.671  0.6127 -1.1246  1.1665
   75MOL   H41531643   2.090   7.002   6.286  1.9941 -2.0320 -1.8519
   75MOL   H41631644   2.076   6.771   6.211 -1.9949 -2.1094  0.1131
   75MOL   H41731645   1.993   6.581   6.372 -1.4650  0.2080  0.8134
   75MOL   H41831646   1.899   6.643   6.584  0.3483 -1.3744 -0.8526
   75MOL   H41931647   1.924   6.865   6.670  0.0114  1.0161  0.6805
   75MOL   H42031648   1.746   7.309   6.906  0.7163 -0.8360 -0.0282
   75MOL   H42131649   1.639   7.325   6.774  0.2327  1.2511 -0.3019
   75MOL   H42231650   1.815   7.362   6.755  1.2585  0.2001  2.2051
   76MOL     C131651   2.982   3.436   6.169  0.2763 -0.2561  0.6500
   76MOL     O231652   3.083   3.452   6.079 -0.2256  0.4988  0.6736
   76MOL     C331653   3.058   3.393   5.950 -0.1625 -0.6491 -0.0306
   76MOL     O431654   2.965   3.459   5.872 -0.6988 -0.6282  0.1227
   76MOL     C531655   2.990   3.592   5.853  0.1446 -0.9413  0.3043
   76MOL     C631656   2.873   3.674   5.826  0.9661  0.1329 -0.3816
   76MOL     C731657   2.894   3.803   5.774 -0.4219  0.2007  0.0238
   76MOL     C831658   3.029   3.843   5.735  0.0674  0.0423 -0.2231
   76MOL     C931659   3.132   3.762   5.757 -0.3602  0.6442 -0.0858
   76MOL    C1031660   3.118   3.637   5.818 -0.1355  0.9321  0.2264
   76MOL    C1131661   2.997   3.540   6.281  0.6438  0.1519 -0.0504
   76MOL    H1231662   2.891   3.451   6.112  2.0012 -1.8381 -2.6433
   76MOL    H1331663   3.152   3.382   5.896 -0.8843 -2.1449 -1.0167
   76MOL    H1431664   3.038   3.287   5.966  1.3214 -1.0803 -0.9905
   76MOL    H1531665   2.773   3.632   5.831  0.0657  2.3297  0.7066
   76MOL    H1631666   2.811   3.868   5.751  0.8309  2.3435  1.3461
   76MOL    H1731667   3.048   3.933   5.678  2.8260 -1.0928 -1.2279
   76MOL    H1831668   3.231   3.795   5.729  0.5241 -0.5685  1.5435
   76MOL    H1931669   3.199   3.568   5.832  0.4644  1.7957  1.0804
   76MOL    H2031670   3.052   3.630   6.252 -0.7908  0.6824 -1.1881
   76MOL    H2131671   3.047   3.492   6.365  1.6440 -0.1945 -0.8380
   76MOL    H2231672   2.982   3.337   6.214 -1.9080 -1.2565 -1.4979
   76MOL    C2331673   2.865   3.588   6.338  0.9604 -0.4595  0.4158
   76MOL    O2431674   2.784   3.660   6.238 -0.0351 -0.0264 -0.8011
   76MOL    C2531675   2.840   3.756   6.148  0.1995  0.6327 -0.0963
   76MOL    O2631676   2.848   3.879   6.216  0.0476  0.1680  0.0045
   76MOL    C2731677   2.957   3.959   6.188  0.7516 -0.2925 -0.2523
   76MOL    C2831678   3.018   3.966   6.064  0.4013  0.0554 -0.6596
   76MOL    C2931679   3.130   4.054   6.036 -0.4810 -0.1701  0.3612
   76MOL    C3031680   3.187   4.131   6.139  0.4033  1.0009 -0.2981
   76MOL    C3131681   3.124   4.125   6.262  0.9286 -0.1844  0.7363
   76MOL    C3231682   3.015   4.043   6.291 -0.0594  0.3601 -0.2177
   76MOL    C3331683   2.867   3.679   6.463  0.5494 -0.1376  0.0683
   76MOL    H3431684   2.807   3.500   6.369 -1.2369  0.4859 -0.8826
   76MOL    H3531685   2.771   3.753   6.065 -0.2660 -0.8433  0.3206
   76MOL    H3631686   2.934   3.723   6.104  0.1908 -0.9700  1.0499
   76MOL    H3731687   2.991   3.904   5.979 -0.5126 -1.6457  0.8351
   76MOL    H3831688   3.182   4.043   5.942  1.3116 -1.7192  1.4963
   76MOL    H3931689   3.273   4.196   6.124  2.9421 -2.0449  0.5282
   76MOL    H4031690   3.164   4.184   6.342 -0.8904  1.0918  0.7285
   76MOL    H4131691   2.977   4.038   6.391 -1.2212 -3.5253 -0.7785
   76MOL    H4231692   2.871   3.787   6.446 -1.5527 -0.0488  0.0349
   76MOL    H4331693   2.966   3.666   6.506  0.6182  0.6020  0.1407
   76MOL    C4431694   2.757   3.663   6.575 -0.0892 -0.0842  0.0155
   76MOL    O4531695   2.763   3.529   6.620  0.4428  0.4152  0.2173
   76MOL    C4631696   2.804   3.522   6.754 -0.3991 -0.0746 -0.0674
   76MOL    O4731697   2.933   3.563   6.782 -0.0026  0.0239 -0.0151
   76MOL    C4831698   3.043   3.487   6.735  0.3053 -0.1441  0.6785
   76MOL    C4931699   3.030   3.381   6.645 -0.3924  0.7972  1.1514
   76MOL    C5031700   3.143   3.310   6.589 -0.3760 -0.2993  0.2354
   76MOL    C5131701   3.269   3.356   6.622 -0.1065 -0.0377 -0.4057
   76MOL    C5231702   3.289   3.460   6.713 -0.1381 -0.3036 -0.4809
   76MOL    C5331703   3.178   3.526   6.763  0.0869 -0.4146 -0.2169
   76MOL    C5431704   2.612   3.690   6.535 -0.2400 -0.7712 -0.6022
   76MOL    H5531705   2.773   3.738   6.652  1.2554  0.3402 -0.6534
   76MOL    H5631706   2.794   3.419   6.790 -1.2888  0.1463  0.3470
   76MOL    H5731707   2.740   3.577   6.823 -1.0941 -2.3993  1.2352
   76MOL    H5831708   2.928   3.354   6.619  0.0531 -0.3706  0.6265
   76MOL    H5931709   3.122   3.228   6.521  0.3708  0.3256 -0.7574
   76MOL    H6031710   3.352   3.303   6.577 -0.4039  0.9357 -2.1225
   76MOL    H6131711   3.389   3.491   6.740  0.4978 -0.6770 -2.3820
   76MOL    H6231712   3.195   3.618   6.818 -1.8593  2.4261 -4.0986
   76MOL    H6331713   2.586   3.603   6.475  2.7742 -1.7782 -0.5106
   76MOL    H6431714   2.555   3.686   6.628  0.8637  1.0492  0.1966
   76MOL    C6531715   2.587   3.830   6.475  0.5907 -0.0621  0.0554
   76MOL    O6631716   2.446   3.840   6.434  0.1652 -0.0681 -0.8261
   76MOL    C6731717   2.421   3.806   6.305  0.1175 -0.2015  0.6386
   76MOL    O6831718   2.479   3.904   6.212 -0.7065 -0.2118  0.6035
   76MOL    C6931719   2.481   3.867   6.079 -0.5651 -0.0737 -0.1066
   76MOL    C7031720   2.549   3.956   5.984 -0.2854 -0.0041 -0.4509
   76MOL    C7131721   2.563   3.927   5.847 -0.4473  0.2621 -0.3819
   76MOL    C7231722   2.505   3.816   5.791 -0.1754  0.5355 -0.0597
   76MOL    C7331723   2.430   3.729   5.878 -0.0606  0.2186 -0.0572
   76MOL    C7431724   2.421   3.754   6.018 -0.4614 -0.0427  0.8326
   76MOL    C7531725   2.598   3.948   6.581  0.1282  0.2931 -0.0087
   76MOL    H7631726   2.658   3.832   6.393  0.2586 -3.4424 -0.3807
   76MOL    H7731727   2.315   3.801   6.281 -0.0991  0.6560  1.3791
   76MOL    H7831728   2.479   3.717   6.280  1.1315  0.6110  0.0120
   76MOL    H7931729   2.601   4.041   6.026  0.9250 -0.5671 -0.7921
   76MOL    H8031730   2.617   3.994   5.782  0.8863 -1.2501 -0.8528
   76MOL    H8131731   2.525   3.786   5.690  2.2365  1.8217  0.0177
   76MOL    H8231732   2.382   3.644   5.830 -1.1295  1.5924 -1.4910
   76MOL    H8331733   2.368   3.682   6.079 -0.9545 -0.0953  0.3497
   76MOL    H8431734   2.541   3.922   6.670 -1.3500 -0.7077 -1.2250
   76MOL    H8531735   2.704   3.968   6.598  0.6910 -0.5307 -2.3408
   76MOL    C8631736   2.542   4.083   6.535 -0.1279  0.2089 -0.4973
   76MOL    O8731737   2.533   4.157   6.659 -0.5493 -0.1644 -0.6408
   76MOL    C8831738   2.424   4.243   6.690  0.1696  0.7122  0.3253
   76MOL    O8931739   2.304   4.172   6.689  0.4511 -0.1385 -0.2676
   76MOL    C9031740   2.185   4.237   6.682 -0.5663 -0.4996 -0.2012
   76MOL    C9131741   2.173   4.379   6.678 -0.0085  0.8356 -0.4301
   76MOL    C9231742   2.050   4.443   6.663  1.5487  0.3661  0.4900
   76MOL    C9331743   1.937   4.361   6.656  0.6026  0.2856 -0.5792
   76MOL    C9431744   1.942   4.219   6.679  0.3623 -0.0354 -0.3849
   76MOL    C9531745   2.066   4.160   6.693 -0.0142 -0.2552 -0.3855
   76MOL    C9631746   2.636   4.150   6.429  0.2693 -0.1888 -0.9695
   76MOL    H9731747   2.442   4.078   6.491  1.0423  0.0326 -3.2242
   76MOL    H9831748   2.428   4.329   6.624  2.5119  0.6420  0.3424
   76MOL    H9931749   2.443   4.284   6.789 -2.5154 -1.3289  1.7493
   76MOL   H10031750   2.262   4.440   6.684  0.5521 -0.1346  1.5032
   76MOL   H10131751   2.039   4.546   6.634  0.3636  0.5743  1.6573
   76MOL   H10231752   1.841   4.406   6.635  0.9921  0.6062 -1.7480
   76MOL   H10331753   1.848   4.165   6.683 -0.6650  1.5920 -1.7243
   76MOL   H10431754   2.059   4.053   6.707 -1.4353  0.2485  3.1025
   76MOL   H10531755   2.735   4.158   6.475  0.4190 -0.8379 -1.1732
   76MOL   H10631756   2.641   4.093   6.336  0.1784 -0.8341 -0.5822
   76MOL   C10731757   2.591   4.295   6.378 -0.6459  0.0722 -0.1579
   76MOL   O10831758   2.694   4.339   6.284  0.1839  0.3766  0.4917
   76MOL   C10931759   2.788   4.430   6.345  0.2052  0.2422  0.2683
   76MOL   O11031760   2.862   4.379   6.447 -0.0017 -0.5660 -0.0998
   76MOL   C11131761   2.958   4.464   6.502 -0.0552  0.4375  0.2226
   76MOL   C11231762   3.049   4.405   6.592 -0.1868  0.1253 -0.2415
   76MOL   C11331763   3.156   4.479   6.638  0.3978 -0.0385 -0.4234
   76MOL   C11431764   3.177   4.608   6.596  0.4219  0.6999  0.4385
   76MOL   C11531765   3.082   4.670   6.512  0.6044  0.2612 -0.0119
   76MOL   C11631766   2.975   4.594   6.464 -0.5663 -0.0366 -0.2347
   76MOL   C11731767   2.454   4.298   6.304 -0.1349  0.1234  0.6841
   76MOL   H11831768   2.585   4.364   6.462  0.0102 -0.3482  0.2382
   76MOL   H11931769   2.727   4.513   6.379  0.9057  1.5414 -1.5705
   76MOL   H12031770   2.849   4.465   6.261  0.2078  0.9462  0.5621
   76MOL   H12131771   3.046   4.303   6.627 -1.0854  0.6462  1.2292
   76MOL   H12231772   3.239   4.438   6.695  2.2601  2.6942 -1.0716
   76MOL   H12331773   3.254   4.670   6.637  0.3569  1.3980 -0.4771
   76MOL   H12431774   3.076   4.773   6.482  0.2177 -0.1780 -1.4586
   76MOL   H12531775   2.903   4.642   6.400  1.2208  0.2781 -2.0397
   76MOL   H12631776   2.386   4.242   6.368 -0.1810  0.6087  1.0550
   76MOL   H12731777   2.452   4.241   6.211 -1.9392  3.4738 -1.4515
   76MOL   C12831778   2.397   4.432   6.260  0.3650 -0.2482  0.1154
   76MOL   O12931779   2.489   4.519   6.183 -0.1367  0.9618 -0.0715
   76MOL   C13031780   2.521   4.484   6.058  0.2292 -0.5785  0.6628
   76MOL   O13131781   2.416   4.489   5.970  0.1641 -0.5787  0.4308
   76MOL   C13231782   2.371   4.611   5.930 -0.6160  0.7557  0.5564
   76MOL   C13331783   2.431   4.738   5.952  0.4328  0.4181  0.4884
   76MOL   C13431784   2.387   4.863   5.905  0.4481 -0.3605 -0.8244
   76MOL   C13531785   2.265   4.869   5.835  0.3016 -0.1502 -0.0695
   76MOL   C13631786   2.206   4.739   5.807 -0.9264  0.2231  0.7161
   76MOL   C13731787   2.259   4.610   5.848  0.2858  0.2148 -0.1312
   76MOL   C13831788   2.352   4.509   6.382  0.2317 -0.3504  0.2093
   76MOL   H13931789   2.308   4.406   6.202 -1.2110 -0.3700  2.5298
   76MOL   H14031790   2.554   4.381   6.055 -2.2386 -1.4136  1.1723
   76MOL   H14131791   2.618   4.526   6.031  0.5982 -0.8561  1.5285
   76MOL   H14231792   2.525   4.741   6.005  1.5789  2.2788 -1.5597
   76MOL   H14331793   2.438   4.951   5.940 -0.0415 -0.7333  0.8932
   76MOL   H14431794   2.225   4.966   5.808  1.9709  0.4200 -0.5631
   76MOL   H14531795   2.118   4.749   5.745 -0.2538  0.2221 -0.2498
   76MOL   H14631796   2.211   4.519   5.813  0.4741  0.2145 -0.3886
   76MOL   H14731797   2.311   4.445   6.460 -1.3152  0.7497  0.3289
   76MOL   H14831798   2.443   4.556   6.420 -0.7368 -0.1132  2.3438
   76MOL   C14931799   2.267   4.625   6.349 -0.4059  0.0408 -0.7718
   76MOL   O15031800   2.130   4.577   6.339  0.0146  0.4804  0.3254
   76MOL   C15131801   2.072   4.600   6.213 -0.0361 -0.4326 -0.3000
   76MOL   O15231802   2.051   4.730   6.190 -0.9533  0.1687 -0.2758
   76MOL   C15331803   1.978   4.770   6.082  0.5780  0.1361 -0.0962
   76MOL   C15431804   1.943   4.681   5.972 -0.6897  0.2407 -0.3280
   76MOL   C15531805   1.867   4.732   5.867 -0.4759 -0.0291  0.2937
   76MOL   C15631806   1.824   4.862   5.859 -0.0743 -0.3940 -0.3465
   76MOL   C15731807   1.871   4.954   5.964  0.8481  0.2390  0.2426
   76MOL   C15831808   1.944   4.912   6.071 -0.1488  1.0497 -0.6733
   76MOL   C15931809   2.279   4.744   6.456 -0.0659 -0.2644 -0.0571
   76MOL   H16031810   2.306   4.667   6.256  2.4779  1.7181  1.1126
   76MOL   H16131811   2.130   4.552   6.134  0.2539 -0.8692  0.1737
   76MOL   H16231812   1.981   4.540   6.223 -0.1250 -0.3032 -0.3316
   76MOL   H16331813   1.969   4.576   5.973  2.2184  0.9136 -0.4902
   76MOL   H16431814   1.850   4.669   5.781  2.0541 -0.1086 -0.1880
   76MOL   H16531815   1.776   4.898   5.770  1.1521  1.2294 -0.3789
   76MOL   H16631816   1.839   5.057   5.958 -0.8605 -0.2395  0.8628
   76MOL   H16731817   1.973   4.984   6.146  0.5668  1.4059 -1.2922
   76MOL   H16831818   2.380   4.772   6.486 -0.6379 -1.2963  2.9814
   76MOL   H16931819   2.240   4.714   6.553  0.0247 -0.1901  0.0028
   76MOL   C17031820   2.211   4.879   6.419  0.2621  0.1990  0.1016
   76MOL   O17131821   2.198   4.962   6.538  0.6196 -0.0692  0.4971
   76MOL   C17231822   2.065   5.008   6.552  0.2221 -0.0031  0.4343
   76MOL   O17331823   2.050   5.124   6.488  0.6296  0.0457  0.3359
   76MOL   C17431824   1.925   5.142   6.431  0.6907 -0.1198  0.2418
   76MOL   C17531825   1.928   5.238   6.327  0.5378 -0.2567  0.1133
   76MOL   C17631826   1.806   5.258   6.255 -0.2629  0.0119  0.5753
   76MOL   C17731827   1.691   5.198   6.304  0.2364  0.1272 -0.0402
   76MOL   C17831828   1.693   5.101   6.404  0.6324 -0.3382  0.0878
   76MOL   C17931829   1.810   5.067   6.471  0.1411 -0.5909 -0.0766
   76MOL   C18031830   2.290   4.958   6.324  0.3815  0.0236 -0.2806
   76MOL   H18131831   2.113   4.867   6.373  0.5585  0.6782 -0.6484
   76MOL   H18231832   2.042   5.025   6.657 -1.9083 -1.3488  0.2305
   76MOL   H18331833   1.998   4.930   6.516  0.0473  0.0212  0.7053
   76MOL   H18431834   2.020   5.273   6.281 -0.1351  1.1993 -0.1627
   76MOL   H18531835   1.799   5.319   6.166 -0.6632  0.0785  0.6528
   76MOL   H18631836   1.596   5.213   6.255  0.1482  1.1792  0.4355
   76MOL   H18731837   1.602   5.052   6.435  0.4970 -2.8106 -3.8938
   76MOL   H18831838   1.802   4.996   6.552  3.0892  1.2738  1.9471
   76MOL   H18931839   2.280   4.914   6.224 -2.0803  3.2893 -1.5374
   76MOL   H19031840   2.238   5.052   6.310  1.6426  0.9043  0.8609
   76MOL   C19131841   2.431   5.000   6.362 -0.1749  0.0484  0.0020
   76MOL   O19231842   2.443   5.146   6.359 -0.5004  0.1706  0.4277
   76MOL   C19331843   2.394   5.211   6.472  0.1706 -1.1117 -0.3682
   76MOL   O19431844   2.448   5.169   6.596  0.0817  0.3970  0.1848
   76MOL   C19531845   2.574   5.212   6.636 -0.1952  0.1734  0.2602
   76MOL   C19631846   2.624   5.164   6.757  0.0445  0.3388 -0.8961
   76MOL   C19731847   2.746   5.214   6.808  0.6112 -0.2581 -0.1261
   76MOL   C19831848   2.822   5.314   6.739 -0.1414 -0.3395 -0.5744
   76MOL   C19931849   2.768   5.364   6.624  0.0558  0.1069  0.6325
   76MOL   C20031850   2.647   5.315   6.567 -1.0466  0.2047  0.1512
   76MOL   C20131851   2.527   4.949   6.263  0.1137  0.3702 -0.0272
   76MOL   H20231852   2.464   4.971   6.462  0.0911 -0.2964 -0.1863
   76MOL   H20331853   2.285   5.204   6.476  0.1450 -0.3206  0.5912
   76MOL   H20431854   2.409   5.317   6.449 -2.4815 -1.1095 -2.3070
   76MOL   H20531855   2.575   5.095   6.824  1.6212  1.0336  1.0253
   76MOL   H20631856   2.779   5.164   6.898 -0.2704 -2.2905 -0.8944
   76MOL   H20731857   2.909   5.355   6.788 -0.1266 -0.5188 -0.4507
   76MOL   H20831858   2.805   5.458   6.586 -0.2204  0.6723  1.7474
   76MOL   H20931859   2.603   5.361   6.480 -0.5741 -0.6995 -0.5651
   76MOL   H21031860   2.505   4.844   6.246  0.8123  0.5247 -2.0479
   76MOL   H21131861   2.511   4.991   6.163  0.8404 -0.8912 -0.6918
   76MOL   C21231862   2.678   4.951   6.299 -0.2604 -0.0468  0.7725
   76MOL   O21331863   2.705   4.857   6.403 -0.4437 -0.0240  0.2073
   76MOL   C21431864   2.779   4.898   6.514  0.0276 -0.5612 -0.0553
   76MOL   O21531865   2.895   4.965   6.477 -0.2779 -0.0530  0.2256
   76MOL   C21631866   2.989   5.020   6.563 -0.3170 -0.0115 -0.2506
   76MOL   C21731867   3.012   4.974   6.695 -0.1172 -0.2247  0.7766
   76MOL   C21831868   3.119   5.031   6.771  0.4766  0.9258  0.3475
   76MOL   C21931869   3.196   5.137   6.720 -0.7460  0.3109 -0.0491
   76MOL   C22031870   3.175   5.179   6.586 -0.7192 -1.1936  0.5592
   76MOL   C22131871   3.080   5.111   6.507  0.5244 -0.1473  0.2349
   76MOL   C22231872   2.748   4.883   6.169  0.3203  0.0013 -0.8010
   76MOL   H22331873   2.713   5.052   6.320  1.2161 -0.4316  0.2246
   76MOL   H22431874   2.805   4.807   6.568 -1.3027  1.1886  3.6681
   76MOL   H22531875   2.717   4.967   6.571 -1.1087 -1.8102  0.2470
   76MOL   H22631876   2.971   4.889   6.747  1.4099 -0.7548  1.1462
   76MOL   H22731877   3.134   4.993   6.871  0.2542  1.4851  0.5981
   76MOL   H22831878   3.277   5.179   6.778 -0.4427  0.0733 -0.2979
   76MOL   H22931879   3.228   5.264   6.546 -4.3265  0.5147 -0.7455
   76MOL   H23031880   3.078   5.150   6.407 -1.1131  1.5549  0.8991
   76MOL   H23131881   2.721   4.777   6.169 -0.8932  0.2661  1.6670
   76MOL   H23231882   2.708   4.927   6.078 -0.7920  0.2620 -0.2007
   76MOL   C23331883   2.903   4.889   6.166  0.3131  0.8978 -0.6186
   76MOL   O23431884   2.950   4.801   6.066 -0.5012  0.2817  0.2146
   76MOL   C23531885   2.943   4.663   6.067 -0.0197  0.1881 -0.0296
   76MOL   O23631886   3.014   4.610   6.175  0.2488 -0.0915  0.0741
   76MOL   C23731887   3.154   4.590   6.146  0.1228 -0.3559 -0.0114
   76MOL   C23831888   3.229   4.656   6.045  0.5204  0.0365 -0.2241
   76MOL   C23931889   3.364   4.622   6.018 -0.3601  0.4215 -0.0858
   76MOL   C24031890   3.425   4.522   6.093  0.1408  0.6613  0.2784
   76MOL   C24131891   3.353   4.463   6.197 -0.6444  0.1312 -0.4818
   76MOL   C24231892   3.220   4.491   6.212 -0.6917  0.4880  0.2721
   76MOL   C24331893   2.966   5.033   6.143  0.0861  0.5403  0.6181
   76MOL   H24431894   2.946   4.856   6.260 -1.6123  1.7999  0.6139
   76MOL   H24531895   2.983   4.611   5.980  4.8321  0.4438  1.8530
   76MOL   H24631896   2.838   4.636   6.064  0.3249 -0.9658 -3.8042
   76MOL   H24731897   3.186   4.733   5.983  1.9713  1.0473 -0.0019
   76MOL   H24831898   3.416   4.674   5.938  0.1352  1.1056  0.6654
   76MOL   H24931899   3.530   4.499   6.080 -0.2302 -0.1657 -1.3852
   76MOL   H25031900   3.406   4.402   6.270  0.1456  1.1866 -0.1681
   76MOL   H25131901   3.156   4.433   6.277  0.4834 -0.6481  0.4328
   76MOL   H25231902   2.941   5.085   6.235 -0.9675 -0.8277  1.1206
   76MOL   H25331903   3.075   5.029   6.139  0.0243 -0.1810 -0.5822
   76MOL   C25431904   2.922   5.111   6.012 -0.2807  0.1994 -0.1890
   76MOL   O25531905   2.992   5.235   6.012 -0.1554 -0.4045  0.1014
   76MOL   C25631906   2.933   5.342   6.081  0.3543 -0.0303 -0.0895
   76MOL   O25731907   2.830   5.401   6.019 -0.1436  0.5403  0.3787
   76MOL   C25831908   2.851   5.476   5.906  0.7949  0.0597 -0.8255
   76MOL   C25931909   2.974   5.487   5.838  0.2900  1.3641 -0.6270
   76MOL   C26031910   2.997   5.579   5.734 -0.3525  0.3711 -0.3318
   76MOL   C26131911   2.888   5.661   5.692  0.1914  0.3673 -0.2648
   76MOL   C26231912   2.767   5.646   5.754 -0.2760 -1.1740  0.6390
   76MOL   C26331913   2.744   5.555   5.861 -0.0178  0.2685  0.1216
   76MOL   C26431914   2.949   5.040   5.878 -0.0994  0.8624  0.5972
   76MOL   H26531915   2.818   5.143   6.017  0.1697  1.7451 -0.5093
   76MOL   H26631916   3.004   5.417   6.116  0.7729 -0.5515  0.1792
   76MOL   H26731917   2.880   5.304   6.169 -0.8831 -0.1569 -0.8782
   76MOL   H26831918   3.062   5.432   5.869 -0.2957  2.1586  2.5645
   76MOL   H26931919   3.097   5.575   5.694 -0.8583  0.5316 -1.6746
   76MOL   H27031920   2.894   5.733   5.612  0.3391 -0.6319 -1.1580
   76MOL   H27131921   2.684   5.711   5.733  0.7587 -0.2342 -0.6129
   76MOL   H27231922   2.645   5.545   5.904  0.2909 -2.2741  0.3535
   76MOL   H27331923   3.057   5.043   5.863 -0.1339 -1.6563 -0.4831
   76MOL   H27431924   2.921   4.935   5.880 -0.8772  1.0646  0.4144
   76MOL   C27531925   2.868   5.097   5.761  0.4957 -0.0382  0.0439
   76MOL   O27631926   2.942   5.074   5.640  0.2199  0.2660 -0.1018
   76MOL   C27731927   3.022   5.188   5.603  0.0138 -0.5057  0.6010
   76MOL   O27831928   3.123   5.148   5.522  0.7345  0.2593 -0.0908
   76MOL   C27931929   3.218   5.231   5.472  0.0216  0.0899 -0.3762
   76MOL   C28031930   3.331   5.165   5.414  0.7079 -0.1039  0.7673
   76MOL   C28131931   3.433   5.244   5.355  0.0306  0.2265 -0.5766
   76MOL   C28231932   3.428   5.386   5.363 -0.3344 -0.5528 -0.0445
   76MOL   C28331933   3.319   5.448   5.429  0.1750  0.2026  0.3146
   76MOL   C28431934   3.217   5.369   5.482  0.1724 -0.1699  0.5077
   76MOL   C28531935   2.722   5.039   5.748 -0.6734 -0.5227 -0.2475
   76MOL   H28631936   2.861   5.204   5.777  1.6437 -0.0525  0.6873
   76MOL   H28731937   3.076   5.225   5.690  0.4497  1.2647 -0.4108
   76MOL   H28831938   2.968   5.267   5.551  0.3770  0.4174  1.6172
   76MOL   H28931939   3.340   5.058   5.406  2.3790  0.0743  0.1079
   76MOL   H29031940   3.523   5.200   5.316  0.4968  1.1075 -0.5150
   76MOL   H29131941   3.506   5.449   5.322 -0.2474 -0.2529  0.5797
   76MOL   H29231942   3.319   5.556   5.438 -0.6954  0.1839  0.5589
   76MOL   H29331943   3.128   5.420   5.514  0.4885  0.5370  0.2901
   76MOL   H29431944   2.680   5.046   5.849 -0.5704 -0.4608 -0.2086
   76MOL   H29531945   2.739   4.934   5.722 -0.6420 -0.3980 -0.7225
   76MOL   C29631946   2.632   5.106   5.638  0.1688  0.6069 -0.2720
   76MOL   O29731947   2.501   5.044   5.639  0.1048 -0.6900  0.5111
   76MOL   C29831948   2.495   4.924   5.571 -0.0123  0.1894 -0.4189
   76MOL   O29931949   2.484   4.949   5.437  0.9649 -0.5652 -0.0836
   76MOL   C30031950   2.350   4.966   5.392  0.0805  0.4025 -0.1785
   76MOL   C30131951   2.228   4.970   5.467 -0.6022  0.1463 -0.1207
   76MOL   C30231952   2.103   4.972   5.412  0.4219 -0.6311  0.2309
   76MOL   C30331953   2.090   4.984   5.273  0.2081 -0.3268  0.1186
   76MOL   C30431954   2.206   4.980   5.198 -0.0351 -0.2461  0.2931
   76MOL   C30531955   2.333   4.975   5.251 -0.5215  0.2554  0.5743
   76MOL   C30631956   2.598   5.254   5.659 -0.0865  0.4410 -0.0470
   76MOL   H30731957   2.689   5.082   5.548 -0.4594 -1.6962 -0.1054
   76MOL   H30831958   2.418   4.854   5.604 -0.0364  0.8254  0.8839
   76MOL   H30931959   2.576   4.855   5.593 -0.0635  0.0674 -0.6134
   76MOL   H31031960   2.241   4.982   5.574  1.8056  0.3326 -0.4026
   76MOL   H31131961   2.015   4.982   5.473 -0.1132  0.9594 -0.7489
   76MOL   H31231962   1.992   4.998   5.230 -0.6170  2.0751  2.5788
   76MOL   H31331963   2.187   4.982   5.092 -2.1051 -0.0372  0.6592
   76MOL   H31431964   2.415   4.981   5.182  0.9085  0.3700  2.2327
   76MOL   H31531965   2.689   5.311   5.676 -0.1032  0.1500  1.0185
   76MOL   H31631966   2.549   5.256   5.756 -0.6981  1.2359 -0.3635
   76MOL   C31731967   2.516   5.325   5.543 -0.1941  0.4804  0.5295
   76MOL   O31831968   2.607   5.362   5.447  0.5500 -0.4840 -0.0516
   76MOL   C31931969   2.655   5.267   5.355 -0.6416  0.4191 -0.0504
   76MOL   O32031970   2.674   5.319   5.230 -0.1731 -0.4909  0.2939
   76MOL   C32131971   2.779   5.405   5.204 -0.5852 -0.8544  0.2372
   76MOL   C32231972   2.872   5.457   5.290 -0.4360 -0.2309  0.0770
   76MOL   C32331973   2.975   5.544   5.244  0.3382 -0.2666 -0.3636
   76MOL   C32431974   2.979   5.579   5.108  0.7390 -1.1166  0.3370
   76MOL   C32531975   2.886   5.527   5.021  0.5699 -0.8657  0.0926
   76MOL   C32631976   2.779   5.451   5.069 -0.5456 -0.0545 -0.0095
   76MOL   C32731977   2.438   5.449   5.597  0.4922  0.2420  0.3005
   76MOL   H32831978   2.432   5.262   5.513  1.1558 -1.3098  0.3913
   76MOL   H32931979   2.592   5.178   5.352  2.3441 -1.7775  0.3945
   76MOL   H33031980   2.748   5.222   5.390 -0.6867  2.6594  3.1656
   76MOL   H33131981   2.867   5.439   5.397 -0.2759  4.3442  0.9504
   76MOL   H33231982   3.032   5.591   5.322 -1.0677  0.8088  0.0422
   76MOL   H33331983   3.057   5.640   5.064  0.4803 -2.0714 -1.5153
   76MOL   H33431984   2.877   5.565   4.920  0.8511 -0.5769  0.1760
   76MOL   H33531985   2.712   5.411   4.994  0.2738 -0.8506 -0.3367
   76MOL   H33631986   2.514   5.521   5.630  0.0405  1.6289 -1.5839
   76MOL   H33731987   2.400   5.491   5.504  0.1838  0.6581  0.6137
   76MOL   C33831988   2.336   5.429   5.705  0.0027 -0.1104  0.1646
   76MOL   O33931989   2.272   5.550   5.745 -0.5404 -0.5722  0.1149
   76MOL   C34031990   2.347   5.635   5.823  0.1581 -0.0804  0.6119
   76MOL   O34131991   2.269   5.729   5.882  0.3066  0.8021  0.1575
   76MOL   C34231992   2.322   5.793   5.996  0.2936 -0.7743 -0.1169
   76MOL   C34331993   2.234   5.857   6.086 -0.0799 -0.5700 -0.0275
   76MOL   C34431994   2.288   5.930   6.197 -0.4368 -0.2959  0.6974
   76MOL   C34531995   2.426   5.948   6.209  0.7645 -0.4316  0.2365
   76MOL   C34631996   2.517   5.889   6.119  0.9062 -0.6428  0.4780
   76MOL   C34731997   2.462   5.812   6.017  0.2972 -0.0626  0.1954
   76MOL   C34831998   2.220   5.339   5.672 -0.0644 -0.6716  0.3569
   76MOL   H34931999   2.389   5.391   5.793 -0.3799  0.8977  0.8348
   76MOL   H35032000   2.418   5.689   5.759  0.1355  0.1049  0.7425
   76MOL   H35132001   2.401   5.576   5.897  2.5261  0.9056 -0.2513
   76MOL   H35232002   2.128   5.854   6.064  0.0130 -1.5307 -0.3704
   76MOL   H35332003   2.222   5.987   6.260 -0.4400 -0.4240  0.8098
   76MOL   H35432004   2.469   6.018   6.280  1.6626  1.4062 -2.0539
   76MOL   H35532005   2.622   5.909   6.138  1.9327 -2.4475 -2.9011
   76MOL   H35632006   2.526   5.773   5.939 -1.0889 -0.0895 -0.9562
   76MOL   H35732007   2.267   5.249   5.635  0.9927 -0.2212  0.5884
   76MOL   H35832008   2.164   5.380   5.587 -0.2833 -0.5782  0.5433
   76MOL   C35932009   2.124   5.306   5.787  0.1322 -0.5397 -0.1178
   76MOL   O36032010   2.191   5.212   5.864 -1.4334  0.3053 -0.2538
   76MOL   C36132011   2.158   5.189   6.000 -0.6727 -0.0408 -0.0603
   76MOL   O36232012   2.187   5.298   6.085 -0.0656 -0.0161 -0.1928
   76MOL   C36332013   2.318   5.328   6.110 -0.0752 -0.0734  0.0537
   76MOL   C36432014   2.426   5.252   6.059  0.4229 -0.3001 -0.3686
   76MOL   C36532015   2.556   5.299   6.103 -0.0960 -0.0738  1.2018
   76MOL   C36632016   2.573   5.414   6.188  0.0767  0.4329 -0.2630
   76MOL   C36732017   2.462   5.483   6.236 -0.3811 -0.5165 -1.1585
   76MOL   C36832018   2.333   5.441   6.197 -0.1554  0.5566 -0.6551
   76MOL   C36932019   1.996   5.243   5.720  0.9777  0.9376  0.0682
   76MOL   H37032020   2.099   5.395   5.845  1.6586 -0.3209  0.2205
   76MOL   H37132021   2.206   5.102   6.043 -2.0808 -0.9372 -0.2845
   76MOL   H37232022   2.055   5.156   5.997 -0.4287 -0.7785 -0.5170
   76MOL   H37332023   2.413   5.160   6.005  3.1010 -2.0650  1.8670
   76MOL   H37432024   2.641   5.240   6.073 -0.3416  0.7786 -1.2545
   76MOL   H37532025   2.675   5.446   6.203  0.6661 -1.4481 -0.0627
   76MOL   H37632026   2.471   5.568   6.302 -0.2104  0.0556 -1.9055
   76MOL   H37732027   2.251   5.500   6.236  1.8760  2.0663  1.4406
   76MOL   H37832028   1.961   5.164   5.786 -0.7921  0.0499 -1.8443
   76MOL   H37932029   2.015   5.193   5.625 -1.4471 -1.0434  0.5651
   76MOL   C38032030   1.887   5.351   5.703 -0.3441  0.4584  0.3513
   76MOL   O38132031   1.841   5.382   5.828  0.7428  0.1874 -0.5888
   76MOL   C38232032   1.870   5.509   5.873  0.4262 -0.1465 -0.1859
   76MOL   O38332033   1.776   5.599   5.829  0.0799 -0.5761  0.2794
   76MOL   C38432034   1.779   5.733   5.859 -0.4218 -0.0094 -0.7893
   76MOL   C38532035   1.683   5.809   5.795 -0.0523  0.0454 -0.6196
   76MOL   C38632036   1.682   5.947   5.799 -0.3289  0.0600  0.4947
   76MOL   C38732037   1.761   6.019   5.896  0.2750  0.3385 -0.0224
   76MOL   C38832038   1.846   5.944   5.974 -0.1195 -0.0847  0.5422
   76MOL   C38932039   1.859   5.803   5.952 -0.0427  0.2741  0.0682
   76MOL   C39032040   1.759   5.310   5.626 -0.1848  0.3204  0.0101
   76MOL   H39132041   1.939   5.434   5.656  0.6436 -0.9107 -1.0412
   76MOL   H39232042   1.874   5.502   5.982 -0.5870 -1.3607 -0.2112
   76MOL   H39332043   1.965   5.543   5.832  0.8440 -1.2649 -0.1757
   76MOL   H39432044   1.611   5.764   5.728  1.7289 -1.8706 -1.3005
   76MOL   H39532045   1.616   6.003   5.735  1.2811  0.9830 -0.3907
   76MOL   H39632046   1.749   6.126   5.901 -2.5800  0.2244 -2.4983
   76MOL   H39732047   1.896   5.987   6.059  1.6376 -2.9000  1.0155
   76MOL   H39832048   1.919   5.749   6.024 -1.1640  0.9120  1.5065
   76MOL   H39932049   1.713   5.408   5.612  1.1812  0.9942  0.1873
   76MOL   H40032050   1.707   5.243   5.695 -1.6119  1.5093  0.1100
   76MOL   C40132051   1.776   5.241   5.488  0.7034  0.4691  0.4219
   76MOL   O40232052   1.645   5.217   5.440  0.5094  0.6212 -0.0159
   76MOL   C40332053   1.597   5.089   5.461 -0.6585  0.4256 -0.8005
   76MOL   O40432054   1.685   4.987   5.419 -0.0242  0.1793  0.3054
   76MOL   C40532055   1.700   4.960   5.284 -0.3660  0.6280 -0.2832
   76MOL   C40632056   1.645   5.031   5.178 -0.4295 -0.2130 -0.1400
   76MOL   C40732057   1.669   4.983   5.050  0.1883  0.3499  0.3190
   76MOL   C40832058   1.748   4.869   5.027  0.0307 -0.5569 -0.4178
   76MOL   C40932059   1.791   4.790   5.136 -0.0241  0.2965 -1.0335
   76MOL   C41032060   1.775   4.833   5.269  0.1251 -0.4193 -0.0323
   76MOL   C41132061   1.843   5.329   5.382  0.0980 -0.0209  0.4994
   76MOL   H41232062   1.832   5.151   5.511 -0.5957 -0.7421 -1.0246
   76MOL   H41332063   1.500   5.090   5.412 -0.7222 -0.4902 -0.6962
   76MOL   H41432064   1.582   5.070   5.567  1.8038 -2.3716 -0.8888
   76MOL   H41532065   1.588   5.122   5.190 -0.6888 -0.2891 -0.7510
   76MOL   H41632066   1.633   5.047   4.971 -0.5454 -0.0070  0.3596
   76MOL   H41732067   1.769   4.838   4.926  0.3370  1.1487 -0.8829
   76MOL   H41832068   1.826   4.693   5.105 -0.0798  0.1782 -0.7316
   76MOL   H41932069   1.811   4.770   5.349  1.7025 -0.4453 -0.7256
   76MOL   H42032070   1.841   5.271   5.290 -0.4319 -0.2766  0.6714
   76MOL   H42132071   1.949   5.346   5.403 -0.0484  2.0586 -0.2853
   76MOL   H42232072   1.779   5.414   5.357 -1.6671 -2.3073 -3.1137
   77MOL     C132073   2.635   7.303   2.254  0.1280  0.2670  0.6333
   77MOL     O232074   2.738   7.208   2.233  0.2176  0.0859  0.2208
   77MOL     C332075   2.867   7.251   2.282 -0.1964 -0.1450  0.5632
   77MOL     O432076   2.930   7.329   2.186  0.3604  0.0082 -0.0144
   77MOL     C532077   2.964   7.271   2.065 -0.3635  0.6971 -0.5498
   77MOL     C632078   3.030   7.354   1.969 -0.0455 -0.2238 -0.3709
   77MOL     C732079   3.076   7.305   1.844  0.3614 -0.5233 -0.5191
   77MOL     C832080   3.051   7.168   1.809  0.1815  0.5945  0.1382
   77MOL     C932081   2.973   7.086   1.898  1.0179 -0.1776 -0.0964
   77MOL    C1032082   2.936   7.134   2.026 -0.2209 -1.2224  0.1197
   77MOL    C1132083   2.501   7.250   2.197  0.0175 -0.1696 -0.3990
   77MOL    H1232084   2.628   7.318   2.362 -2.3404 -3.9173  1.1768
   77MOL    H1332085   2.844   7.305   2.374  0.1697 -0.3545  0.7764
   77MOL    H1432086   2.927   7.163   2.302 -0.3629 -1.0393 -2.6183
   77MOL    H1532087   3.040   7.457   2.000  0.7582 -0.7304  1.0784
   77MOL    H1632088   3.135   7.355   1.769  0.5048 -1.2437 -0.8854
   77MOL    H1732089   3.073   7.128   1.711  0.6443  2.1727 -0.4052
   77MOL    H1832090   2.942   6.985   1.877  1.9072 -0.8979  1.9329
   77MOL    H1932091   2.877   7.074   2.094 -0.8594 -0.3651  0.3350
   77MOL    H2032092   2.492   7.152   2.244  0.7945 -0.1319 -0.1636
   77MOL    H2132093   2.517   7.236   2.090 -0.6532 -0.8560 -0.4162
   77MOL    H2232094   2.658   7.404   2.219  1.5174  0.3318  1.7303
   77MOL    C2332095   2.383   7.349   2.227 -0.0903 -0.3618  1.1647
   77MOL    O2432096   2.383   7.389   2.360  0.2304  0.3789  0.4521
   77MOL    C2532097   2.391   7.525   2.393 -0.5844  0.4468  0.5717
   77MOL    O2632098   2.282   7.600   2.355 -0.5047  0.0673 -0.0458
   77MOL    C2732099   2.163   7.584   2.413  1.1512 -0.6307  0.0359
   77MOL    C2832100   2.054   7.641   2.353  0.3041  0.4292  0.1680
   77MOL    C2932101   1.924   7.633   2.405  0.3529 -0.0567  0.0501
   77MOL    C3032102   1.900   7.557   2.520  0.2814 -0.2595  0.0728
   77MOL    C3132103   2.000   7.481   2.576 -0.0567  0.5253 -0.4042
   77MOL    C3232104   2.130   7.501   2.524 -0.3250 -0.3789  0.2601
   77MOL    C3332105   2.242   7.303   2.178 -0.2012  0.0436  0.5203
   77MOL    H3432106   2.400   7.434   2.162  2.6537 -2.3762 -0.8729
   77MOL    H3532107   2.483   7.565   2.351 -0.2805  0.3133  1.1079
   77MOL    H3632108   2.400   7.532   2.502 -1.9254 -1.3037  0.8144
   77MOL    H3732109   2.059   7.708   2.268 -1.1274  0.5484  0.1598
   77MOL    H3832110   1.842   7.678   2.351 -0.3478  0.3828  1.4500
   77MOL    H3932111   1.800   7.555   2.560  0.2390 -2.1765 -0.0644
   77MOL    H4032112   1.978   7.418   2.661 -0.2705  1.0604 -0.0605
   77MOL    H4132113   2.209   7.449   2.577 -0.4873  1.0573  1.9949
   77MOL    H4232114   2.165   7.379   2.191  0.1180  0.7460 -1.4676
   77MOL    H4332115   2.212   7.213   2.233 -0.7345 -1.3272 -1.9126
   77MOL    C4432116   2.233   7.272   2.023  0.1462  1.1676  0.0077
   77MOL    O4532117   2.256   7.385   1.945  0.5127 -0.4090 -0.6000
   77MOL    C4632118   2.268   7.369   1.806 -0.7478 -0.8577 -0.2880
   77MOL    O4732119   2.338   7.468   1.736 -0.3816  0.7867 -0.0971
   77MOL    C4832120   2.475   7.466   1.744 -0.6513  0.2114  0.0953
   77MOL    C4932121   2.542   7.555   1.660 -0.2036  0.4954 -0.0526
   77MOL    C5032122   2.682   7.547   1.654  0.2827  0.2539 -0.2272
   77MOL    C5132123   2.757   7.449   1.722  0.6373  0.1796 -0.9652
   77MOL    C5232124   2.686   7.364   1.808  0.1303  0.3632 -0.8957
   77MOL    C5332125   2.549   7.372   1.822  0.4140  0.0797  0.3835
   77MOL    C5432126   2.101   7.206   2.005  0.2018 -0.1418 -0.7947
   77MOL    H5532127   2.304   7.193   1.998 -1.1456 -0.7033  2.1592
   77MOL    H5632128   2.167   7.355   1.767 -0.9599 -1.5687  0.5295
   77MOL    H5732129   2.319   7.275   1.787  1.9904  0.4130  0.3648
   77MOL    H5832130   2.487   7.628   1.603  0.1161 -0.3185 -1.4260
   77MOL    H5932131   2.735   7.627   1.605 -0.5344  0.6827 -0.4271
   77MOL    H6032132   2.863   7.439   1.740  0.9856  0.6967 -2.6250
   77MOL    H6132133   2.741   7.293   1.869  1.0768  0.7437 -1.2940
   77MOL    H6232134   2.490   7.310   1.888 -0.2852  0.3902  0.0503
   77MOL    H6332135   2.056   7.159   2.092 -0.6369  2.0506 -0.0219
   77MOL    H6432136   2.020   7.277   1.990  0.8296  0.4503 -1.4153
   77MOL    C6532137   2.095   7.094   1.904 -0.0802 -0.7192 -0.5734
   77MOL    O6632138   2.169   6.990   1.969  0.0599 -0.0476 -0.0476
   77MOL    C6732139   2.211   6.880   1.890  0.6365 -0.1373  0.0030
   77MOL    O6832140   2.323   6.899   1.808 -0.5069 -0.9344 -0.3455
   77MOL    C6932141   2.449   6.903   1.869 -0.4551 -0.0150 -0.1114
   77MOL    C7032142   2.463   6.920   2.007 -0.0583 -0.5221 -0.7205
   77MOL    C7132143   2.593   6.930   2.059 -0.6903  0.2077 -0.1381
   77MOL    C7232144   2.705   6.901   1.979 -0.5208  0.0042  0.1447
   77MOL    C7332145   2.685   6.881   1.841 -0.1995 -0.2919  0.4092
   77MOL    C7432146   2.558   6.887   1.784 -0.2037 -0.5275 -0.6764
   77MOL    C7532147   1.947   7.046   1.880  0.2796 -0.4359 -0.2965
   77MOL    H7632148   2.153   7.123   1.816 -0.8570  1.8358 -0.2848
   77MOL    H7732149   2.126   6.842   1.834 -0.5427 -0.0914  1.7380
   77MOL    H7832150   2.242   6.793   1.947 -1.2135 -0.5624  0.3898
   77MOL    H7932151   2.392   6.929   2.087  1.2325  0.3739  0.3487
   77MOL    H8032152   2.610   6.962   2.161  0.6676 -0.1395 -0.2433
   77MOL    H8132153   2.802   6.880   2.021 -1.3251 -4.6699 -0.0602
   77MOL    H8232154   2.762   6.855   1.771  0.5078 -1.4936  1.6180
   77MOL    H8332155   2.535   6.876   1.679 -1.5688  1.0196 -0.5556
   77MOL    H8432156   1.946   6.968   1.803  0.0713 -0.1922 -0.5402
   77MOL    H8532157   1.899   7.002   1.968 -1.0153  0.5608 -0.4899
   77MOL    C8632158   1.846   7.148   1.829  0.1187  0.6799  0.3157
   77MOL    O8732159   1.915   7.213   1.725  0.4148  0.4626 -0.2085
   77MOL    C8832160   1.872   7.330   1.667  0.2019 -0.0302 -0.1458
   77MOL    O8932161   1.782   7.304   1.564 -0.6862 -0.5233  0.1019
   77MOL    C9032162   1.838   7.293   1.439  0.7031 -0.0490  0.0549
   77MOL    C9132163   1.749   7.293   1.329  0.0034 -0.2044 -0.1962
   77MOL    C9232164   1.803   7.270   1.203  0.0792  0.0918  0.1945
   77MOL    C9332165   1.936   7.237   1.178 -0.5464 -0.8082  0.1985
   77MOL    C9432166   2.024   7.240   1.288  0.3650  0.9699  0.3306
   77MOL    C9532167   1.976   7.266   1.414 -0.3136 -0.0971 -0.0813
   77MOL    C9632168   1.711   7.092   1.774  0.6407  0.0960  0.1907
   77MOL    H9732169   1.817   7.220   1.906  0.9951  0.1600  1.1421
   77MOL    H9832170   1.942   7.406   1.631  0.0234  0.5569  0.7262
   77MOL    H9932171   1.818   7.384   1.745 -0.6856  0.6405 -1.2181
   77MOL   H10032172   1.646   7.323   1.346 -0.2221 -0.0935 -1.6569
   77MOL   H10132173   1.730   7.283   1.124 -0.7502 -1.6252  0.6309
   77MOL   H10232174   1.969   7.226   1.075  0.7355 -3.7450  0.8905
   77MOL   H10332175   2.128   7.213   1.278 -0.3945 -2.2911  0.8140
   77MOL   H10432176   2.037   7.254   1.503 -1.3414 -2.0752  0.3843
   77MOL   H10532177   1.657   7.183   1.748 -0.4544 -0.3528  0.8569
   77MOL   H10632178   1.726   7.033   1.684  0.2871  1.4735 -0.7915
   77MOL   C10732179   1.616   7.025   1.876 -0.0603 -0.3446  0.2472
   77MOL   O10832180   1.578   7.124   1.973 -0.1927  0.2491  0.1890
   77MOL   C10932181   1.532   7.072   2.087 -0.0510 -0.0426 -0.4160
   77MOL   O11032182   1.629   6.994   2.138 -0.0788  0.0434 -0.0331
   77MOL   C11132183   1.736   7.052   2.198 -0.7438  0.1340  1.0252
   77MOL   C11232184   1.820   6.972   2.278 -0.2155  0.0540 -0.3062
   77MOL   C11332185   1.930   7.030   2.347  1.0337 -0.5038 -0.3906
   77MOL   C11432186   1.951   7.170   2.345  0.0515 -0.1872 -0.4391
   77MOL   C11532187   1.867   7.249   2.264 -0.2634 -0.5559 -0.2876
   77MOL   C11632188   1.763   7.191   2.194  0.2763  0.0544 -0.1785
   77MOL   C11732189   1.486   6.966   1.810 -0.2499  0.6764 -0.6710
   77MOL   H11832190   1.675   6.944   1.918  0.2402  0.8533  2.2383
   77MOL   H11932191   1.444   7.008   2.084 -0.8458  1.0773 -1.7836
   77MOL   H12032192   1.506   7.146   2.163  0.9959 -1.5685  1.4489
   77MOL   H12132193   1.794   6.867   2.289  0.7425 -0.0098  1.5033
   77MOL   H12232194   1.984   6.972   2.420 -1.3949  1.2834  3.0236
   77MOL   H12332195   2.036   7.219   2.390  0.3312 -0.6042 -0.5105
   77MOL   H12432196   1.895   7.353   2.253  2.0535 -1.1640 -0.3784
   77MOL   H12532197   1.699   7.265   2.147  0.1359  0.1016  0.0860
   77MOL   H12632198   1.442   7.043   1.747  1.3615  0.7784 -1.7088
   77MOL   H12732199   1.405   6.954   1.882 -0.1319 -1.3597 -0.8370
   77MOL   C12832200   1.507   6.828   1.736  0.3644  0.2829  0.3954
   77MOL   O12932201   1.395   6.792   1.653  0.4270  0.1758  0.3651
   77MOL   C13032202   1.398   6.834   1.522  0.1029 -0.3969  0.1379
   77MOL   O13132203   1.355   6.965   1.520  0.4795  0.5501 -0.3959
   77MOL   C13232204   1.365   7.027   1.400 -0.0468 -0.4361 -0.4213
   77MOL   C13332205   1.471   7.006   1.307 -0.0280 -0.4639 -0.4983
   77MOL   C13432206   1.484   7.075   1.189  0.2829  0.4984 -0.3539
   77MOL   C13532207   1.389   7.174   1.156  0.1583 -0.1887 -0.2509
   77MOL   C13632208   1.280   7.199   1.242  1.1130  0.0353 -0.0330
   77MOL   C13732209   1.267   7.122   1.363  0.0566 -0.1095 -0.1238
   77MOL   C13832210   1.532   6.708   1.821 -0.3168  0.3705 -0.5752
   77MOL   H13932211   1.592   6.840   1.668  0.8003 -0.9748  0.6936
   77MOL   H14032212   1.325   6.780   1.461  0.5986  1.0996 -1.8263
   77MOL   H14132213   1.493   6.809   1.474 -0.9403 -2.8875 -0.7300
   77MOL   H14232214   1.559   6.945   1.323  0.6385  0.5937 -0.0629
   77MOL   H14332215   1.565   7.059   1.120 -0.0675 -1.8646 -0.2816
   77MOL   H14432216   1.404   7.241   1.073 -1.1829 -0.2760 -0.5705
   77MOL   H14532217   1.214   7.282   1.223  0.5953  0.0846  1.8818
   77MOL   H14632218   1.183   7.142   1.427  1.3937 -0.6356  1.8333
   77MOL   H14732219   1.606   6.729   1.899  0.0434 -0.2167 -0.7542
   77MOL   H14832220   1.437   6.690   1.871  1.2537 -1.4582  1.9224
   77MOL   C14932221   1.572   6.574   1.758 -0.1456 -0.1788  0.0317
   77MOL   O15032222   1.705   6.591   1.725 -0.0949 -0.5118  0.0363
   77MOL   C15132223   1.753   6.514   1.615 -0.5216 -0.0218 -0.3212
   77MOL   O15232224   1.711   6.557   1.489 -0.7078  0.3582 -0.4947
   77MOL   C15332225   1.761   6.673   1.439 -1.2225  0.4790 -0.6561
   77MOL   C15432226   1.846   6.771   1.499  1.0621  0.1095  0.1002
   77MOL   C15532227   1.894   6.876   1.421  0.3496  0.0994 -0.4112
   77MOL   C15632228   1.854   6.894   1.289 -0.5186 -0.2360  0.2734
   77MOL   C15732229   1.772   6.802   1.227 -0.2581 -0.0268  0.3191
   77MOL   C15832230   1.730   6.687   1.300  0.8400 -0.1607 -0.5393
   77MOL   C15932231   1.553   6.447   1.845 -0.0602 -0.0098 -0.0289
   77MOL   H16032232   1.517   6.559   1.666 -2.4172 -0.8392  1.4670
   77MOL   H16132233   1.861   6.505   1.627 -0.6925 -0.9978  0.5748
   77MOL   H16232234   1.721   6.412   1.635  2.7452 -1.1450 -0.5383
   77MOL   H16332235   1.872   6.771   1.604  0.3694  0.7357  0.2769
   77MOL   H16432236   1.969   6.949   1.451  1.3794 -2.0606  2.5635
   77MOL   H16532237   1.891   6.980   1.235  1.8251 -0.8019  0.9334
   77MOL   H16632238   1.754   6.815   1.121  1.3697  5.5507  0.6074
   77MOL   H16732239   1.682   6.608   1.246 -1.7543  0.2264  1.1418
   77MOL   H16832240   1.606   6.461   1.939 -1.7191  0.3432  0.8787
   77MOL   H16932241   1.594   6.365   1.785 -3.6632 -0.4620 -1.9777
   77MOL   C17032242   1.408   6.405   1.869 -0.1210  0.0005 -0.6040
   77MOL   O17132243   1.336   6.384   1.743 -0.0862  0.0752 -0.0757
   77MOL   C17232244   1.259   6.486   1.693 -0.0453  0.6594 -0.7693
   77MOL   O17332245   1.267   6.507   1.556  0.0194 -0.7937 -0.4962
   77MOL   C17432246   1.207   6.418   1.473 -0.2234 -0.0997 -0.9831
   77MOL   C17532247   1.236   6.428   1.341  0.2656 -0.0472 -0.0002
   77MOL   C17632248   1.197   6.337   1.240 -0.3959 -0.0461  0.2309
   77MOL   C17732249   1.114   6.232   1.276  0.0378 -0.5622  0.3195
   77MOL   C17832250   1.070   6.231   1.408 -0.9275 -0.0538  0.1212
   77MOL   C17932251   1.118   6.318   1.509  0.7042 -0.5068  0.4604
   77MOL   C18032252   1.391   6.281   1.946 -0.0187 -0.2191  0.9502
   77MOL   H18132253   1.351   6.483   1.918  2.0472  0.8242  0.6855
   77MOL   H18232254   1.292   6.580   1.737  1.7261  0.1991 -1.0673
   77MOL   H18332255   1.160   6.473   1.735 -0.2532  0.1114 -1.4223
   77MOL   H18432256   1.307   6.503   1.311 -0.4994 -0.3131 -2.5655
   77MOL   H18532257   1.209   6.345   1.133 -1.4533 -3.5629 -0.2317
   77MOL   H18632258   1.074   6.167   1.200  0.7162 -1.9140  1.0921
   77MOL   H18732259   1.002   6.154   1.440  1.4832 -2.0805  0.5644
   77MOL   H18832260   1.081   6.296   1.608  0.2992 -0.6872  0.2705
   77MOL   H18932261   1.428   6.198   1.885  0.5216 -0.3630  1.4652
   77MOL   H19032262   1.473   6.281   2.019 -0.3566  0.3665  1.3305
   77MOL   C19132263   1.252   6.247   2.003 -0.4594 -1.3815  0.7655
   77MOL   O19232264   1.274   6.171   2.122 -0.3486 -0.1760  1.0334
   77MOL   C19332265   1.292   6.251   2.232 -0.0137  0.1049 -0.0101
   77MOL   O19432266   1.329   6.168   2.337  0.1813  0.8493  0.4758
   77MOL   C19532267   1.232   6.087   2.391  0.1207  0.6935 -0.9170
   77MOL   C19632268   1.094   6.073   2.346  0.0937 -0.9868  0.4950
   77MOL   C19732269   1.009   5.977   2.409  0.1076 -0.3307  0.0232
   77MOL   C19832270   1.063   5.903   2.516  0.4842 -0.7325  0.3275
   77MOL   C19932271   1.191   5.925   2.569 -0.1646  0.5379  0.0824
   77MOL   C20032272   1.278   6.018   2.505 -0.3789  0.2676  0.2274
   77MOL   C20132273   1.156   6.180   1.902 -0.3190  0.2093  0.6346
   77MOL   H20232274   1.192   6.329   2.043  0.7260  0.4276 -1.0546
   77MOL   H20332275   1.210   6.316   2.262 -0.5241 -0.5073 -0.0566
   77MOL   H20432276   1.368   6.327   2.215  0.0597 -0.0834 -0.5287
   77MOL   H20532277   1.057   6.117   2.255 -1.8140 -1.1780  1.1651
   77MOL   H20632278   0.908   5.963   2.375  0.2815 -0.0335 -0.6243
   77MOL   H20732279   0.995   5.832   2.560 -1.3523 -0.2324 -1.6241
   77MOL   H20832280   1.230   5.868   2.652  0.1823 -0.0003 -0.4415
   77MOL   H20932281   1.378   6.047   2.532 -0.5796  1.2177 -0.0174
   77MOL   H21032282   1.171   6.232   1.807 -0.0099  1.2155  1.2294
   77MOL   H21132283   1.169   6.075   1.875  1.1391  0.6911 -0.6507
   77MOL   C21232284   1.004   6.200   1.934 -0.2577 -0.0143  0.3161
   77MOL   O21332285   0.965   6.333   1.913 -0.6298 -0.3039  0.3312
   77MOL   C21432286   0.880   6.391   2.009 -0.2659 -0.2227  0.5131
   77MOL   O21532287   0.950   6.428   2.124  0.2547 -0.6085 -0.4367
   77MOL   C21632288   1.032   6.542   2.114 -0.1274  0.5479  0.9638
   77MOL   C21732289   1.065   6.605   1.991  0.4687  0.2417  0.0349
   77MOL   C21832290   1.161   6.706   1.998 -0.0805 -0.3772  0.2376
   77MOL   C21932291   1.224   6.740   2.116 -0.4651 -0.4526  0.5185
   77MOL   C22032292   1.171   6.697   2.239  0.0532 -0.8179  0.5726
   77MOL   C22132293   1.086   6.585   2.237  0.4194 -1.4293  0.0653
   77MOL   C22232294   0.914   6.113   1.843  0.6142 -0.2191  0.5230
   77MOL   H22332295   0.982   6.167   2.036  1.1217 -1.6850  0.0953
   77MOL   H22432296   0.803   6.317   2.033 -0.4949 -0.1353  0.0588
   77MOL   H22532297   0.818   6.475   1.977 -0.2519  0.7479  2.9227
   77MOL   H22632298   1.036   6.568   1.893 -1.2956 -0.7104  0.8927
   77MOL   H22732299   1.184   6.743   1.899 -0.2624 -2.4927 -0.6237
   77MOL   H22832300   1.298   6.818   2.105 -0.9918 -0.2637 -2.1655
   77MOL   H22932301   1.221   6.734   2.328 -1.9347  2.4700  0.3729
   77MOL   H23032302   1.046   6.538   2.325 -1.2842 -0.8157 -0.3587
   77MOL   H23132303   0.810   6.147   1.839  1.1021  1.3807  1.3305
   77MOL   H23232304   0.946   6.134   1.741  1.9316 -0.0064  0.9803
   77MOL   C23332305   0.909   5.959   1.862 -0.6150 -0.3212 -0.1340
   77MOL   O23432306   0.847   5.930   1.986 -0.1003  0.1703 -0.7389
   77MOL   C23532307   0.889   5.809   2.035 -0.0618 -0.2974  0.4301
   77MOL   O23632308   0.838   5.790   2.162  0.0276  0.1620  0.1733
   77MOL   C23732309   0.701   5.778   2.174 -0.1393 -0.6690  0.1281
   77MOL   C23832310   0.610   5.750   2.067 -0.2432  0.5805  0.6471
   77MOL   C23932311   0.471   5.747   2.091  0.0019 -0.2813 -0.4370
   77MOL   C24032312   0.423   5.774   2.220  0.3603 -0.4854  0.3293
   77MOL   C24132313   0.506   5.798   2.332  0.1585  0.1469 -0.1237
   77MOL   C24232314   0.647   5.796   2.306  0.0203 -0.5523 -0.1074
   77MOL   C24332315   0.833   5.888   1.744 -0.9508  0.1115  0.0475
   77MOL   H24432316   1.008   5.913   1.860 -0.4630  0.0221 -0.4171
   77MOL   H24532317   0.995   5.803   2.056 -0.0252  0.1482  0.3774
   77MOL   H24632318   0.870   5.727   1.966  2.3097 -2.1598  1.9139
   77MOL   H24732319   0.640   5.724   1.967  1.7094 -0.3601  1.4349
   77MOL   H24832320   0.413   5.735   2.001 -0.8628 -1.1486  0.2278
   77MOL   H24932321   0.317   5.762   2.232  0.7386 -3.3995  1.1225
   77MOL   H25032322   0.473   5.811   2.434  0.9066  0.5175  0.0702
   77MOL   H25132323   0.717   5.831   2.381 -0.5785  1.1339 -0.3142
   77MOL   H25232324   0.770   5.806   1.779  1.2042 -0.9831  1.4580
   77MOL   H25332325   0.763   5.957   1.697 -0.4455  1.0003  0.5741
   77MOL   C25432326   0.931   5.841   1.633  0.2064 -0.3902 -0.2371
   77MOL   O25532327   1.040   5.775   1.695  0.2398  0.1468  0.3337
   77MOL   C25632328   1.171   5.796   1.658 -0.5825  0.4891  0.2041
   77MOL   O25732329   1.240   5.674   1.643  0.1553 -0.1635  0.6434
   77MOL   C25832330   1.299   5.618   1.754  0.7363 -0.9464 -0.2706
   77MOL   C25932331   1.258   5.629   1.892 -0.0830 -0.6284 -0.2518
   77MOL   C26032332   1.333   5.555   1.992 -0.7394 -0.3670  0.3489
   77MOL   C26132333   1.441   5.472   1.953 -0.2224  0.4350 -0.0232
   77MOL   C26232334   1.474   5.459   1.817 -0.1668 -0.6181  0.2266
   77MOL   C26332335   1.408   5.536   1.726 -0.3239 -0.2503 -0.5046
   77MOL   C26432336   0.855   5.758   1.531  0.0056  0.0358  0.6041
   77MOL   H26532337   0.951   5.932   1.577  0.5370  0.2348  0.8799
   77MOL   H26632338   1.212   5.868   1.729 -5.8344  2.0261  1.9308
   77MOL   H26732339   1.177   5.856   1.568 -1.4426 -0.0062 -0.1878
   77MOL   H26832340   1.178   5.694   1.922 -1.4502 -1.8909 -1.1238
   77MOL   H26932341   1.307   5.554   2.097 -1.4261 -2.5130  0.1716
   77MOL   H27032342   1.493   5.417   2.030  1.5761  1.5644 -0.4102
   77MOL   H27132343   1.552   5.394   1.779  0.2433 -1.0775  1.8144
   77MOL   H27232344   1.426   5.519   1.621  0.2880 -0.8129 -0.3080
   77MOL   H27332345   0.835   5.656   1.565 -4.7136  0.2648 -1.0965
   77MOL   H27432346   0.756   5.797   1.505  0.9239  0.4550 -2.5267
   77MOL   C27532347   0.938   5.721   1.413  0.4101 -0.4253  0.1682
   77MOL   O27632348   0.842   5.670   1.320  0.4211  0.3242 -0.0752
   77MOL   C27732349   0.829   5.536   1.304 -0.6097  0.3294  0.0405
   77MOL   O27832350   0.767   5.469   1.410  0.2144  0.2737  0.0854
   77MOL   C27932351   0.645   5.513   1.459  0.1816 -0.7560 -0.2514
   77MOL   C28032352   0.597   5.441   1.572 -0.3201  0.0507 -0.1772
   77MOL   C28132353   0.473   5.473   1.633 -0.5106  0.4371 -0.1896
   77MOL   C28232354   0.391   5.573   1.577 -0.0687 -0.6045 -0.0775
   77MOL   C28332355   0.435   5.643   1.463  0.3400 -0.4638 -0.0849
   77MOL   C28432356   0.561   5.615   1.401  0.0757 -0.2579 -0.2628
   77MOL   C28532357   0.991   5.846   1.328  1.0157  0.2193 -0.0300
   77MOL   H28632358   1.018   5.646   1.416 -0.7750 -1.8202 -1.4238
   77MOL   H28732359   0.919   5.487   1.269 -0.7463  0.7195 -0.8529
   77MOL   H28832360   0.749   5.535   1.230 -0.0760  0.1763 -0.5270
   77MOL   H28932361   0.660   5.364   1.615 -1.5638 -0.2074  1.2123
   77MOL   H29032362   0.448   5.434   1.730  3.7656 -2.0005 -0.0022
   77MOL   H29132363   0.297   5.601   1.622 -2.5498 -1.5088 -4.3631
   77MOL   H29232364   0.368   5.721   1.430  1.6075  1.5663  1.9937
   77MOL   H29332365   0.587   5.669   1.312  0.4471 -0.4476 -0.2694
   77MOL   H29432366   1.075   5.886   1.384  0.4253  3.5168 -1.3301
   77MOL   H29532367   0.909   5.918   1.331  0.2686 -0.6512  0.6706
   77MOL   C29632368   1.048   5.816   1.187  0.5568 -0.7029 -0.0990
   77MOL   O29732369   1.000   5.916   1.097  0.1403  0.4468  0.5084
   77MOL   C29832370   0.880   5.898   1.024  0.4355  0.0388 -0.7590
   77MOL   O29932371   0.761   5.916   1.100 -0.8509  0.0764 -0.7912
   77MOL   C30032372   0.739   6.036   1.158  1.2643  0.3269  0.8876
   77MOL   C30132373   0.629   6.034   1.248 -0.5736 -0.4263  0.3599
   77MOL   C30232374   0.595   6.151   1.321  1.0056  0.2300  0.1901
   77MOL   C30332375   0.662   6.274   1.291 -0.1090  0.7236  0.0539
   77MOL   C30432376   0.765   6.277   1.189  0.4531  0.7177 -0.0305
   77MOL   C30532377   0.811   6.155   1.129  0.2675  0.1629 -0.3528
   77MOL   C30632378   1.207   5.809   1.181 -1.1331 -0.1697  0.6103
   77MOL   H30732379   1.020   5.720   1.144 -0.9895 -0.0559 -0.5876
   77MOL   H30832380   0.878   5.794   0.991  0.2487 -0.6482  1.3484
   77MOL   H30932381   0.876   5.956   0.932  2.5594 -0.0992 -0.9633
   77MOL   H31032382   0.573   5.943   1.263 -2.4249  0.7297  0.5710
   77MOL   H31132383   0.520   6.150   1.399  2.0520 -1.0414  1.1978
   77MOL   H31232384   0.618   6.363   1.334 -0.7821 -0.0548  0.9873
   77MOL   H31332385   0.812   6.370   1.159  2.8145 -0.4833 -0.1279
   77MOL   H31432386   0.888   6.166   1.054 -2.1738 -0.2673 -2.9957
   77MOL   H31532387   1.247   5.898   1.229  0.8608  0.0286 -1.3558
   77MOL   H31632388   1.238   5.800   1.077 -0.9554 -1.4644  0.7601
   77MOL   C31732389   1.263   5.685   1.257  0.2278  0.1648 -0.0257
   77MOL   O31832390   1.403   5.710   1.265  0.2011  0.3440  0.8425
   77MOL   C31932391   1.445   5.751   1.388 -0.7417 -0.2677  0.3650
   77MOL   O32032392   1.391   5.876   1.416  0.4684 -0.2988 -0.2580
   77MOL   C32132393   1.465   5.982   1.366  0.2003  0.0982 -0.1569
   77MOL   C32232394   1.466   6.100   1.442 -0.0903 -0.4772  0.2502
   77MOL   C32332395   1.543   6.214   1.393 -0.1079 -0.0907 -0.1534
   77MOL   C32432396   1.627   6.202   1.283 -0.1645  0.4906  0.0439
   77MOL   C32532397   1.618   6.085   1.208  0.7130  0.2738  0.0115
   77MOL   C32632398   1.541   5.971   1.249  0.6852 -0.3371 -0.4879
   77MOL   C32732399   1.256   5.557   1.177  0.3738  0.2972 -0.2394
   77MOL   H32832400   1.209   5.668   1.350  1.9501 -1.3342  0.7120
   77MOL   H32932401   1.554   5.757   1.396 -0.6748 -0.8320 -0.0642
   77MOL   H33032402   1.402   5.686   1.464 -2.7709 -0.7980 -1.2076
   77MOL   H33132403   1.402   6.102   1.529  0.9371 -0.5735  1.0092
   77MOL   H33232404   1.543   6.310   1.442 -1.1155  0.4710 -1.2388
   77MOL   H33332405   1.692   6.286   1.263 -0.5999  0.8132 -0.0321
   77MOL   H33432406   1.677   6.076   1.118 -0.4565  1.3296 -0.8812
   77MOL   H33532407   1.524   5.883   1.188 -2.9700 -1.9638  2.6291
   77MOL   H33632408   1.161   5.550   1.125 -0.2339  1.6384  0.6505
   77MOL   H33732409   1.333   5.561   1.100  0.6665  0.8481  0.0744
   77MOL   C33832410   1.273   5.440   1.270 -0.0052 -0.0948  0.1190
   77MOL   O33932411   1.140   5.400   1.316  0.0619 -1.0197 -0.3124
   77MOL   C34032412   1.138   5.357   1.447  0.0066 -0.0812 -0.3490
   77MOL   O34132413   1.219   5.243   1.464 -0.4950 -0.0516 -0.4014
   77MOL   C34232414   1.231   5.196   1.595 -0.2810 -0.3918  1.0315
   77MOL   C34332415   1.333   5.102   1.628 -0.1477 -0.4621  0.3522
   77MOL   C34432416   1.362   5.065   1.756 -0.2548 -0.3195 -0.3552
   77MOL   C34532417   1.283   5.110   1.862  0.2765  0.1612 -0.2778
   77MOL   C34632418   1.177   5.191   1.832  0.2357  0.2169 -0.1828
   77MOL   C34732419   1.153   5.242   1.702 -0.2719 -0.4258  0.0441
   77MOL   C34832420   1.335   5.317   1.199  0.0783  0.0286  0.0021
   77MOL   H34932421   1.343   5.470   1.348  2.8634  0.5168 -2.6156
   77MOL   H35032422   1.038   5.335   1.483  0.1558  0.6448  0.5378
   77MOL   H35132423   1.167   5.447   1.503  1.9431 -1.3269  0.7012
   77MOL   H35232424   1.412   5.079   1.558 -0.6624  1.2122 -0.7727
   77MOL   H35332425   1.447   5.006   1.784 -1.1390 -0.6200  1.8487
   77MOL   H35432426   1.295   5.082   1.965  0.9116  3.6450  0.6619
   77MOL   H35532427   1.099   5.209   1.904  1.0298 -0.6777  0.9034
   77MOL   H35632428   1.060   5.294   1.690 -0.2914  0.0582  2.1795
   77MOL   H35732429   1.308   5.332   1.095 -2.5563  1.5581  0.8527
   77MOL   H35832430   1.286   5.223   1.224 -1.4771  1.1496  1.3008
   77MOL   C35932431   1.488   5.313   1.216 -0.4080  0.0633  0.3440
   77MOL   O36032432   1.559   5.224   1.118 -0.1156  0.0825 -0.5735
   77MOL   C36132433   1.637   5.294   1.020 -0.1001  0.0987 -0.4840
   77MOL   O36232434   1.561   5.391   0.960  0.2379 -0.1928  0.1240
   77MOL   C36332435   1.474   5.350   0.867  0.4830  0.7596  0.4105
   77MOL   C36432436   1.420   5.457   0.790 -0.0747  0.0116 -0.5502
   77MOL   C36532437   1.323   5.425   0.696  0.4666 -0.1575  0.1891
   77MOL   C36632438   1.271   5.298   0.678  0.0796 -0.9774 -0.1730
   77MOL   C36732439   1.326   5.193   0.755  0.4204  0.5220  0.0021
   77MOL   C36832440   1.430   5.219   0.843 -0.4317  0.8078 -0.1856
   77MOL   C36932441   1.531   5.257   1.355  0.3915 -0.0991  1.2133
   77MOL   H37032442   1.515   5.414   1.186 -0.1576 -0.5976 -1.7566
   77MOL   H37132443   1.694   5.230   0.953 -0.4449 -1.3084  0.5460
   77MOL   H37232444   1.715   5.349   1.073  0.1052  0.6687 -1.3615
   77MOL   H37332445   1.456   5.557   0.810 -1.6056  0.2250  1.2367
   77MOL   H37432446   1.282   5.502   0.632  1.1952 -1.6592 -2.1489
   77MOL   H37532447   1.192   5.294   0.605  0.2753  0.1352 -0.4636
   77MOL   H37632448   1.298   5.089   0.746 -1.7090  1.1781 -1.1657
   77MOL   H37732449   1.482   5.143   0.899 -1.5219 -1.4106 -2.0885
   77MOL   H37832450   1.526   5.148   1.351  1.5791 -0.2982  3.9545
   77MOL   H37932451   1.466   5.290   1.436 -1.3514  2.1017 -0.9875
   77MOL   C38032452   1.672   5.287   1.393  0.7880  0.2242  0.2047
   77MOL   O38132453   1.714   5.217   1.512 -0.2304 -0.0616 -0.5786
   77MOL   C38232454   1.738   5.080   1.486  0.5337  0.0699 -0.2715
   77MOL   O38332455   1.848   5.042   1.547 -0.1651  0.0943 -0.2611
   77MOL   C38432456   1.886   4.908   1.544  0.1010 -0.4558 -0.4314
   77MOL   C38532457   1.807   4.812   1.480 -0.6826 -0.0795  1.3019
   77MOL   C38632458   1.853   4.676   1.475 -0.1406  0.5737  0.8786
   77MOL   C38732459   1.986   4.643   1.524  0.4130  0.0274 -0.3157
   77MOL   C38832460   2.067   4.751   1.566  0.2044  0.3365  0.4261
   77MOL   C38932461   2.016   4.878   1.587  0.3000 -0.1206 -0.1665
   77MOL   C39032462   1.679   5.438   1.424  0.4031  0.5092  0.0112
   77MOL   H39132463   1.744   5.269   1.313  1.7973  1.5123  0.7897
   77MOL   H39232464   1.657   5.037   1.546  1.3015  0.0651  0.7799
   77MOL   H39332465   1.752   5.059   1.380 -0.0604 -0.2665 -0.2908
   77MOL   H39432466   1.707   4.837   1.447 -0.8063  0.0196  1.7539
   77MOL   H39532467   1.796   4.598   1.428  0.7845 -0.1896  0.9949
   77MOL   H39632468   2.015   4.539   1.530  1.4664  0.2982 -0.6209
   77MOL   H39732469   2.167   4.742   1.604  0.2305 -1.2773  0.0351
   77MOL   H39832470   2.078   4.951   1.637  0.1396  0.1152 -0.3103
   77MOL   H39932471   1.591   5.467   1.482  0.6173 -0.7397  0.9867
   77MOL   H40032472   1.667   5.497   1.333 -2.1551  0.8187  0.5264
   77MOL   C40132473   1.801   5.496   1.492 -0.4152  0.0637  0.5501
   77MOL   O40232474   1.818   5.628   1.434 -0.4594  0.6351 -0.2391
   77MOL   C40332475   1.940   5.656   1.377 -0.0913 -0.4580 -0.4177
   77MOL   O40432476   1.974   5.582   1.276 -0.0558  0.5563 -0.5535
   77MOL   C40532477   1.914   5.615   1.155  1.1676  0.2074  0.1424
   77MOL   C40632478   1.960   5.551   1.037  0.0826  0.6878  0.7035
   77MOL   C40732479   1.903   5.572   0.910 -0.1416 -0.5094 -0.3294
   77MOL   C40832480   1.782   5.643   0.899  0.2163 -0.0140  0.1294
   77MOL   C40932481   1.728   5.709   1.011 -0.0017  0.2069 -0.3438
   77MOL   C41032482   1.791   5.695   1.137 -0.1425  0.8315  0.2336
   77MOL   C41132483   1.789   5.491   1.639  0.2105 -0.0013  0.1038
   77MOL   H41232484   1.887   5.432   1.473 -0.6232 -0.2663  0.7098
   77MOL   H41332485   2.018   5.637   1.451 -0.2585 -0.5172 -0.2556
   77MOL   H41432486   1.940   5.763   1.360  0.1318 -0.4343 -0.2695
   77MOL   H41532487   2.051   5.493   1.037 -0.2678  0.1362 -0.0595
   77MOL   H41632488   1.954   5.523   0.828 -0.3522 -0.5372 -0.4439
   77MOL   H41732489   1.735   5.657   0.803 -0.9387 -0.1271  0.6602
   77MOL   H41832490   1.640   5.771   1.005  0.0968  0.5419  1.3779
   77MOL   H41932491   1.739   5.738   1.221 -0.6428  2.1786 -0.7421
   77MOL   H42032492   1.759   5.394   1.679  1.2358  0.6262  2.5293
   77MOL   H42132493   1.715   5.566   1.668  0.2487 -0.0539  0.3447
   77MOL   H42232494   1.880   5.528   1.686  1.1493 -0.0229 -1.6752
   78MOL     C132495   5.486   4.678   3.641 -0.0289  0.7464 -0.3817
   78MOL     O232496   5.495   4.807   3.694  0.5671  0.1542  0.0406
   78MOL     C332497   5.601   4.815   3.787  0.0360 -0.0240  0.1557
   78MOL     O432498   5.719   4.868   3.732  0.1010 -0.5521 -0.1952
   78MOL     C532499   5.727   5.004   3.711  0.3403 -0.5338  0.4769
   78MOL     C632500   5.608   5.085   3.717  0.4026 -0.6052  0.3442
   78MOL     C732501   5.616   5.227   3.721 -0.0101 -0.1801  0.3113
   78MOL     C832502   5.745   5.293   3.713  0.7131  0.7260 -0.1901
   78MOL     C932503   5.857   5.209   3.691  0.6774  0.5497  0.1700
   78MOL    C1032504   5.847   5.068   3.681 -0.1685 -0.0748 -0.3087
   78MOL    C1132505   5.354   4.648   3.569 -0.6155 -0.5251 -0.2318
   78MOL    H1232506   5.580   4.666   3.588  0.1914  1.6810 -0.2077
   78MOL    H1332507   5.560   4.889   3.856 -0.7956 -1.1501  0.8803
   78MOL    H1432508   5.635   4.728   3.844 -0.0888  0.6990  1.3436
   78MOL    H1532509   5.508   5.044   3.723  0.2516 -0.2751  0.0849
   78MOL    H1632510   5.527   5.287   3.731  0.9246  1.0048  1.6076
   78MOL    H1732511   5.767   5.398   3.723 -0.9163  1.0486  0.0776
   78MOL    H1832512   5.955   5.249   3.673  0.4815  1.4813  1.1317
   78MOL    H1932513   5.934   5.006   3.663 -1.1887 -1.3729 -0.8768
   78MOL    H2032514   5.338   4.718   3.488  0.4033 -0.2923 -0.2351
   78MOL    H2132515   5.273   4.662   3.642  0.2617 -3.7667  1.4746
   78MOL    H2232516   5.485   4.607   3.724 -1.4299 -0.0510 -1.0701
   78MOL    C2332517   5.344   4.506   3.510  0.2674 -0.7715  0.5737
   78MOL    O2432518   5.455   4.489   3.419 -0.2477  0.2305 -0.1786
   78MOL    C2532519   5.517   4.362   3.420 -0.1572 -0.3046  0.3114
   78MOL    O2632520   5.429   4.260   3.409 -0.0409 -0.4324 -0.3491
   78MOL    C2732521   5.393   4.215   3.284  0.4864 -0.5722 -0.4056
   78MOL    C2832522   5.428   4.273   3.156  0.3150 -0.0431 -0.3731
   78MOL    C2932523   5.384   4.226   3.035 -0.6798  0.7933  0.1040
   78MOL    C3032524   5.298   4.114   3.041 -0.6258  0.2742  0.0059
   78MOL    C3132525   5.252   4.056   3.162  0.0215 -0.5245  0.1767
   78MOL    C3232526   5.298   4.111   3.285 -0.4948 -0.0762  0.1422
   78MOL    C3332527   5.218   4.486   3.425  0.5712 -0.4347 -0.0790
   78MOL    H3432528   5.344   4.441   3.598 -1.5362  0.8992  1.8608
   78MOL    H3532529   5.567   4.346   3.516 -1.1102  0.9460  1.0242
   78MOL    H3632530   5.591   4.354   3.340  0.5535 -1.4683  1.0640
   78MOL    H3732531   5.496   4.356   3.154 -1.6132  1.5710 -1.1471
   78MOL    H3832532   5.411   4.273   2.942 -2.9945  0.4154 -0.7693
   78MOL    H3932533   5.268   4.088   2.941  0.1184  0.2921 -0.2263
   78MOL    H4032534   5.177   3.978   3.170  3.1576 -3.5551  1.5186
   78MOL    H4132535   5.275   4.063   3.379 -0.7153  2.8747  1.6479
   78MOL    H4232536   5.243   4.435   3.332 -2.5941 -1.1117 -0.6258
   78MOL    H4332537   5.167   4.578   3.397  4.1625  1.5290 -0.5082
   78MOL    C4432538   5.106   4.410   3.496  0.4907 -0.4753  0.7187
   78MOL    O4532539   4.989   4.395   3.415 -0.5265  0.0984  0.5491
   78MOL    C4632540   4.988   4.293   3.322 -0.3460 -0.2333  0.7391
   78MOL    O4732541   4.953   4.171   3.375  0.7800  0.3216 -0.1565
   78MOL    C4832542   4.900   4.074   3.295  0.0007 -0.3430 -0.7944
   78MOL    C4932543   4.844   3.960   3.352 -0.1918  0.3014 -0.4728
   78MOL    C5032544   4.792   3.859   3.279  0.6136  0.6381 -0.0870
   78MOL    C5132545   4.797   3.867   3.133 -0.5747 -0.0884 -0.2917
   78MOL    C5232546   4.861   3.976   3.075  0.5576  0.5654 -0.1718
   78MOL    C5332547   4.910   4.082   3.155 -0.2251  0.1333 -0.2600
   78MOL    C5432548   5.061   4.472   3.635 -0.5859 -0.1390 -0.0689
   78MOL    H5532549   5.143   4.313   3.529 -1.5484 -1.3751  0.4757
   78MOL    H5632550   5.071   4.287   3.252 -1.1758  0.4983 -0.3184
   78MOL    H5732551   4.902   4.318   3.260  0.4356 -1.0145 -0.6930
   78MOL    H5832552   4.846   3.957   3.460  0.3747 -0.3321 -0.4954
   78MOL    H5932553   4.755   3.766   3.319  3.1974  0.0052  0.9503
   78MOL    H6032554   4.768   3.788   3.066  0.1778 -1.2817  0.7581
   78MOL    H6132555   4.872   3.985   2.968  1.3773 -1.5709 -0.2809
   78MOL    H6232556   4.950   4.167   3.103 -0.4348 -0.7944 -1.9621
   78MOL    H6332557   5.143   4.449   3.702 -0.7108 -1.6882 -0.4426
   78MOL    H6432558   5.064   4.581   3.630 -0.5382 -0.2159 -2.2932
   78MOL    C6532559   4.940   4.421   3.697  0.1076 -0.2241  0.1709
   78MOL    O6632560   4.966   4.299   3.766  0.0037 -0.2722 -0.4497
   78MOL    C6732561   4.883   4.194   3.726 -0.1353  0.0149  0.5539
   78MOL    O6832562   4.768   4.191   3.805  0.4486  0.0351  0.4675
   78MOL    C6932563   4.771   4.175   3.937 -0.3371  0.4515  0.4468
   78MOL    C7032564   4.644   4.150   3.998  0.6583  0.5672 -0.2070
   78MOL    C7132565   4.626   4.111   4.136 -0.1895 -0.4724 -0.6019
   78MOL    C7232566   4.743   4.107   4.210 -0.2771 -0.3350  0.5712
   78MOL    C7332567   4.869   4.133   4.150  0.4465 -0.2820  0.1154
   78MOL    C7432568   4.886   4.173   4.017  0.0851 -0.6324 -0.5812
   78MOL    C7532569   4.893   4.527   3.799  0.2865 -0.0301  0.4626
   78MOL    H7632570   4.859   4.399   3.628  0.2156  1.0643 -0.3731
   78MOL    H7732571   4.940   4.105   3.752 -0.1322  0.0860  0.7901
   78MOL    H7832572   4.858   4.192   3.620 -0.9869  1.3611  0.7151
   78MOL    H7932573   4.557   4.148   3.934  0.8206 -0.5560 -0.4092
   78MOL    H8032574   4.536   4.071   4.180 -0.1194  1.5360  1.4535
   78MOL    H8132575   4.746   4.069   4.311 -2.7045  0.5757  1.0219
   78MOL    H8232576   4.961   4.118   4.205 -1.4663 -1.3807  3.1162
   78MOL    H8332577   4.988   4.184   3.984 -0.1492  0.0736 -1.0765
   78MOL    H8432578   4.953   4.512   3.888  1.0052  0.5628  0.0851
   78MOL    H8532579   4.917   4.628   3.767  0.5566 -0.2138  0.0780
   78MOL    C8632580   4.741   4.525   3.846  0.1633  0.6451  0.3597
   78MOL    O8732581   4.732   4.606   3.959  0.5543 -0.0985 -0.2193
   78MOL    C8832582   4.722   4.533   4.081 -0.3845  0.1005  0.2738
   78MOL    O8932583   4.598   4.469   4.085  0.0817 -0.4648 -0.6202
   78MOL    C9032584   4.521   4.497   4.192 -0.1513  0.3991  0.0716
   78MOL    C9132585   4.528   4.424   4.309 -0.1703  0.4398  0.3759
   78MOL    C9232586   4.451   4.459   4.420  0.7515 -0.0698  0.2904
   78MOL    C9332587   4.356   4.564   4.408 -0.0214  0.0314 -0.1905
   78MOL    C9432588   4.353   4.643   4.294 -0.4434  0.8065  0.0222
   78MOL    C9532589   4.426   4.599   4.184 -0.0620  0.0029  0.4238
   78MOL    C9632590   4.656   4.593   3.740 -0.0855 -1.0892  0.3154
   78MOL    H9732591   4.711   4.422   3.865  1.2373 -0.0913 -1.7354
   78MOL    H9832592   4.731   4.593   4.172  0.0474  0.5610 -0.0699
   78MOL    H9932593   4.805   4.465   4.098  0.0055  0.1870 -1.1779
   78MOL   H10032594   4.587   4.336   4.330  0.1667  0.4391 -0.5624
   78MOL   H10132595   4.464   4.409   4.515  1.4984 -0.1118  0.1669
   78MOL   H10232596   4.290   4.577   4.493  1.4382 -3.2664  1.5330
   78MOL   H10332597   4.285   4.726   4.294 -1.8995 -0.3631 -0.7407
   78MOL   H10432598   4.424   4.670   4.103 -1.5508  0.2229  0.6368
   78MOL   H10532599   4.700   4.687   3.707 -0.0942 -1.3314 -0.3741
   78MOL   H10632600   4.670   4.541   3.645 -2.2742  0.9906 -1.1837
   78MOL   C10732601   4.508   4.602   3.770  0.6169  0.0153 -0.0091
   78MOL   O10832602   4.452   4.677   3.666  0.6894  0.2250  0.1254
   78MOL   C10932603   4.450   4.813   3.682 -0.8011  0.0822  0.0570
   78MOL   O11032604   4.477   4.868   3.553 -0.2943 -0.2515 -0.1144
   78MOL   C11132605   4.370   4.880   3.461  0.1758  0.8751 -0.1895
   78MOL   C11232606   4.400   4.944   3.342 -0.9376 -0.7347 -0.5654
   78MOL   C11332607   4.305   4.945   3.244  0.1675  0.0405  0.6346
   78MOL   C11432608   4.168   4.906   3.262  0.0193  0.1308 -0.0545
   78MOL   C11532609   4.134   4.849   3.384  0.0829 -0.1700  0.0687
   78MOL   C11632610   4.236   4.834   3.480 -0.2480  0.1405  0.5524
   78MOL   C11732611   4.441   4.471   3.780 -0.3455  0.4402 -0.7761
   78MOL   H11832612   4.497   4.658   3.862 -0.5640 -0.6887  0.2769
   78MOL   H11932613   4.531   4.844   3.747  0.3476  0.4600 -1.5466
   78MOL   H12032614   4.353   4.843   3.724 -0.2185  0.9947  0.7617
   78MOL   H12132615   4.500   4.984   3.328 -0.4805 -2.0624 -1.1792
   78MOL   H12232616   4.341   4.977   3.147 -1.0758  0.9381  0.4654
   78MOL   H12332617   4.097   4.921   3.182 -0.1062  0.7298  0.1714
   78MOL   H12432618   4.033   4.814   3.398  0.0197 -0.2005 -0.4507
   78MOL   H12532619   4.207   4.788   3.573  0.0695 -1.1593  0.0180
   78MOL   H12632620   4.499   4.410   3.850 -3.4777 -2.1939 -0.3503
   78MOL   H12732621   4.458   4.421   3.685  1.2896  0.2082 -0.3899
   78MOL   C12832622   4.298   4.467   3.834  0.0057 -0.4506 -0.2535
   78MOL   O12932623   4.261   4.334   3.876  0.7704 -0.3247 -0.6564
   78MOL   C13032624   4.252   4.320   4.012  0.7437  0.3189 -0.3692
   78MOL   O13132625   4.144   4.398   4.056 -0.3291 -0.2732 -0.5124
   78MOL   C13232626   4.075   4.354   4.163  0.0955 -0.8312 -0.6188
   78MOL   C13332627   3.937   4.386   4.167  0.7037  0.5561  0.3790
   78MOL   C13432628   3.854   4.345   4.271  0.1676 -0.1520 -0.4758
   78MOL   C13532629   3.916   4.284   4.383 -0.8163 -0.7303  0.4002
   78MOL   C13632630   4.050   4.254   4.389 -0.9719  0.7501 -0.5258
   78MOL   C13732631   4.131   4.284   4.274  0.2812  0.8209  0.4597
   78MOL   C13832632   4.194   4.506   3.722 -0.0631  0.2329  0.7962
   78MOL   H13932633   4.288   4.534   3.919 -0.8789 -0.8191 -0.0613
   78MOL   H14032634   4.346   4.349   4.060 -0.5882  0.9294  1.9199
   78MOL   H14132635   4.219   4.218   4.029  0.4790  0.3722 -0.5656
   78MOL   H14232636   3.895   4.457   4.096  2.3599 -0.2896 -1.5094
   78MOL   H14332637   3.751   4.377   4.274  1.1334  3.0088  0.8594
   78MOL   H14432638   3.865   4.248   4.472 -0.6928 -3.4688 -0.5867
   78MOL   H14532639   4.093   4.208   4.477 -4.5535 -0.2473  0.7607
   78MOL   H14632640   4.234   4.251   4.272  0.3741  1.1634 -1.9539
   78MOL   H14732641   4.247   4.564   3.646 -0.7887  0.5207  0.5038
   78MOL   H14832642   4.164   4.412   3.676  0.4823  0.6090 -0.3451
   78MOL   C14932643   4.068   4.567   3.779 -0.0941  0.9558  0.7764
   78MOL   O15032644   4.109   4.693   3.834  0.6828  0.1013  0.0935
   78MOL   C15132645   4.069   4.720   3.970  0.0007 -0.4744 -0.1027
   78MOL   O15232646   4.056   4.856   3.992 -0.2874  0.5528  0.0611
   78MOL   C15332647   4.023   4.899   4.122 -0.4427 -0.1548 -0.1561
   78MOL   C15432648   4.024   5.043   4.139 -0.2186  0.3629  0.0710
   78MOL   C15532649   4.012   5.098   4.269 -0.4319 -0.4109  0.1826
   78MOL   C15632650   3.981   5.008   4.374 -0.1145  0.2556  0.0697
   78MOL   C15732651   3.975   4.870   4.354 -0.1914 -0.4172 -0.0567
   78MOL   C15832652   4.001   4.815   4.231 -0.2826 -0.0121  0.3000
   78MOL   C15932653   3.963   4.603   3.672 -0.7780  0.6324  0.6340
   78MOL   H16032654   4.030   4.507   3.862 -1.3413  0.2714 -0.2617
   78MOL   H16132655   3.972   4.674   3.984  0.4243 -1.2330  0.3703
   78MOL   H16232656   4.148   4.674   4.030  0.5210  0.0437 -0.3744
   78MOL   H16332657   4.060   5.106   4.059  1.4294 -0.9893 -0.2843
   78MOL   H16432658   4.016   5.202   4.296  0.6271 -0.5365  0.5118
   78MOL   H16532659   3.958   5.056   4.468 -2.1030 -0.9209  0.2159
   78MOL   H16632660   3.945   4.805   4.435 -1.0758 -0.5555 -0.4867
   78MOL   H16732661   3.992   4.708   4.221 -1.3719  0.2009 -1.0872
   78MOL   H16832662   3.949   4.512   3.614  2.5969  0.2487  0.3274
   78MOL   H16932663   4.005   4.670   3.597  1.5679 -0.3421  1.0415
   78MOL   C17032664   3.830   4.654   3.728 -0.2198 -0.0748  0.3544
   78MOL   O17132665   3.741   4.689   3.624 -0.1409 -0.1460 -0.3889
   78MOL   C17232666   3.748   4.820   3.577 -0.2875 -0.2834 -0.0183
   78MOL   O17332667   3.678   4.908   3.659 -0.1354  0.1050 -0.1613
   78MOL   C17432668   3.729   5.034   3.670 -0.2454 -0.0142 -0.2068
   78MOL   C17532669   3.844   5.059   3.746  0.0365 -0.5906 -0.3606
   78MOL   C17632670   3.891   5.196   3.754 -0.0963  0.3605 -0.3335
   78MOL   C17732671   3.808   5.304   3.708 -0.2637 -0.0463  0.0477
   78MOL   C17832672   3.685   5.275   3.639  0.3039  0.6234  0.5499
   78MOL   C17932673   3.654   5.139   3.617  0.6181 -0.0721 -0.7871
   78MOL   C18032674   3.759   4.543   3.807  0.3823  0.1512  0.1068
   78MOL   H18132675   3.838   4.748   3.782  2.0987  0.6303 -1.1317
   78MOL   H18232676   3.698   4.831   3.480  3.4089  2.7003 -1.7084
   78MOL   H18332677   3.852   4.846   3.558  0.5476 -1.4528  2.6961
   78MOL   H18432678   3.908   4.980   3.783  0.8557 -0.4376 -1.4247
   78MOL   H18532679   3.979   5.213   3.813  0.2780  2.1276 -1.3528
   78MOL   H18632680   3.836   5.405   3.734 -0.1687 -0.2285  0.6698
   78MOL   H18732681   3.618   5.356   3.611 -3.0833 -1.2188  2.9339
   78MOL   H18832682   3.559   5.109   3.574 -0.8176  1.9437  0.8935
   78MOL   H18932683   3.704   4.472   3.745  1.6352 -1.3261  0.6564
   78MOL   H19032684   3.817   4.476   3.870 -0.0492  1.3698  1.8407
   78MOL   C19132685   3.655   4.602   3.902  0.2147  0.2243  0.2285
   78MOL   O19232686   3.741   4.667   3.991 -0.0689 -0.0307 -0.1499
   78MOL   C19332687   3.701   4.800   4.025 -0.4942  0.1783 -0.2583
   78MOL   O19432688   3.579   4.800   4.098  0.0324  0.4409 -0.3118
   78MOL   C19532689   3.577   4.753   4.230  0.2496  0.5867 -0.3616
   78MOL   C19632690   3.677   4.686   4.307 -0.4348 -0.6765 -0.5303
   78MOL   C19732691   3.660   4.652   4.443 -0.1068 -0.2673  0.1834
   78MOL   C19832692   3.547   4.688   4.506  0.0809 -0.3635 -0.4020
   78MOL   C19932693   3.436   4.737   4.432  0.3258  0.2949 -0.0451
   78MOL   C20032694   3.453   4.776   4.296  0.1318  0.5528 -0.3161
   78MOL   C20132695   3.571   4.498   3.970  0.3416  0.0750 -0.2485
   78MOL   H20232696   3.597   4.681   3.855  3.4751  3.0293  0.6772
   78MOL   H20332697   3.700   4.867   3.939 -1.6638 -0.0446 -0.4218
   78MOL   H20432698   3.758   4.827   4.114 -3.8487 -0.8225  2.2936
   78MOL   H20532699   3.775   4.655   4.275  0.5039  3.4890 -1.9049
   78MOL   H20632700   3.741   4.603   4.495  0.9397 -0.2138 -1.3385
   78MOL   H20732701   3.534   4.670   4.612 -1.2323 -0.6832 -0.6041
   78MOL   H20832702   3.342   4.753   4.481  0.3961  1.5894 -0.3197
   78MOL   H20932703   3.371   4.809   4.235  0.8814  0.1768 -1.5421
   78MOL   H21032704   3.641   4.431   4.021  1.0066  0.1449 -1.0697
   78MOL   H21132705   3.510   4.542   4.049 -0.4767 -0.5046 -0.5470
   78MOL   C21232706   3.473   4.422   3.875  0.1671 -0.2426  0.1690
   78MOL   O21332707   3.510   4.287   3.887 -0.6312 -0.0407  0.3373
   78MOL   C21432708   3.486   4.214   3.774  0.7075  0.5261  0.0119
   78MOL   O21532709   3.576   4.249   3.681 -0.2454 -0.1032 -0.0361
   78MOL   C21632710   3.709   4.201   3.689 -0.7310 -0.5642 -0.0400
   78MOL   C21732711   3.803   4.215   3.584 -0.5736  0.1791 -0.4648
   78MOL   C21832712   3.928   4.160   3.595 -0.5653  0.2576 -0.0281
   78MOL   C21932713   3.976   4.110   3.722  0.0593  0.5267  0.3613
   78MOL   C22032714   3.888   4.094   3.830  0.4626  0.2886 -0.0566
   78MOL   C22132715   3.751   4.131   3.810  0.0703 -0.3252  0.2583
   78MOL   C22232716   3.326   4.423   3.925 -0.2418  0.1000 -0.4659
   78MOL   H22332717   3.484   4.456   3.772 -0.2581  0.0728  0.2250
   78MOL   H22432718   3.390   4.245   3.733  0.5542 -0.1345 -0.1282
   78MOL   H22532719   3.477   4.107   3.790  2.3101  0.0556 -2.0825
   78MOL   H22632720   3.769   4.257   3.491 -0.6210  0.6193 -0.2460
   78MOL   H22732721   3.996   4.179   3.513  0.1883  0.1916  0.5765
   78MOL   H22832722   4.074   4.066   3.733  0.6652  1.5455 -0.7431
   78MOL   H22932723   3.909   4.043   3.923 -1.6836  2.0507  1.4354
   78MOL   H23032724   3.691   4.108   3.896  2.7929 -2.2881  1.7180
   78MOL   H23132725   3.268   4.359   3.858  1.8404 -0.9344 -1.2971
   78MOL   H23232726   3.323   4.385   4.027  2.1469  0.9555 -0.0522
   78MOL   C23332727   3.269   4.563   3.903 -0.7050 -0.0393  0.8248
   78MOL   O23432728   3.271   4.600   3.765  0.0601  0.2732  0.7904
   78MOL   C23532729   3.302   4.733   3.737  0.1801 -0.6286  0.1078
   78MOL   O23632730   3.203   4.823   3.777 -0.1072  0.7517 -0.3278
   78MOL   C23732731   3.232   4.942   3.827 -0.4090 -0.7060  0.4778
   78MOL   C23832732   3.131   5.003   3.905 -0.5772 -0.3929  1.0446
   78MOL   C23932733   3.152   5.125   3.972 -0.2288 -0.5730  0.0409
   78MOL   C24032734   3.277   5.192   3.954  0.7524 -0.2624 -0.0147
   78MOL   C24132735   3.377   5.141   3.868 -0.3185  0.1010 -0.1357
   78MOL   C24232736   3.356   5.012   3.813 -0.0719  0.4867 -0.1559
   78MOL   C24332737   3.120   4.588   3.952  1.3072 -0.0686  0.3269
   78MOL   H24432738   3.322   4.642   3.957 -2.6719  1.2897  0.8641
   78MOL   H24532739   3.302   4.734   3.628  0.7929 -0.6466  0.1076
   78MOL   H24632740   3.403   4.755   3.771 -0.6403 -0.6497  2.6197
   78MOL   H24732741   3.033   4.960   3.926 -1.0221  0.4851  0.7616
   78MOL   H24832742   3.088   5.167   4.048  0.4957  0.5918  0.0188
   78MOL   H24932743   3.294   5.285   4.006 -2.5510 -0.7042  2.0467
   78MOL   H25032744   3.476   5.184   3.864 -0.2505  0.1522  1.5929
   78MOL   H25132745   3.433   4.965   3.754  0.8586  0.2374  1.2416
   78MOL   H25232746   3.118   4.591   4.060  0.6832  0.1857  0.3100
   78MOL   H25332747   3.102   4.692   3.924  3.6369  0.0854 -0.7796
   78MOL   C25432748   3.002   4.506   3.905 -0.3830  0.5652 -0.2094
   78MOL   O25532749   2.987   4.401   4.005 -0.3800 -0.7223 -0.1485
   78MOL   C25632750   2.950   4.273   3.967  0.3356 -0.3443 -0.5380
   78MOL   O25732751   3.047   4.204   3.896 -0.3302 -0.4006  0.0990
   78MOL   C25832752   3.019   4.089   3.827  0.0274 -0.4841  0.1077
   78MOL   C25932753   3.123   3.996   3.808  0.0787  1.0879  0.3205
   78MOL   C26032754   3.109   3.887   3.721  0.2006 -0.3567 -0.5845
   78MOL   C26132755   2.986   3.870   3.656  0.0126  0.0532 -0.2797
   78MOL   C26232756   2.875   3.952   3.681 -0.8791  0.0243  0.0053
   78MOL   C26332757   2.897   4.066   3.764 -0.8887 -0.0267 -0.0714
   78MOL   C26432758   2.868   4.570   3.893 -0.0239  0.1786 -0.7184
   78MOL   H26532759   3.032   4.462   3.810  0.2135  1.4977 -0.4559
   78MOL   H26632760   2.860   4.274   3.907 -0.4562 -0.0922  0.6293
   78MOL   H26732761   2.934   4.212   4.057 -0.8936  0.9676  0.1387
   78MOL   H26832762   3.223   4.007   3.848  1.6401 -1.6066 -2.5853
   78MOL   H26932763   3.192   3.821   3.701  0.1098 -1.3598  2.0531
   78MOL   H27032764   2.980   3.786   3.588  2.6826 -0.5228  0.1136
   78MOL   H27132765   2.774   3.934   3.649 -0.7592  0.6528 -0.7280
   78MOL   H27232766   2.814   4.134   3.757 -0.4221  0.4661 -0.9521
   78MOL   H27332767   2.783   4.503   3.879  1.3163 -1.9298  1.0484
   78MOL   H27432768   2.846   4.627   3.983  0.9425 -0.3610 -0.1396
   78MOL   C27532769   2.850   4.666   3.775 -0.1011  0.2156 -0.3430
   78MOL   O27632770   2.886   4.586   3.661 -0.1112 -0.1486  0.1325
   78MOL   C27732771   2.958   4.659   3.559 -0.2287 -0.2219 -0.6222
   78MOL   O27832772   2.876   4.764   3.514 -0.2571  0.0511  0.1292
   78MOL   C27932773   2.933   4.875   3.455  0.3613 -0.6081 -0.3616
   78MOL   C28032774   3.072   4.888   3.429  0.1131 -0.1369  0.9736
   78MOL   C28132775   3.122   4.999   3.362 -0.8561 -0.9888 -0.4110
   78MOL   C28232776   3.034   5.101   3.315  0.0553 -0.2144 -0.3961
   78MOL   C28332777   2.900   5.090   3.345 -0.4547  0.8946  0.2768
   78MOL   C28432778   2.854   4.975   3.411 -0.2443 -0.2136 -0.3736
   78MOL   C28532779   2.711   4.726   3.764  0.6208 -0.3984 -0.9792
   78MOL   H28632780   2.920   4.749   3.784 -0.1447  0.2369 -0.1965
   78MOL   H28732781   2.959   4.585   3.479 -2.0628  1.3178 -2.1254
   78MOL   H28832782   3.062   4.672   3.589 -0.3398 -0.5199 -0.1149
   78MOL   H28932783   3.139   4.808   3.458 -0.4138 -0.4050  1.4621
   78MOL   H29032784   3.229   4.998   3.350 -0.7476 -0.8855  0.5202
   78MOL   H29132785   3.075   5.188   3.266  0.7198  0.9547  2.1825
   78MOL   H29232786   2.838   5.169   3.305 -1.5748 -0.0284  0.1612
   78MOL   H29332787   2.747   4.971   3.425 -0.4559 -0.1936 -1.8649
   78MOL   H29432788   2.639   4.644   3.764  0.1551 -0.0004 -0.2432
   78MOL   H29532789   2.692   4.766   3.665 -1.0544 -2.1231 -1.3956
   78MOL   C29632790   2.662   4.836   3.869 -0.2945 -1.2157  0.4642
   78MOL   O29732791   2.688   4.795   4.003 -0.6033  0.0221 -0.1301
   78MOL   C29832792   2.599   4.700   4.051  0.6584 -0.1394  0.4862
   78MOL   O29932793   2.473   4.746   4.095  0.2569 -0.9088 -0.3132
   78MOL   C30032794   2.460   4.835   4.205 -0.5201  0.5828 -0.0435
   78MOL   C30132795   2.333   4.891   4.236  0.4452 -0.0161  0.2149
   78MOL   C30232796   2.321   4.997   4.325  0.0782 -0.1696  0.2030
   78MOL   C30332797   2.433   5.046   4.393 -0.1392  0.4162  0.7826
   78MOL   C30432798   2.555   4.986   4.377  0.2379 -0.3314  0.7541
   78MOL   C30532799   2.568   4.879   4.286 -0.0100  0.0977  0.4288
   78MOL   C30632800   2.708   4.978   3.835  0.1164 -0.2305 -0.1625
   78MOL   H30732801   2.553   4.841   3.866 -0.3514 -1.0971  2.2472
   78MOL   H30832802   2.643   4.631   4.124 -2.5235 -4.1585 -1.1860
   78MOL   H30932803   2.574   4.628   3.973  2.5916 -0.4262  0.1138
   78MOL   H31032804   2.247   4.855   4.181  1.6379 -2.5273 -0.0982
   78MOL   H31132805   2.228   5.051   4.331  0.5935  0.9907 -1.5931
   78MOL   H31232806   2.414   5.124   4.465 -2.0163  1.5418 -0.8846
   78MOL   H31332807   2.642   5.022   4.430 -0.8275  1.0682  1.5717
   78MOL   H31432808   2.665   4.838   4.263 -0.2667  0.0969 -0.6650
   78MOL   H31532809   2.704   4.995   3.727  0.9115 -1.3311 -0.3714
   78MOL   H31632810   2.810   4.990   3.871 -0.8835  1.8745  2.1676
   78MOL   C31732811   2.626   5.090   3.913  0.0019  0.5551 -0.2015
   78MOL   O31832812   2.491   5.099   3.860 -0.6664  0.7992 -0.3742
   78MOL   C31932813   2.393   5.153   3.947  0.3457  0.0531  0.2423
   78MOL   O32032814   2.281   5.183   3.868  0.2694  0.6712  0.3440
   78MOL   C32132815   2.187   5.088   3.872  0.5299 -0.8723  0.7155
   78MOL   C32232816   2.188   4.967   3.796 -0.7221 -0.3899  0.0349
   78MOL   C32332817   2.082   4.872   3.803  0.0100  0.1918 -0.5539
   78MOL   C32432818   1.987   4.887   3.905 -0.0752 -0.7653  0.4092
   78MOL   C32532819   1.994   4.996   3.995  0.8157 -0.7092 -0.0210
   78MOL   C32632820   2.082   5.099   3.972 -0.3254 -0.7744  0.0356
   78MOL   C32732821   2.698   5.227   3.902 -0.4027 -0.0580 -0.0425
   78MOL   H32832822   2.612   5.051   4.014 -2.0513  3.1845  0.5833
   78MOL   H32932823   2.425   5.252   3.977  1.7339 -0.9026  2.0448
   78MOL   H33032824   2.380   5.089   4.034  0.7327 -0.0041  0.2600
   78MOL   H33132825   2.265   4.953   3.722 -0.8617 -1.6232  0.1120
   78MOL   H33232826   2.075   4.786   3.738 -2.2346  0.4457 -0.6583
   78MOL   H33332827   1.916   4.806   3.918  0.3858 -1.3651 -0.7289
   78MOL   H33432828   1.924   5.011   4.076  3.2797  1.3094  1.8113
   78MOL   H33532829   2.090   5.185   4.037 -0.7414  0.2154 -1.1963
   78MOL   H33632830   2.638   5.293   3.965  0.7032  1.2372 -0.3359
   78MOL   H33732831   2.794   5.213   3.951  0.7307 -0.6233 -2.3380
   78MOL   C33832832   2.713   5.312   3.769 -0.5572 -0.3185 -0.1983
   78MOL   O33932833   2.790   5.243   3.671 -0.6342 -0.5635  0.0895
   78MOL   C34032834   2.927   5.254   3.671 -0.5427  0.6187 -0.3703
   78MOL   O34132835   2.961   5.382   3.626 -0.6406  0.2258 -0.2864
   78MOL   C34232836   3.089   5.397   3.584  0.4074 -0.0828  0.1822
   78MOL   C34332837   3.125   5.521   3.536 -0.1989  0.6413  0.2224
   78MOL   C34432838   3.252   5.549   3.480  0.0858  0.3866  0.1445
   78MOL   C34532839   3.349   5.450   3.483  0.1812  0.0899 -0.3668
   78MOL   C34632840   3.314   5.322   3.526 -0.4214 -0.0674 -0.5692
   78MOL   C34732841   3.186   5.290   3.575  0.6092 -0.1746 -0.6650
   78MOL   C34832842   2.577   5.340   3.703 -0.0837  0.5584 -0.8431
   78MOL   H34932843   2.765   5.402   3.801  0.7340 -0.7221 -1.1152
   78MOL   H35032844   2.964   5.183   3.598  0.3131 -1.2091  1.7624
   78MOL   H35132845   2.968   5.229   3.769 -0.4117  1.9339 -0.0757
   78MOL   H35232846   3.054   5.602   3.526 -0.1062  1.3305  4.4370
   78MOL   H35332847   3.264   5.652   3.450  0.0171  0.4766  0.4213
   78MOL   H35432848   3.448   5.471   3.446 -0.6222  0.9564 -2.1135
   78MOL   H35532849   3.394   5.250   3.533 -1.6030 -1.3643 -0.0154
   78MOL   H35632850   3.159   5.189   3.602 -1.2686  0.2503 -0.8631
   78MOL   H35732851   2.502   5.353   3.781  0.6248 -2.8469  0.5209
   78MOL   H35832852   2.546   5.250   3.649 -0.4272 -0.5622  1.1257
   78MOL   C35932853   2.573   5.461   3.613  0.7612  0.5293  0.0444
   78MOL   O36032854   2.614   5.573   3.693  0.0315 -0.1757  0.4435
   78MOL   C36132855   2.718   5.634   3.637 -0.6399  0.2220 -0.3628
   78MOL   O36232856   2.685   5.721   3.534  0.0225  0.5837  0.3978
   78MOL   C36332857   2.606   5.830   3.550  0.1758  0.0396 -1.0259
   78MOL   C36432858   2.523   5.872   3.443 -0.3895 -0.1206  0.8674
   78MOL   C36532859   2.446   5.992   3.448 -0.1300 -0.0577 -0.5259
   78MOL   C36632860   2.461   6.079   3.560  0.1519  0.2383  0.0448
   78MOL   C36732861   2.532   6.033   3.673 -0.2379 -0.1802 -0.0559
   78MOL   C36832862   2.602   5.911   3.668  0.1086 -0.3348  0.0641
   78MOL   C36932863   2.424   5.493   3.564  0.1454  0.1144  0.2489
   78MOL   H37032864   2.629   5.451   3.521  2.5147  0.2101  1.1321
   78MOL   H37132865   2.800   5.571   3.603  1.1844  0.9748  2.5481
   78MOL   H37232866   2.752   5.695   3.720 -0.2594  2.3710 -2.0527
   78MOL   H37332867   2.528   5.809   3.356 -3.0660  0.2573  0.4225
   78MOL   H37432868   2.383   6.023   3.366 -1.5863  1.4426  1.1034
   78MOL   H37532869   2.404   6.170   3.558  0.4369  0.4040 -0.6548
   78MOL   H37632870   2.535   6.085   3.768  0.3032  0.0152 -0.1767
   78MOL   H37732871   2.671   5.876   3.743  1.1338 -0.7841 -1.0549
   78MOL   H37832872   2.407   5.584   3.507 -2.3997  0.1340  0.9786
   78MOL   H37932873   2.363   5.502   3.654 -1.8384  2.0109 -1.2378
   78MOL   C38032874   2.364   5.377   3.479 -0.3119 -0.3161 -0.6796
   78MOL   O38132875   2.424   5.379   3.356 -0.3315  0.2755  0.7466
   78MOL   C38232876   2.515   5.278   3.327  0.1258  0.3475 -0.2883
   78MOL   O38332877   2.441   5.176   3.280 -0.0219  0.4289  0.0996
   78MOL   C38432878   2.484   5.051   3.307  0.1240  0.9783  0.5434
   78MOL   C38532879   2.513   4.961   3.206  0.1409  0.2937  0.5302
   78MOL   C38632880   2.534   4.822   3.229  0.0804 -0.2762  1.1093
   78MOL   C38732881   2.523   4.777   3.361 -0.4176 -0.3139 -0.9543
   78MOL   C38832882   2.488   4.869   3.467  0.0198 -0.7775 -0.0096
   78MOL   C38932883   2.468   5.001   3.439 -0.6422  0.1161 -0.2831
   78MOL   C39032884   2.215   5.410   3.455  0.6553  0.4300  0.1486
   78MOL   H39132885   2.373   5.275   3.515  2.0038 -0.6582 -2.1300
   78MOL   H39232886   2.588   5.310   3.253 -1.7272  1.0183 -1.8643
   78MOL   H39332887   2.577   5.238   3.407  1.1418 -1.6540 -2.0344
   78MOL   H39432888   2.500   4.994   3.104 -0.4250 -1.4654  0.0042
   78MOL   H39532889   2.561   4.759   3.145 -0.0828  1.7418 -0.4768
   78MOL   H39632890   2.531   4.672   3.383 -2.1317 -0.3252 -0.3433
   78MOL   H39732891   2.471   4.830   3.566  0.3593 -2.7827 -0.7025
   78MOL   H39832892   2.438   5.066   3.521 -3.1798 -0.7638 -0.4896
   78MOL   H39932893   2.206   5.505   3.403  2.4038  1.1761  1.1570
   78MOL   H40032894   2.170   5.425   3.553 -1.1825 -3.5736 -0.0057
   78MOL   C40132895   2.139   5.301   3.382 -0.0220 -0.5995  0.3067
   78MOL   O40232896   2.127   5.193   3.473  0.3754 -0.4768  0.5044
   78MOL   C40332897   2.111   5.069   3.414  0.3114 -0.1184  0.5565
   78MOL   O40432898   1.994   5.058   3.332  0.7778 -0.0851  0.3480
   78MOL   C40532899   1.881   5.011   3.391  0.0395  0.4127  0.2566
   78MOL   C40632900   1.851   5.054   3.516 -0.1992 -0.0220 -0.5738
   78MOL   C40732901   1.729   5.019   3.579 -0.2410 -0.5755  0.0990
   78MOL   C40832902   1.639   4.940   3.514 -0.9412  0.0508 -0.1318
   78MOL   C40932903   1.661   4.901   3.375  0.0327  0.2323 -0.5183
   78MOL   C41032904   1.788   4.937   3.316  0.6544 -0.5686  0.3740
   78MOL   C41132905   1.999   5.339   3.348  0.2042  0.0828  0.1857
   78MOL   H41232906   2.196   5.284   3.291  3.8619  0.1724  2.5275
   78MOL   H41332907   2.123   4.993   3.491  1.4052  0.1290  0.6379
   78MOL   H41432908   2.199   5.052   3.351  0.4813 -3.0262  1.5506
   78MOL   H41532909   1.917   5.118   3.573  1.5009 -1.3663 -0.9852
   78MOL   H41632910   1.709   5.068   3.673  0.6795 -0.5289  0.2789
   78MOL   H41732911   1.549   4.920   3.571 -1.0586 -0.5045 -0.5121
   78MOL   H41832912   1.585   4.853   3.315  1.0185 -0.2843 -1.3660
   78MOL   H41932913   1.810   4.919   3.212  1.3739 -0.3254  0.4847
   78MOL   H42032914   2.004   5.435   3.296  1.2572 -0.7055 -1.1790
   78MOL   H42132915   1.917   5.345   3.421 -1.8939 -1.5428 -1.9510
   78MOL   H42232916   1.957   5.273   3.272  2.6960  0.9722 -2.0424
   79MOL     C132917   2.259   2.480   2.561  0.1357 -0.2264  0.3261
   79MOL     O232918   2.333   2.594   2.616  0.0885  0.4772 -0.1121
   79MOL     C332919   2.401   2.553   2.732 -0.1591 -0.1052  0.0599
   79MOL     O432920   2.534   2.523   2.696  0.2989 -0.3530 -0.0758
   79MOL     C532921   2.614   2.629   2.668  0.0910  0.2908  1.0593
   79MOL     C632922   2.754   2.612   2.665 -0.0117 -0.2769  0.0098
   79MOL     C732923   2.850   2.709   2.642  0.0982  0.4108  0.0000
   79MOL     C832924   2.803   2.841   2.619 -0.5013 -0.2955 -0.5540
   79MOL     C932925   2.665   2.870   2.616  0.5040  0.5126 -0.4273
   79MOL    C1032926   2.574   2.764   2.645  0.4208 -0.3671  0.3459
   79MOL    C1132927   2.164   2.527   2.450  0.0593  0.2940  0.1695
   79MOL    H1232928   2.326   2.404   2.520  0.2584 -0.6424  1.2821
   79MOL    H1332929   2.413   2.635   2.804  1.1210  0.1139 -0.3807
   79MOL    H1432930   2.354   2.470   2.785 -3.6062 -0.2637 -3.1049
   79MOL    H1532931   2.795   2.514   2.684 -0.2275 -0.8802 -2.4142
   79MOL    H1632932   2.956   2.691   2.654 -0.3668 -0.3619  3.4373
   79MOL    H1732933   2.877   2.915   2.593 -1.3310  1.1807  1.1381
   79MOL    H1832934   2.633   2.971   2.592  0.2553 -0.4093 -4.3462
   79MOL    H1932935   2.467   2.776   2.645  0.5648  0.9331 -0.0286
   79MOL    H2032936   2.215   2.575   2.367 -2.4659  0.6146 -1.2666
   79MOL    H2132937   2.103   2.606   2.494  0.3667  0.1271  0.8974
   79MOL    H2232938   2.194   2.440   2.638 -1.6705  0.4166 -0.8312
   79MOL    C2332939   2.074   2.419   2.403 -0.2970  0.3118  0.0122
   79MOL    O2432940   1.968   2.479   2.334 -0.1529 -0.1069 -0.3783
   79MOL    C2532941   1.901   2.393   2.239 -0.6041 -0.8656 -0.1194
   79MOL    O2632942   1.811   2.471   2.169  0.4671 -0.2641  0.3305
   79MOL    C2732943   1.755   2.407   2.057 -0.0835  0.9815  0.4794
   79MOL    C2832944   1.677   2.486   1.970 -1.0290  0.2218  0.7796
   79MOL    C2932945   1.634   2.436   1.850  0.2121  0.3850 -0.3861
   79MOL    C3032946   1.677   2.307   1.805  0.3885 -0.0204  0.3531
   79MOL    C3132947   1.756   2.227   1.885  0.2235  0.2779  1.1591
   79MOL    C3232948   1.797   2.278   2.009  0.0666  0.7573  0.2607
   79MOL    C3332949   2.002   2.324   2.510 -0.1521  0.5038 -0.0914
   79MOL    H3432950   2.136   2.357   2.338  1.9491  1.3870  1.0463
   79MOL    H3532951   1.850   2.310   2.288 -1.2645  0.2916  1.1479
   79MOL    H3632952   1.981   2.351   2.177  0.4397 -2.1603  2.0316
   79MOL    H3732953   1.649   2.587   1.995 -0.6779  0.6261 -0.4028
   79MOL    H3832954   1.581   2.497   1.778  0.2082 -0.1620 -0.8564
   79MOL    H3932955   1.646   2.272   1.707 -0.3077  3.3998 -0.7007
   79MOL    H4032956   1.791   2.129   1.855 -2.7607 -0.2251 -0.9306
   79MOL    H4132957   1.848   2.203   2.068  0.2803 -0.0352 -0.8992
   79MOL    H4232958   1.902   2.298   2.475  0.6670 -2.1659 -0.5222
   79MOL    H4332959   1.976   2.390   2.592 -0.7682  0.0241  0.1032
   79MOL    C4432960   2.068   2.208   2.577  0.3094  0.5697 -0.0968
   79MOL    O4532961   2.054   2.095   2.486  0.2967  0.1940 -0.2925
   79MOL    C4632962   2.149   2.068   2.392  0.0602  0.2817 -0.7525
   79MOL    O4732963   2.120   2.123   2.269  0.3806 -0.8116  0.6204
   79MOL    C4832964   2.206   2.102   2.169  0.0439 -0.7595  1.0956
   79MOL    C4932965   2.344   2.073   2.185 -0.7568  0.6319 -0.3763
   79MOL    C5032966   2.423   2.050   2.073 -0.4853 -0.0855 -0.0074
   79MOL    C5132967   2.365   2.076   1.948  0.0184  0.5248  0.1023
   79MOL    C5232968   2.238   2.124   1.925 -0.7299 -0.6441 -0.8956
   79MOL    C5332969   2.159   2.127   2.038 -0.3205 -0.1034  0.0265
   79MOL    C5432970   2.002   2.172   2.711  0.0369  0.5583  0.3391
   79MOL    H5532971   2.174   2.232   2.587  0.7308 -0.6137 -1.6687
   79MOL    H5632972   2.145   1.963   2.364  0.2249 -0.3283  1.4437
   79MOL    H5732973   2.245   2.099   2.433  0.3593 -1.9995  0.3709
   79MOL    H5832974   2.385   2.062   2.285 -2.1748 -0.1478  0.1326
   79MOL    H5932975   2.522   2.015   2.095 -0.8164 -0.8571  0.2689
   79MOL    H6032976   2.427   2.064   1.860 -0.1900  1.5138 -0.1859
   79MOL    H6132977   2.200   2.157   1.830  0.7154 -0.8013 -1.5312
   79MOL    H6232978   2.059   2.168   2.034 -0.2634  0.3581  2.1907
   79MOL    H6332979   1.979   2.266   2.761  0.2002  1.0369 -0.4701
   79MOL    H6432980   1.902   2.133   2.692  0.4997  0.0387 -1.1141
   79MOL    C6532981   2.083   2.079   2.805  0.0863 -0.1049 -1.0431
   79MOL    O6632982   2.217   2.135   2.819 -0.5163 -0.2301  0.5768
   79MOL    C6732983   2.312   2.037   2.844  0.6609  0.6783  0.3050
   79MOL    O6832984   2.353   1.972   2.722  0.6345 -0.3573 -0.1819
   79MOL    C6932985   2.442   2.037   2.636  0.1477 -0.0378 -0.2767
   79MOL    C7032986   2.516   1.960   2.547  1.0900 -0.2594  0.2231
   79MOL    C7132987   2.610   2.019   2.464 -0.4640 -0.1916  0.1430
   79MOL    C7232988   2.632   2.153   2.468  0.4728 -0.6552 -0.0029
   79MOL    C7332989   2.560   2.230   2.558  1.0900 -0.0715  0.2882
   79MOL    C7432990   2.465   2.175   2.646 -0.0544  0.0945  0.6288
   79MOL    C7532991   2.029   2.077   2.951  0.2725  0.0909 -0.6868
   79MOL    H7632992   2.089   1.982   2.754  1.6145 -0.2190 -0.6683
   79MOL    H7732993   2.272   1.960   2.910 -2.0521  0.4998 -1.4369
   79MOL    H7832994   2.388   2.089   2.901  0.7822 -0.0845  0.8500
   79MOL    H7932995   2.510   1.854   2.527  0.0378 -0.0480 -0.6509
   79MOL    H8032996   2.669   1.959   2.397 -0.1180  1.0490 -0.6858
   79MOL    H8132997   2.704   2.199   2.402 -0.5503  0.3766 -0.4252
   79MOL    H8232998   2.572   2.337   2.550  0.9805  0.1211  2.3549
   79MOL    H8332999   2.405   2.241   2.706 -0.5338  0.1476  0.0919
   79MOL    H8433000   2.112   2.078   3.021  0.5551 -0.3677 -1.0118
   79MOL    H8533001   1.982   2.171   2.979  1.0651  0.5385 -0.8416
   79MOL    C8633002   1.925   1.966   2.991 -0.2865 -0.2363 -0.0697
   79MOL    O8733003   1.996   1.864   3.055  0.1770  0.2693 -0.8524
   79MOL    C8833004   2.050   1.763   2.973  0.1771 -0.0753 -0.0891
   79MOL    O8933005   1.949   1.668   2.944 -0.2601 -0.1117  0.3588
   79MOL    C9033006   1.917   1.569   3.032  0.2629  0.3107 -0.9197
   79MOL    C9133007   1.947   1.575   3.173  0.4425 -0.1701  0.6561
   79MOL    C9233008   1.907   1.466   3.253  0.2277 -0.7946 -0.4941
   79MOL    C9333009   1.841   1.355   3.196 -1.1244  0.0156  0.0372
   79MOL    C9433010   1.810   1.343   3.060  0.8144 -0.3845  0.9747
   79MOL    C9533011   1.848   1.450   2.978 -0.4673 -0.0198 -0.1914
   79MOL    C9633012   1.818   2.031   3.087  0.0202  0.7483 -0.3398
   79MOL    H9733013   1.874   1.937   2.900  1.1597  3.0694 -2.0093
   79MOL    H9833014   2.129   1.705   3.021 -0.9573 -2.1109 -0.5895
   79MOL    H9933015   2.081   1.800   2.876  0.4410  3.1400  1.1751
   79MOL   H10033016   1.989   1.665   3.214 -1.4852  0.8941  0.3021
   79MOL   H10133017   1.918   1.469   3.361  3.0260  0.5168 -0.7664
   79MOL   H10233018   1.820   1.269   3.258 -0.3592 -0.5393 -0.4690
   79MOL   H10333019   1.748   1.267   3.014 -1.0801  3.5854 -3.4717
   79MOL   H10433020   1.821   1.454   2.874  0.8575  1.6029 -0.4950
   79MOL   H10533021   1.879   2.082   3.161 -0.4087  0.4117  0.2447
   79MOL   H10633022   1.756   2.107   3.040 -1.1187 -0.1381 -0.2899
   79MOL   C10733023   1.715   1.934   3.152  0.0414  0.7322  0.1527
   79MOL   O10833024   1.642   2.008   3.243 -0.1215  0.3226 -0.0001
   79MOL   C10933025   1.713   2.028   3.359  0.9953 -0.6111 -0.0463
   79MOL   O11033026   1.696   2.166   3.388 -0.3273 -0.1007 -0.0670
   79MOL   C11133027   1.592   2.204   3.470 -0.0413  0.3401  0.4007
   79MOL   C11233028   1.613   2.316   3.552 -0.1793 -0.3500  0.7368
   79MOL   C11333029   1.517   2.361   3.640  0.3121 -0.2793  0.0456
   79MOL   C11433030   1.397   2.286   3.653  0.6551  0.6963 -0.9878
   79MOL   C11533031   1.368   2.180   3.565 -0.1764  0.7431  0.7197
   79MOL   C11633032   1.468   2.131   3.479  0.6736  0.2743 -0.3378
   79MOL   C11733033   1.616   1.864   3.059 -0.9548  0.3081  0.1115
   79MOL   H11833034   1.778   1.863   3.205 -0.3056  0.5293  0.2929
   79MOL   H11933035   1.818   1.999   3.363  1.2025 -0.5411 -3.6153
   79MOL   H12033036   1.674   1.954   3.429  0.2499 -1.0697 -0.9354
   79MOL   H12133037   1.705   2.373   3.553 -0.7384  0.5584  1.0093
   79MOL   H12233038   1.541   2.452   3.692 -1.9039  1.3516 -1.6662
   79MOL   H12333039   1.321   2.322   3.721  1.6212 -0.8165  0.9574
   79MOL   H12433040   1.270   2.134   3.564 -1.0462  2.5633  0.1016
   79MOL   H12533041   1.440   2.038   3.433 -1.8643  0.0245  1.5622
   79MOL   H12633042   1.684   1.816   2.989 -0.4098  0.5938  0.4407
   79MOL   H12733043   1.554   1.935   3.004 -0.0132 -0.4427 -1.9607
   79MOL   C12833044   1.532   1.749   3.118 -0.2274  0.4989 -0.4996
   79MOL   O12933045   1.462   1.687   3.006 -1.0075  0.2950  0.6774
   79MOL   C13033046   1.526   1.586   2.939 -0.5549 -0.1952 -0.4291
   79MOL   O13133047   1.503   1.455   2.987 -0.5616 -0.0439 -0.1727
   79MOL   C13233048   1.393   1.391   2.940  0.0175 -0.2878 -0.1523
   79MOL   C13333049   1.415   1.254   2.915 -0.7416 -0.0613 -0.6722
   79MOL   C13433050   1.303   1.174   2.882 -0.4090  0.4453  0.0856
   79MOL   C13533051   1.173   1.220   2.870 -0.5312 -0.1966 -0.4036
   79MOL   C13633052   1.151   1.356   2.896 -0.9142  0.4155 -0.0485
   79MOL   C13733053   1.259   1.445   2.929  0.4497  0.0133 -0.7928
   79MOL   C13833054   1.427   1.799   3.225  0.0561 -0.0447 -0.2669
   79MOL   H13933055   1.601   1.679   3.166 -1.2339 -0.4351 -0.3980
   79MOL   H14033056   1.633   1.599   2.959 -0.4985 -2.5253  0.8793
   79MOL   H14133057   1.499   1.598   2.834 -1.5437  1.1973 -0.0326
   79MOL   H14233058   1.518   1.219   2.916 -1.0158 -0.9001 -1.2803
   79MOL   H14333059   1.315   1.068   2.861 -0.2171  0.5953 -0.5603
   79MOL   H14433060   1.088   1.154   2.856  0.1344 -0.7093 -2.1827
   79MOL   H14533061   1.049   1.390   2.897 -1.6607 -1.7147  0.6738
   79MOL   H14633062   1.231   1.542   2.965  1.9220 -0.5629  2.0385
   79MOL   H14733063   1.478   1.826   3.318 -0.2866 -2.2240  0.6033
   79MOL   H14833064   1.385   1.896   3.200  1.5634  2.1407  5.0552
   79MOL   C14933065   1.307   1.702   3.260  0.8223 -0.8314  0.6592
   79MOL   O15033066   1.338   1.610   3.367 -0.1738  0.2960 -0.1124
   79MOL   C15133067   1.413   1.499   3.332 -0.4698 -0.3074  0.3076
   79MOL   O15233068   1.546   1.521   3.328 -0.3850 -0.3726  0.0260
   79MOL   C15333069   1.602   1.570   3.441  0.1334  0.1469  0.3497
   79MOL   C15433070   1.571   1.528   3.575 -0.0414 -0.1014  0.6054
   79MOL   C15533071   1.637   1.585   3.684  0.0669  0.0287 -0.6094
   79MOL   C15633072   1.741   1.679   3.665  0.4896 -0.1528  0.9197
   79MOL   C15733073   1.780   1.712   3.534 -0.0533 -0.7963 -0.6213
   79MOL   C15833074   1.708   1.661   3.424  0.3300  0.1284  0.1889
   79MOL   C15933075   1.185   1.780   3.309  0.2850  0.0690  0.6280
   79MOL   H16033076   1.290   1.646   3.168 -0.7157  2.8690 -1.4192
   79MOL   H16133077   1.387   1.421   3.405 -0.6868 -1.1049 -0.6160
   79MOL   H16233078   1.382   1.470   3.232  1.4204 -1.4160  0.0112
   79MOL   H16333079   1.486   1.463   3.587 -0.4825  0.2688 -0.4767
   79MOL   H16433080   1.612   1.554   3.784  1.2761 -3.8363 -1.4344
   79MOL   H16533081   1.792   1.723   3.749  0.8296  0.0680  0.5964
   79MOL   H16633082   1.862   1.778   3.511  1.1943 -2.0333  0.1487
   79MOL   H16733083   1.748   1.691   3.329  1.4432  1.4920  1.0637
   79MOL   H16833084   1.139   1.851   3.240 -3.4985 -0.3431  2.5597
   79MOL   H16933085   1.224   1.843   3.388  2.9257 -0.8618  0.1221
   79MOL   C17033086   1.064   1.698   3.362  0.2823 -0.2261  0.0834
   79MOL   O17133087   0.947   1.778   3.370 -0.6730 -0.1169 -0.0925
   79MOL   C17233088   0.948   1.878   3.469  0.1120  0.4996  0.2813
   79MOL   O17333089   0.835   1.956   3.471  0.2069  0.0486  0.2506
   79MOL   C17433090   0.715   1.902   3.503 -0.0601  0.6238 -0.3364
   79MOL   C17533091   0.604   1.976   3.461 -0.6588 -0.5768  0.1737
   79MOL   C17633092   0.477   1.919   3.479 -0.6060 -0.0247  0.1257
   79MOL   C17733093   0.458   1.800   3.553 -0.0440  0.2113 -0.0208
   79MOL   C17833094   0.571   1.724   3.592  0.4507  0.1063 -0.4599
   79MOL   C17933095   0.698   1.775   3.568 -0.6281  0.6526  0.2659
   79MOL   C18033096   1.022   1.588   3.261  0.3128 -0.4521 -0.2709
   79MOL   H18133097   1.080   1.652   3.459 -0.3496 -0.2093  0.1997
   79MOL   H18233098   1.036   1.941   3.453 -0.4473  1.3356  0.5093
   79MOL   H18333099   0.963   1.829   3.566 -3.5495 -1.0276  0.1608
   79MOL   H18433100   0.608   2.069   3.408  0.4019 -0.5048  0.3734
   79MOL   H18533101   0.385   1.970   3.454 -2.0161 -2.0482  1.0181
   79MOL   H18633102   0.357   1.764   3.567  0.4477 -1.7157 -1.2370
   79MOL   H18733103   0.562   1.629   3.642  0.9132  0.0522 -0.4699
   79MOL   H18833104   0.783   1.713   3.593 -1.3709 -1.5815 -2.5966
   79MOL   H18933105   0.968   1.642   3.183  0.1044 -2.4059 -1.5000
   79MOL   H19033106   1.111   1.535   3.228  0.3186 -0.1153 -0.8066
   79MOL   C19133107   0.923   1.473   3.296  0.1269 -0.3300  0.1469
   79MOL   O19233108   0.919   1.373   3.197  0.1692 -0.0474  0.4289
   79MOL   C19333109   1.019   1.284   3.204  0.2106  0.0195 -0.2111
   79MOL   O19433110   1.020   1.201   3.316 -0.6296  0.2952  0.3026
   79MOL   C19533111   0.936   1.092   3.306  0.3169  0.3403 -0.3759
   79MOL   C19633112   0.978   0.975   3.377  0.6047  0.4967  0.6389
   79MOL   C19733113   0.900   0.852   3.366  0.2620 -0.0107 -0.7640
   79MOL   C19833114   0.785   0.844   3.285  0.6996 -0.4694 -0.0985
   79MOL   C19933115   0.738   0.957   3.227 -0.3295 -0.6966  0.5670
   79MOL   C20033116   0.812   1.080   3.236 -0.0999 -0.2736  0.0485
   79MOL   C20133117   0.782   1.521   3.332  0.0765  0.8029 -0.1114
   79MOL   H20233118   0.958   1.444   3.395 -0.8944  2.1793  1.2670
   79MOL   H20333119   1.115   1.334   3.189  0.4353  0.4138  2.3563
   79MOL   H20433120   1.020   1.225   3.112  2.0111 -0.9475  0.4092
   79MOL   H20533121   1.064   0.975   3.443  2.2168 -0.0311 -1.4475
   79MOL   H20633122   0.930   0.770   3.430 -2.6171  0.4649  1.2925
   79MOL   H20733123   0.733   0.750   3.272  0.3918 -0.6301  2.2157
   79MOL   H20833124   0.645   0.952   3.172 -0.6844 -2.2310  1.2596
   79MOL   H20933125   0.774   1.163   3.178 -0.7756 -0.2264  0.5498
   79MOL   H21033126   0.791   1.602   3.404  1.9960  3.4162 -3.1551
   79MOL   H21133127   0.736   1.551   3.238 -0.0636  2.0418  0.3436
   79MOL   C21233128   0.702   1.414   3.406  0.6722 -0.1630  0.0256
   79MOL   O21333129   0.745   1.420   3.534  0.3620  0.0648 -0.2458
   79MOL   C21433130   0.776   1.298   3.603 -0.4424  0.5223 -0.1377
   79MOL   O21533131   0.901   1.256   3.570  0.4636 -0.0690 -0.4448
   79MOL   C21633132   1.015   1.321   3.622  0.7973  0.4764 -0.2164
   79MOL   C21733133   1.007   1.450   3.682  0.5140  0.6938 -0.1431
   79MOL   C21833134   1.123   1.503   3.738  0.1105  0.6291 -1.1570
   79MOL   C21933135   1.248   1.437   3.726  0.5707  0.1033  0.4514
   79MOL   C22033136   1.262   1.318   3.658 -0.3582 -0.5932  0.2083
   79MOL   C22133137   1.142   1.262   3.609 -0.1783  0.5992  0.1788
   79MOL   C22233138   0.547   1.418   3.414 -0.1767 -0.0164  0.1303
   79MOL   H22333139   0.733   1.318   3.364  0.4027 -0.3205  0.1821
   79MOL   H22433140   0.698   1.224   3.582  0.6371 -1.3236  2.1786
   79MOL   H22533141   0.773   1.325   3.708 -1.3701 -1.7604  0.4610
   79MOL   H22633142   0.919   1.513   3.688  0.2750  0.3659 -0.1773
   79MOL   H22733143   1.112   1.595   3.793  1.6575 -0.7026  1.4933
   79MOL   H22833144   1.338   1.478   3.769  0.5735  0.7203 -0.1308
   79MOL   H22933145   1.355   1.266   3.637  2.3812  2.8042  3.2406
   79MOL   H23033146   1.144   1.162   3.568  0.1266  0.8470 -0.4053
   79MOL   H23133147   0.509   1.336   3.476 -1.2176  0.9381  0.7721
   79MOL   H23233148   0.510   1.497   3.479 -1.3245  0.3070 -0.9140
   79MOL   C23333149   0.469   1.400   3.275  0.1310  0.2077  0.0072
   79MOL   O23433150   0.353   1.325   3.305  0.0957 -0.7738 -0.1170
   79MOL   C23533151   0.266   1.275   3.208  0.0094 -0.2192  0.3611
   79MOL   O23633152   0.339   1.195   3.121 -0.1315  0.3169  0.1470
   79MOL   C23733153   0.372   1.068   3.157 -0.2968 -0.0493  0.6347
   79MOL   C23833154   0.394   0.973   3.051 -0.4232  0.0144 -0.0014
   79MOL   C23933155   0.431   0.838   3.079 -0.4961  0.3559  0.0023
   79MOL   C24033156   0.426   0.794   3.208  0.8681  0.2697 -0.5860
   79MOL   C24133157   0.401   0.881   3.315  0.1519 -0.7265 -0.1172
   79MOL   C24233158   0.378   1.019   3.292 -0.2380 -0.3681  0.3647
   79MOL   C24333159   0.426   1.529   3.201 -0.1837  0.6220 -0.1010
   79MOL   H24433160   0.538   1.342   3.213  1.5908  1.4054  0.4730
   79MOL   H24533161   0.228   1.357   3.147  0.9402  0.7044  1.0080
   79MOL   H24633162   0.189   1.210   3.251  0.8527 -0.8384  0.9525
   79MOL   H24733163   0.400   1.006   2.948 -2.9842 -0.6830 -0.4132
   79MOL   H24833164   0.454   0.769   2.998 -1.4710 -0.4991  0.4344
   79MOL   H24933165   0.438   0.690   3.236  1.2803  0.1705 -1.1357
   79MOL   H25033166   0.390   0.840   3.414  2.0664 -0.7983  0.0914
   79MOL   H25133167   0.366   1.089   3.374  0.4738 -1.7098  1.6215
   79MOL   H25233168   0.334   1.564   3.248 -0.8993  0.1584 -1.1516
   79MOL   H25333169   0.498   1.602   3.238 -1.3928  0.1388  3.3303
   79MOL   C25433170   0.410   1.528   3.045  0.2627 -0.7731 -0.6773
   79MOL   O25533171   0.371   1.662   3.016 -0.2663  0.2948 -0.0848
   79MOL   C25633172   0.301   1.687   2.898  0.0879  0.1632 -0.7070
   79MOL   O25733173   0.164   1.722   2.921 -0.7778  0.0514 -0.1838
   79MOL   C25833174   0.125   1.851   2.892 -0.7420  0.5334 -0.0470
   79MOL   C25933175   7.968   1.863   2.845 -0.6746  0.2203  0.5240
   79MOL   C26033176   7.918   1.990   2.812 -0.2200 -0.1256  0.4258
   79MOL   C26133177   0.028   2.098   2.816  0.5959 -0.5177 -0.4478
   79MOL   C26233178   0.159   2.089   2.868 -0.1174  0.1603  0.0159
   79MOL   C26333179   0.208   1.967   2.907 -0.0354  0.2158 -0.0763
   79MOL   C26433180   0.542   1.505   2.970 -0.1414  0.5366  0.5082
   79MOL   H26533181   0.328   1.464   3.010 -0.5248 -0.1861  0.0591
   79MOL   H26633182   0.311   1.606   2.826 -0.7820 -0.0768 -0.5675
   79MOL   H26733183   0.351   1.769   2.846 -0.4032  0.9034 -0.0286
   79MOL   H26833184   7.896   1.786   2.825  1.6069 -2.6112  2.8966
   79MOL   H26933185   7.816   2.002   2.777  0.4316  1.9649 -0.8243
   79MOL   H27033186   7.951   2.191   2.800 -0.6332 -0.5336  3.1660
   79MOL   H27133187   0.224   2.172   2.892  1.8791 -1.8530  1.9309
   79MOL   H27233188   0.295   1.948   2.968 -0.1917 -0.3453 -0.0248
   79MOL   H27333189   0.560   1.586   2.899  0.7599 -2.3187 -2.6272
   79MOL   H27433190   0.626   1.512   3.038 -0.0398 -0.6423  0.5109
   79MOL   C27533191   0.547   1.370   2.894 -0.1756  0.2693  0.8845
   79MOL   O27633192   0.450   1.378   2.787 -0.5810 -0.3362  0.1630
   79MOL   C27733193   0.356   1.275   2.792  0.2161  0.4749 -0.3533
   79MOL   O27833194   0.227   1.321   2.831 -0.9034 -0.5073 -0.2386
   79MOL   C27933195   0.130   1.224   2.858  0.5218 -1.1187 -0.4254
   79MOL   C28033196   0.137   1.087   2.816 -0.1094 -0.2077  0.2105
   79MOL   C28133197   0.041   0.993   2.866 -0.8239 -0.9054 -0.2369
   79MOL   C28233198   7.906   1.043   2.943 -0.0081  0.2652 -0.4612
   79MOL   C28333199   7.885   1.179   2.970  0.1984  0.3487 -0.4453
   79MOL   C28433200   0.007   1.265   2.926 -0.1833 -0.2940 -0.1057
   79MOL   C28533201   0.694   1.363   2.835 -0.4545  0.4504  0.3471
   79MOL   H28633202   0.529   1.292   2.968 -0.4622  0.6032  1.1729
   79MOL   H28733203   0.385   1.188   2.852 -0.9506 -0.4113 -1.0278
   79MOL   H28833204   0.344   1.246   2.687 -1.6481 -1.8875  0.4367
   79MOL   H28933205   0.219   1.062   2.750 -1.6470 -1.6400 -1.2175
   79MOL   H29033206   0.041   0.890   2.832 -0.2711 -1.9575  2.7673
   79MOL   H29133207   7.833   0.970   2.974  0.6304  0.3739  1.3779
   79MOL   H29233208   7.799   1.215   3.025  1.3729  1.7136  0.5421
   79MOL   H29333209   7.965   1.369   2.950 -0.7256 -0.4108  0.0100
   79MOL   H29433210   0.774   1.399   2.900 -0.0685 -0.3973  0.3435
   79MOL   H29533211   0.696   1.441   2.759  0.1791 -0.1677 -0.2841
   79MOL   C29633212   0.728   1.233   2.763  0.2033  0.2448 -0.9134
   79MOL   O29733213   0.849   1.246   2.690  0.3737  0.2925 -0.1876
   79MOL   C29833214   0.857   1.316   2.573 -0.2246 -0.3778 -0.4278
   79MOL   O29933215   0.744   1.294   2.493 -0.0950 -0.5248 -0.0057
   79MOL   C30033216   0.743   1.186   2.405 -0.2027 -0.6232  0.0651
   79MOL   C30133217   0.645   1.199   2.304 -0.2121 -0.5852  0.0036
   79MOL   C30233218   0.638   1.099   2.204  0.1735 -0.3686 -0.2431
   79MOL   C30333219   0.718   0.987   2.215 -0.4220 -0.3405 -0.4162
   79MOL   C30433220   0.809   0.968   2.322 -0.5222 -0.0917 -0.3373
   79MOL   C30533221   0.825   1.075   2.409 -1.1433 -0.0851 -0.6044
   79MOL   C30633222   0.746   1.117   2.867 -0.2518  0.1788 -0.1357
   79MOL   H30733223   0.646   1.202   2.699 -0.2726 -2.3333  0.8420
   79MOL   H30833224   0.949   1.287   2.523 -0.0695 -2.1647  0.8372
   79MOL   H30933225   0.884   1.421   2.588  0.1005 -0.5129 -0.0457
   79MOL   H31033226   0.587   1.290   2.301 -0.8510 -0.9563  0.9443
   79MOL   H31133227   0.557   1.103   2.133  2.8099 -0.3365 -3.3354
   79MOL   H31233228   0.719   0.911   2.138  0.4511 -1.3674  0.5767
   79MOL   H31333229   0.870   0.880   2.336 -0.5962  0.4029  3.6375
   79MOL   H31433230   0.909   1.058   2.474  0.1424  2.2185 -1.5942
   79MOL   H31533231   0.664   1.124   2.938 -1.1754  2.0969 -1.3368
   79MOL   H31633232   0.837   1.138   2.922 -1.7590  1.9229  1.7652
   79MOL   C31733233   0.756   0.977   2.807 -0.1068 -0.8121  0.4709
   79MOL   O31833234   0.624   0.924   2.794  0.0228 -0.2797 -0.3221
   79MOL   C31933235   0.584   0.890   2.664  0.1869  1.1014  0.1003
   79MOL   O32033236   0.514   0.993   2.605  0.8407  0.3772  0.1019
   79MOL   C32133237   0.443   0.971   2.487  0.3239 -0.4066  0.5484
   79MOL   C32233238   0.460   0.847   2.410 -0.4325  0.3474 -0.0771
   79MOL   C32333239   0.383   0.832   2.293 -0.2335  0.2431  0.4093
   79MOL   C32433240   0.291   0.934   2.244  0.0932 -0.4249  0.5478
   79MOL   C32533241   0.278   1.051   2.322 -0.2883  0.9352  0.4364
   79MOL   C32633242   0.349   1.060   2.445 -0.6419  0.1806 -0.4257
   79MOL   C32733243   0.845   0.883   2.898  0.1370 -0.4732  0.2365
   79MOL   H32833244   0.796   0.990   2.707 -2.1881 -1.3317 -0.4573
   79MOL   H32933245   0.518   0.804   2.678  0.8269  0.5157 -0.4493
   79MOL   H33033246   0.659   0.852   2.595 -1.1985 -1.3943 -0.0964
   79MOL   H33133247   0.538   0.777   2.435 -2.0430 -1.3818  0.1736
   79MOL   H33233248   0.383   0.737   2.242 -0.3159 -0.1401  1.1121
   79MOL   H33333249   0.227   0.925   2.157 -3.0227  0.1303  2.7120
   79MOL   H33433250   0.221   1.133   2.280 -0.3683  0.6939  0.0740
   79MOL   H33533251   0.342   1.152   2.500  1.1728  1.2832 -1.9589
   79MOL   H33633252   0.932   0.928   2.947 -0.4384  1.7696 -0.7486
   79MOL   H33733253   0.778   0.845   2.974 -0.0001 -1.0001 -0.1454
   79MOL   C33833254   0.902   0.751   2.834  0.7157 -0.5151  0.5155
   79MOL   O33933255   0.814   0.679   2.740 -0.7575 -0.6955 -0.4101
   79MOL   C34033256   0.708   0.609   2.801 -1.1312 -0.1103 -0.4902
   79MOL   O34133257   0.621   0.558   2.712  0.1009 -0.0942 -0.0015
   79MOL   C34233258   0.652   0.450   2.629  0.2792  0.3688  0.2068
   79MOL   C34333259   0.766   0.376   2.634  0.5310  0.6921 -0.0460
   79MOL   C34433260   0.787   0.279   2.527 -0.2330  0.1330 -0.9946
   79MOL   C34533261   0.694   0.261   2.425 -0.1960  0.6962 -0.3280
   79MOL   C34633262   0.573   0.324   2.429  0.1928 -0.5359  0.1223
   79MOL   C34733263   0.551   0.423   2.526 -0.2559 -0.1657  0.0242
   79MOL   C34833264   1.030   0.779   2.742 -0.3442 -0.0730 -0.0820
   79MOL   H34933265   0.937   0.683   2.912  0.4798 -0.1336  0.9535
   79MOL   H35033266   0.654   0.682   2.860 -2.2690 -0.2768 -1.3133
   79MOL   H35133267   0.738   0.530   2.869 -0.1522  0.8846  0.2650
   79MOL   H35233268   0.846   0.394   2.704 -0.8861  1.6803  1.3561
   79MOL   H35333269   0.878   0.222   2.515 -0.3345 -0.3238  0.3417
   79MOL   H35433270   0.712   0.193   2.344 -2.3411  1.4125 -1.4356
   79MOL   H35533271   0.494   0.299   2.360 -0.6126  1.3765  0.3229
   79MOL   H35633272   0.461   0.482   2.521  0.3368  0.7292 -0.3301
   79MOL   H35733273   1.097   0.850   2.791  0.7453 -1.3815  0.3644
   79MOL   H35833274   0.980   0.830   2.660  0.8487  0.8973 -0.2153
   79MOL   C35933275   1.103   0.658   2.700 -0.0375 -0.3891  0.1427
   79MOL   O36033276   1.168   0.612   2.819 -0.0640 -0.2659  0.4496
   79MOL   C36133277   1.182   0.469   2.829 -0.2808 -0.5737  0.7397
   79MOL   O36233278   1.070   0.400   2.856 -0.1770  0.4365 -0.4571
   79MOL   C36333279   1.079   0.267   2.890  0.2910  0.4776  0.2519
   79MOL   C36433280   1.202   0.202   2.904  0.9212  0.2642  1.0013
   79MOL   C36533281   1.206   0.066   2.938 -0.0155  0.0435 -0.3959
   79MOL   C36633282   1.087   7.972   2.969  0.0661 -0.1303 -0.3380
   79MOL   C36733283   0.963   0.064   2.952  0.1468 -0.5241 -0.0705
   79MOL   C36833284   0.959   0.201   2.910  0.4667 -0.1319  0.5272
   79MOL   C36933285   1.208   0.695   2.597  0.3893 -0.1115  0.6508
   79MOL   H37033286   1.034   0.582   2.662 -3.9982  2.4078  1.3952
   79MOL   H37133287   1.251   0.461   2.913 -0.3808 -4.2079  0.5539
   79MOL   H37233288   1.222   0.427   2.737 -1.4259  0.2985 -0.1883
   79MOL   H37333289   1.297   0.250   2.884  1.2485 -1.2023 -1.0600
   79MOL   H37433290   1.302   0.022   2.959  0.6768  1.6458 -0.1136
   79MOL   H37533291   1.099   7.867   2.992  0.0792 -0.1409 -0.3942
   79MOL   H37633292   0.869   0.011   2.966 -0.4261  1.1390  2.8201
   79MOL   H37733293   0.871   0.261   2.889  0.4910  0.0845  1.0382
   79MOL   H37833294   1.280   0.614   2.583  0.8758  0.5508 -0.7558
   79MOL   H37933295   1.260   0.778   2.646 -1.0770 -0.0014  2.0510
   79MOL   C38033296   1.138   0.713   2.460 -0.5022  0.3348 -0.3017
   79MOL   O38133297   1.106   0.577   2.418  0.3800  0.9429  0.0991
   79MOL   C38233298   0.989   0.571   2.347  0.8348  0.2336 -0.1010
   79MOL   O38333299   0.987   0.626   2.221  0.5714  0.4255  0.1642
   79MOL   C38433300   0.870   0.643   2.148 -0.2669 -0.1939 -1.1264
   79MOL   C38533301   0.744   0.593   2.189  0.5428 -0.0450 -0.7216
   79MOL   C38633302   0.624   0.603   2.115  1.0202  0.0554 -0.6219
   79MOL   C38733303   0.639   0.672   1.996  0.0152  0.6765 -1.2888
   79MOL   C38833304   0.759   0.724   1.946 -0.0520  0.0397 -0.1332
   79MOL   C38933305   0.875   0.707   2.022  0.1293 -0.4278 -0.7048
   79MOL   C39033306   1.244   0.771   2.360  0.3474  0.3168 -0.5965
   79MOL   H39133307   1.050   0.777   2.469 -1.1133 -0.6330  0.8113
   79MOL   H39233308   0.956   0.468   2.335 -2.1488  1.0038  0.8973
   79MOL   H39333309   0.913   0.623   2.406  1.0392 -0.3355  0.6697
   79MOL   H39433310   0.750   0.542   2.284 -0.1262  1.5800  0.2047
   79MOL   H39533311   0.527   0.564   2.141  1.5689  0.1080  1.5830
   79MOL   H39633312   0.547   0.687   1.941  0.8550  2.0514 -2.3391
   79MOL   H39733313   0.759   0.776   1.852  1.3774  0.1376 -0.0888
   79MOL   H39833314   0.971   0.748   1.993  0.0206  0.0989 -0.3231
   79MOL   H39933315   1.198   0.769   2.262 -1.6957  0.0165  0.3468
   79MOL   H40033316   1.337   0.714   2.359 -1.1644 -2.2155 -1.5833
   79MOL   C40133317   1.290   0.913   2.385  0.5861  0.0353  1.0246
   79MOL   O40233318   1.410   0.942   2.311  0.1024 -0.2006  0.5477
   79MOL   C40333319   1.497   1.026   2.363  0.2392 -0.2604  0.2541
   79MOL   O40433320   1.545   0.985   2.482  0.0594 -0.0074  0.5287
   79MOL   C40533321   1.631   1.065   2.555 -0.0815  0.3523 -0.5792
   79MOL   C40633322   1.681   1.187   2.515 -0.4702 -0.2074 -0.2217
   79MOL   C40733323   1.773   1.253   2.596  0.6614  0.0147 -0.1397
   79MOL   C40833324   1.816   1.204   2.718  0.3048 -0.1733 -0.4560
   79MOL   C40933325   1.762   1.085   2.771  0.2484  0.7406 -0.0009
   79MOL   C41033326   1.669   1.017   2.688 -0.1318 -0.5286  0.6648
   79MOL   C41133327   1.179   1.007   2.328  0.1107 -0.4197  0.4533
   79MOL   H41233328   1.309   0.933   2.491  0.1831 -2.0923  1.5257
   79MOL   H41333329   1.452   1.125   2.377  2.4408  0.5499  1.9423
   79MOL   H41433330   1.584   1.041   2.300 -0.4517  3.1838 -0.0038
   79MOL   H41533331   1.658   1.246   2.427 -2.2630  1.3178  1.2257
   79MOL   H41633332   1.810   1.352   2.576 -0.2923  0.6050  0.9026
   79MOL   H41733333   1.895   1.243   2.781 -2.8577  1.8447  2.4562
   79MOL   H41833334   1.799   1.041   2.862  0.1243  0.0893 -0.2611
   79MOL   H41933335   1.631   0.920   2.717  0.4805 -0.5506  1.3953
   79MOL   H42033336   1.194   1.032   2.223 -0.7451 -1.7218  0.0125
   79MOL   H42133337   1.172   1.106   2.374 -0.7900  0.3682 -1.3467
   79MOL   H42233338   1.081   0.960   2.342  0.2589 -1.0509 -0.5866
   80MOL     C133339   7.421   2.576   4.083  0.0701 -0.2813 -0.2254
   80MOL     O233340   7.329   2.631   3.985  0.2366 -0.0142  0.1920
   80MOL     C333341   7.361   2.752   3.924  0.6109 -0.5853  0.1513
   80MOL     O433342   7.332   2.853   4.007 -0.4947 -0.0728 -0.2510
   80MOL     C533343   7.209   2.866   4.063  0.5037 -0.5171 -0.7224
   80MOL     C633344   7.191   2.954   4.168 -0.4047  0.3525  0.0251
   80MOL     C733345   7.064   2.983   4.226  0.2696 -0.3615  0.2491
   80MOL     C833346   6.949   2.919   4.176  0.6317  0.9429  0.9374
   80MOL     C933347   6.966   2.822   4.076 -0.6653 -0.2773  0.2005
   80MOL    C1033348   7.094   2.788   4.025 -0.6778 -0.2735  0.5477
   80MOL    C1133349   7.361   2.441   4.108  0.5570  0.3428  0.0235
   80MOL    H1233350   7.526   2.573   4.055  0.2213 -0.1115  0.3313
   80MOL    H1333351   7.465   2.750   3.892  0.7610 -0.8504  0.6609
   80MOL    H1433352   7.310   2.774   3.830  0.4970  1.5904  0.6856
   80MOL    H1533353   7.273   3.007   4.214 -1.1983  1.0344  0.6597
   80MOL    H1633354   7.046   3.068   4.290 -2.9120  1.7882 -3.3429
   80MOL    H1733355   6.849   2.936   4.215 -0.8053 -0.6443 -1.8911
   80MOL    H1833356   6.881   2.769   4.036 -2.0247  1.6781  0.4190
   80MOL    H1933357   7.085   2.721   3.941 -2.4643 -0.1234  0.6086
   80MOL    H2033358   7.350   2.395   4.010 -0.4886  0.8437 -0.1000
   80MOL    H2133359   7.262   2.449   4.153 -0.2624 -1.1610 -1.4877
   80MOL    H2233360   7.417   2.631   4.177 -1.1268 -0.5121 -0.1269
   80MOL    C2333361   7.442   2.332   4.185 -0.0495  0.0257  0.0311
   80MOL    O2433362   7.570   2.321   4.118  0.7974 -0.2701  0.0866
   80MOL    C2533363   7.676   2.268   4.187  0.0500  0.1034 -0.0399
   80MOL    O2633364   7.659   2.139   4.235 -0.5643 -0.1745 -0.4494
   80MOL    C2733365   7.768   2.086   4.302 -0.3742  0.0999 -0.0376
   80MOL    C2833366   7.900   2.138   4.298 -0.3352  0.0933 -0.4346
   80MOL    C2933367   0.025   2.060   4.358 -0.2959  0.8169  0.4829
   80MOL    C3033368   7.972   1.943   4.425  0.3384 -1.0157  0.6477
   80MOL    C3133369   7.838   1.893   4.426 -0.2683  0.2576  0.6896
   80MOL    C3233370   7.738   1.963   4.363  0.5378  0.2954 -0.0670
   80MOL    C3333371   7.354   2.199   4.184 -0.2865  0.0892  0.0658
   80MOL    H3433372   7.461   2.353   4.291  2.1282  0.4231 -0.4034
   80MOL    H3533373   7.701   2.342   4.264  1.1968  0.2790 -0.5863
   80MOL    H3633374   7.746   2.262   4.104 -1.3945  0.1736 -1.2978
   80MOL    H3733375   7.922   2.234   4.255 -1.2799  1.4121  1.9400
   80MOL    H3833376   0.126   2.097   4.359  0.1969 -0.5252  1.3526
   80MOL    H3933377   0.078   1.891   4.473 -0.0310 -0.8069  1.5019
   80MOL    H4033378   7.813   1.809   4.489  0.1839  0.7253  1.5106
   80MOL    H4133379   7.635   1.930   4.369  0.2699  1.2597  1.0904
   80MOL    H4233380   7.420   2.113   4.168  0.4396  0.4774  0.9680
   80MOL    H4333381   7.284   2.189   4.100  1.5797 -1.0643 -1.4102
   80MOL    C4433382   7.284   2.182   4.319 -0.0241 -0.1625  0.1368
   80MOL    O4533383   7.385   2.130   4.409  0.5345  0.7166  0.3696
   80MOL    C4633384   7.389   2.184   4.532  0.0848 -0.1588  0.6026
   80MOL    O4733385   7.462   2.304   4.529  0.3914  0.2148 -0.1258
   80MOL    C4833386   7.459   2.373   4.650  0.5725  0.3877  0.1719
   80MOL    C4933387   7.519   2.503   4.650 -0.3279  0.3809  1.2896
   80MOL    C5033388   7.530   2.585   4.766 -0.2445  0.0673  0.1315
   80MOL    C5133389   7.468   2.545   4.887 -0.6409 -0.2342 -0.6139
   80MOL    C5233390   7.405   2.415   4.891 -1.1515  0.5553  0.2253
   80MOL    C5333391   7.390   2.337   4.772  0.4894  0.1805  0.0234
   80MOL    C5433392   7.159   2.092   4.327  0.2828  0.6581  0.4491
   80MOL    H5533393   7.254   2.279   4.358 -1.6226 -0.3413 -0.6181
   80MOL    H5633394   7.444   2.114   4.595  2.2270  2.2141  1.4156
   80MOL    H5733395   7.288   2.190   4.573 -0.2756 -2.8144  0.1992
   80MOL    H5833396   7.578   2.535   4.566 -1.1828  1.6310  1.1429
   80MOL    H5933397   7.579   2.680   4.753  0.1536 -0.5234 -3.1338
   80MOL    H6033398   7.462   2.595   4.982 -0.2449  0.4383 -0.9451
   80MOL    H6133399   7.361   2.372   4.980 -0.4822  0.3641  0.4609
   80MOL    H6233400   7.334   2.246   4.783  1.6894 -0.7557 -1.4672
   80MOL    H6333401   7.197   1.996   4.293 -3.3380 -0.6402 -0.1675
   80MOL    H6433402   7.143   2.087   4.435  1.9602  0.4700  0.6916
   80MOL    C6533403   7.017   2.136   4.280  0.2144  0.7447  0.6041
   80MOL    O6633404   7.021   2.116   4.142  0.1972 -0.2866 -0.0028
   80MOL    C6733405   7.018   2.233   4.066 -0.4466 -0.2143  0.5513
   80MOL    O6833406   6.903   2.302   4.062  0.2726  0.0678 -0.1045
   80MOL    C6933407   6.886   2.398   3.963 -0.3186  0.1632  0.6431
   80MOL    C7033408   6.987   2.431   3.867 -0.6250  0.4040  0.1829
   80MOL    C7133409   6.951   2.516   3.756 -0.3840  1.2269  0.0979
   80MOL    C7233410   6.822   2.576   3.748 -1.2458 -0.0942  0.5660
   80MOL    C7333411   6.739   2.559   3.859  0.1284  0.2106 -0.2443
   80MOL    C7433412   6.769   2.467   3.961 -0.1950 -0.2227 -0.4712
   80MOL    C7533413   6.911   2.035   4.341 -0.5586  0.6040 -0.2356
   80MOL    H7633414   6.990   2.240   4.299  1.2866  1.5662 -2.1502
   80MOL    H7733415   7.048   2.199   3.967  0.8785  0.5115  0.7005
   80MOL    H7833416   7.098   2.306   4.077 -1.3101  1.0523 -1.4999
   80MOL    H7933417   7.086   2.386   3.863 -1.5060 -1.4284 -2.0548
   80MOL    H8033418   7.025   2.547   3.683  3.4758 -1.7864  2.5200
   80MOL    H8133419   6.797   2.648   3.672 -2.1541 -2.4525 -1.4372
   80MOL    H8233420   6.646   2.612   3.873  0.1673 -0.5705  3.4913
   80MOL    H8333421   6.695   2.452   4.038 -0.9728 -2.3697 -1.6034
   80MOL    H8433422   6.822   2.028   4.279 -0.2683  0.6130 -0.6600
   80MOL    H8533423   6.963   1.940   4.334 -1.7722 -0.0858  0.1616
   80MOL    C8633424   6.856   2.084   4.478 -0.3663 -0.6710 -1.1623
   80MOL    O8733425   6.794   2.208   4.455  0.4604  0.5743  0.0239
   80MOL    C8833426   6.814   2.302   4.556 -0.0875  0.5604 -1.2302
   80MOL    O8933427   6.952   2.340   4.571 -0.2529  0.0876  0.0858
   80MOL    C9033428   7.008   2.435   4.491  0.2043  0.2535  0.2113
   80MOL    C9133429   6.951   2.485   4.374  0.5542  0.4266 -0.6456
   80MOL    C9233430   7.018   2.575   4.294 -0.3319  0.1676  0.1785
   80MOL    C9333431   7.148   2.619   4.331 -0.4365 -0.2959 -0.1149
   80MOL    C9433432   7.215   2.564   4.443  0.4559  0.0929 -0.3938
   80MOL    C9533433   7.145   2.464   4.521  0.0563 -0.1202 -0.9772
   80MOL    C9633434   6.755   1.983   4.534 -0.4465  0.5581 -0.2930
   80MOL    H9733435   6.943   2.096   4.542 -0.4943  1.2647 -1.3337
   80MOL    H9833436   6.788   2.257   4.651  0.6639  0.2964 -1.1474
   80MOL    H9933437   6.746   2.387   4.546  0.9911  1.5912  0.0915
   80MOL   H10033438   6.851   2.458   4.344 -0.1457  1.8362  0.3636
   80MOL   H10133439   6.965   2.619   4.210 -0.2657 -1.2569 -0.6239
   80MOL   H10233440   7.207   2.683   4.267  0.7637 -1.8502 -0.5746
   80MOL   H10333441   7.319   2.585   4.465 -0.2092  1.4915  1.4861
   80MOL   H10433442   7.197   2.410   4.599  0.1223 -0.7189 -1.4298
   80MOL   H10533443   6.676   1.970   4.460  0.6612 -0.6777 -1.2772
   80MOL   H10633444   6.804   1.886   4.540 -1.0315  0.3270  1.1112
   80MOL   C10733445   6.683   2.005   4.670 -0.2264 -0.0583 -0.3059
   80MOL   O10833446   6.602   1.886   4.687  0.7817 -0.5763  0.0184
   80MOL   C10933447   6.461   1.907   4.711 -0.0981 -0.7256 -0.4476
   80MOL   O11033448   6.387   1.904   4.596 -0.6967 -0.2368  0.5577
   80MOL   C11133449   6.374   1.791   4.520 -0.9863 -0.0304  0.2757
   80MOL   C11233450   6.294   1.808   4.406  0.2143 -0.7184 -0.3244
   80MOL   C11333451   6.262   1.692   4.325  0.6681 -0.1352 -0.2962
   80MOL   C11433452   6.321   1.569   4.356  0.9328 -0.3101  0.1580
   80MOL   C11533453   6.401   1.558   4.472 -0.3217  0.5755 -0.7676
   80MOL   C11633454   6.429   1.665   4.559 -0.8582  0.7086 -0.3387
   80MOL   C11733455   6.790   2.000   4.783 -0.0721 -0.0892  0.4980
   80MOL   H11833456   6.618   2.092   4.676  1.7808  1.3236  2.3066
   80MOL   H11933457   6.437   2.000   4.764  1.1930  0.6524 -2.2097
   80MOL   H12033458   6.450   1.824   4.781  1.1315  0.1346  0.8051
   80MOL   H12133459   6.246   1.901   4.377  1.3134 -0.3623 -1.0385
   80MOL   H12233460   6.198   1.704   4.239 -0.0630  0.9007  0.3901
   80MOL   H12333461   6.310   1.481   4.295 -1.3355 -0.0960  0.2157
   80MOL   H12433462   6.455   1.468   4.500 -0.7817  0.8727  1.1000
   80MOL   H12533463   6.487   1.646   4.649 -1.4928 -1.9232 -0.4444
   80MOL   H12633464   6.877   2.061   4.760  0.8328 -0.9043  1.6663
   80MOL   H12733465   6.823   1.896   4.787 -0.4285 -0.1806  1.1778
   80MOL   C12833466   6.745   2.006   4.929  0.6048  0.1536 -0.0099
   80MOL   O12933467   6.734   2.151   4.935 -0.3620 -0.1618 -0.6534
   80MOL   C13033468   6.643   2.188   5.034 -0.5010  0.1371 -0.1524
   80MOL   O13133469   6.518   2.164   4.986  0.0608  0.1786  0.1479
   80MOL   C13233470   6.418   2.247   5.028  0.2470  0.5225  0.3548
   80MOL   C13333471   6.424   2.317   5.152  0.0804 -0.5771 -0.6253
   80MOL   C13433472   6.308   2.386   5.194  0.2851  0.3083  0.0393
   80MOL   C13533473   6.190   2.393   5.113 -0.2153 -1.1177  0.1357
   80MOL   C13633474   6.192   2.330   4.988 -0.5248 -0.1432 -0.3212
   80MOL   C13733475   6.303   2.261   4.946  0.2303  0.1570  0.1408
   80MOL   C13833476   6.847   1.947   5.032 -0.1636 -0.0245  0.2885
   80MOL   H13933477   6.650   1.956   4.942  0.5419 -0.8460 -3.7634
   80MOL   H14033478   6.669   2.292   5.054 -1.9867  1.2901 -3.7414
   80MOL   H14133479   6.654   2.129   5.124 -1.0023 -2.6536 -1.8536
   80MOL   H14233480   6.508   2.313   5.220 -2.8353  0.6956  3.2538
   80MOL   H14333481   6.313   2.438   5.288 -0.8993  0.9524 -0.2423
   80MOL   H14433482   6.102   2.444   5.150 -1.9828 -4.3654  0.5811
   80MOL   H14533483   6.099   2.334   4.933 -0.3269 -0.5745 -0.6908
   80MOL   H14633484   6.287   2.204   4.856  1.8151 -0.4975  0.2579
   80MOL   H14733485   6.950   1.970   5.005 -0.3420  1.7566  1.1065
   80MOL   H14833486   6.827   2.000   5.125  0.2832  0.3091  0.1963
   80MOL   C14933487   6.837   1.800   5.053 -0.3001  0.0434 -0.0589
   80MOL   O15033488   6.889   1.730   4.942  0.6687  0.5719  0.1887
   80MOL   C15133489   6.794   1.641   4.892 -0.1029  0.3675 -0.3660
   80MOL   O15233490   6.754   1.531   4.978  0.1206  0.1165  0.2340
   80MOL   C15333491   6.679   1.431   4.917  0.7478 -0.0782  0.2102
   80MOL   C15433492   6.649   1.325   5.004  0.1669  0.6936  0.1845
   80MOL   C15533493   6.579   1.210   4.956  0.1347  0.2931 -0.0657
   80MOL   C15633494   6.544   1.199   4.820 -0.2075 -0.0660 -0.4507
   80MOL   C15733495   6.565   1.311   4.737  0.2353 -0.2184 -0.4427
   80MOL   C15833496   6.631   1.427   4.782 -0.4602  0.3532 -0.1091
   80MOL   C15933497   6.916   1.759   5.180  0.5509 -0.0773 -0.8088
   80MOL   H16033498   6.735   1.770   5.079 -0.2430  0.5910  0.8292
   80MOL   H16133499   6.710   1.704   4.865 -0.5496  0.3070  0.8221
   80MOL   H16233500   6.827   1.598   4.798  0.3069 -0.9128  0.3426
   80MOL   H16333501   6.687   1.330   5.105 -0.3308 -1.6329  0.5391
   80MOL   H16433502   6.544   1.131   5.020 -0.1362  0.9504  0.6056
   80MOL   H16533503   6.512   1.100   4.788 -2.2943  0.4678 -0.0685
   80MOL   H16633504   6.541   1.305   4.632 -0.5806 -0.6468 -0.2359
   80MOL   H16733505   6.652   1.514   4.721 -1.3753  1.0515  0.5563
   80MOL   H16833506   7.019   1.794   5.171  0.6746 -0.4717 -0.9783
   80MOL   H16933507   6.926   1.651   5.189  3.3726  0.1881 -0.2764
   80MOL   C17033508   6.873   1.820   5.318 -0.7475  0.5753 -0.7281
   80MOL   O17133509   6.729   1.810   5.320 -0.3176  0.2456 -0.3116
   80MOL   C17233510   6.661   1.906   5.398  0.2804 -0.8481 -0.0943
   80MOL   O17333511   6.687   2.030   5.346  0.0505 -0.3137 -0.4969
   80MOL   C17433512   6.651   2.140   5.417 -0.5172 -0.5814 -0.1279
   80MOL   C17533513   6.537   2.147   5.498  0.0861  0.3043 -0.4498
   80MOL   C17633514   6.491   2.270   5.546 -0.8229 -0.5247 -0.6406
   80MOL   C17733515   6.559   2.394   5.524 -0.1687 -0.1459 -0.0699
   80MOL   C17833516   6.673   2.384   5.441  0.2840 -0.4103 -0.3752
   80MOL   C17933517   6.715   2.262   5.392 -0.2966  0.3790  0.9463
   80MOL   C18033518   6.945   1.755   5.440 -0.0151 -0.3444 -0.7345
   80MOL   H18133519   6.902   1.925   5.320 -2.6917  1.1183  0.3853
   80MOL   H18233520   6.671   1.896   5.506 -0.3717 -1.0918 -0.0538
   80MOL   H18333521   6.558   1.888   5.366 -0.0954  0.4415  0.3772
   80MOL   H18433522   6.480   2.059   5.524  0.6855 -0.8264 -2.8494
   80MOL   H18533523   6.395   2.258   5.596 -0.8873 -2.1668 -1.1368
   80MOL   H18633524   6.523   2.490   5.559 -1.9196 -0.9177  0.3092
   80MOL   H18733525   6.731   2.473   5.418 -0.8199  0.5881  0.6287
   80MOL   H18833526   6.799   2.260   5.323 -0.7833 -2.9472  0.3343
   80MOL   H18933527   6.899   1.662   5.472 -1.7861  0.5746 -0.5476
   80MOL   H19033528   7.048   1.724   5.423 -0.3061 -1.6210 -0.1787
   80MOL   C19133529   6.957   1.852   5.560 -0.4661  0.2041  0.1237
   80MOL   O19233530   7.086   1.914   5.564  0.2574 -0.6105 -0.1350
   80MOL   C19333531   7.123   2.009   5.464  0.5842  0.0671  0.6285
   80MOL   O19433532   7.164   1.946   5.346  0.6005  0.3383 -0.2709
   80MOL   C19533533   7.289   1.888   5.345  0.8355 -0.1485  0.0650
   80MOL   C19633534   7.382   1.898   5.452 -0.0999  0.5315 -0.2884
   80MOL   C19733535   7.507   1.838   5.436  0.5792 -0.1835 -0.0492
   80MOL   C19833536   7.544   1.765   5.320 -0.2877 -0.4419  0.1961
   80MOL   C19933537   7.451   1.753   5.213 -0.3714 -0.9643 -0.1725
   80MOL   C20033538   7.323   1.818   5.227  0.1636  0.6536  0.0430
   80MOL   C20133539   6.926   1.777   5.687 -0.2844 -0.2597  0.5490
   80MOL   H20233540   6.889   1.936   5.545  0.9981  1.2642 -0.7556
   80MOL   H20333541   7.203   2.080   5.486  2.3099 -1.7959  0.4764
   80MOL   H20433542   7.037   2.071   5.439  0.0195 -0.4210  1.3624
   80MOL   H20533543   7.359   1.956   5.540 -3.3320 -0.8387 -0.1629
   80MOL   H20633544   7.563   1.866   5.523  1.4858  0.7240 -0.9045
   80MOL   H20733545   7.641   1.720   5.307  0.0271  0.0846  0.6972
   80MOL   H20833546   7.472   1.695   5.124 -1.9171 -1.6285 -0.1192
   80MOL   H20933547   7.254   1.820   5.144  0.2610 -1.6164 -0.1471
   80MOL   H21033548   6.850   1.704   5.660 -2.2847  1.6889  0.7843
   80MOL   H21133549   7.016   1.735   5.732 -0.5591 -1.4981 -0.0306
   80MOL   C21233550   6.839   1.861   5.783  0.3574 -0.3100 -0.7770
   80MOL   O21333551   6.742   1.779   5.857 -0.6448 -0.3628 -0.1257
   80MOL   C21433552   6.617   1.841   5.876 -0.4540 -0.2849 -0.5187
   80MOL   O21533553   6.532   1.837   5.767  0.1597  0.7136  0.3398
   80MOL   C21633554   6.403   1.884   5.782 -0.1718  0.6741  0.0522
   80MOL   C21733555   6.353   1.936   5.904  0.1480  0.0738 -0.4381
   80MOL   C21833556   6.217   1.970   5.919  0.6763  0.3256 -0.2090
   80MOL   C21933557   6.130   1.969   5.810 -0.0764 -0.7042 -0.1222
   80MOL   C22033558   6.172   1.915   5.689 -0.3161 -0.0276  0.1038
   80MOL   C22133559   6.313   1.875   5.678 -0.0395 -0.4450  0.6587
   80MOL   C22233560   6.918   1.942   5.884  0.1628  0.1069 -0.7221
   80MOL   H22333561   6.775   1.929   5.726 -0.6275  1.3105  2.1536
   80MOL   H22433562   6.625   1.942   5.918 -2.6069  0.2267 -1.2582
   80MOL   H22533563   6.584   1.776   5.957  1.7012 -1.8617 -0.8594
   80MOL   H22633564   6.413   1.946   5.993  0.9853  2.5683 -1.2482
   80MOL   H22733565   6.184   2.012   6.013  2.4469 -0.5027  0.8251
   80MOL   H22833566   6.025   1.986   5.827 -0.6681 -1.4422 -2.7793
   80MOL   H22933567   6.092   1.901   5.618 -1.1469 -0.1915  1.0712
   80MOL   H23033568   6.350   1.832   5.586  2.7306  0.0295  1.5122
   80MOL   H23133569   6.861   1.962   5.974 -0.9386 -0.2383 -1.3322
   80MOL   H23233570   6.994   1.873   5.920  0.0635 -0.3470 -1.3521
   80MOL   C23333571   6.984   2.072   5.828  0.2567  0.5275  0.6735
   80MOL   O23433572   6.894   2.152   5.746  0.6162  0.3682  0.2094
   80MOL   C23533573   6.792   2.230   5.796 -0.0569 -0.5973 -0.1435
   80MOL   O23633574   6.704   2.156   5.866 -0.2437 -0.4881 -0.0882
   80MOL   C23733575   6.603   2.217   5.934 -0.1589 -0.3020  0.3194
   80MOL   C23833576   6.549   2.340   5.877 -0.2778 -0.1444 -0.6004
   80MOL   C23933577   6.454   2.408   5.952 -0.1078 -0.1949  0.8093
   80MOL   C24033578   6.416   2.360   6.078  0.0182  0.1297  0.2058
   80MOL   C24133579   6.459   2.238   6.129  0.4672 -0.7844  0.6203
   80MOL   C24233580   6.553   2.164   6.057 -0.3729  0.1292  0.0689
   80MOL   C24333581   7.042   2.142   5.950  0.2632  0.4786 -0.3619
   80MOL   H24433582   7.076   2.047   5.775  0.7883 -0.2698  1.9465
   80MOL   H24533583   6.747   2.271   5.705  2.7805  1.5920 -0.6309
   80MOL   H24633584   6.836   2.312   5.855  2.0680 -1.3135 -0.6814
   80MOL   H24733585   6.582   2.378   5.782  0.0251 -0.7400 -0.7383
   80MOL   H24833586   6.415   2.500   5.911 -4.0198 -1.7331  0.8693
   80MOL   H24933587   6.340   2.405   6.140  1.2606  0.2618  1.6789
   80MOL   H25033588   6.428   2.206   6.227 -0.4732  1.4727  1.0874
   80MOL   H25133589   6.590   2.071   6.097  2.7124  0.8118 -1.0619
   80MOL   H25233590   7.054   2.248   5.926 -2.3531  0.7345 -0.6730
   80MOL   H25333591   6.959   2.142   6.020 -1.2611  1.0199 -2.1219
   80MOL   C25433592   7.179   2.083   6.001  0.3579 -0.4444 -0.1232
   80MOL   O25533593   7.277   2.101   5.896  0.3154 -0.2141 -0.4339
   80MOL   C25633594   7.353   1.990   5.868  0.2117  0.0216 -0.2158
   80MOL   O25733595   7.454   1.968   5.956 -0.7076  0.4416 -0.5617
   80MOL   C25833596   7.557   2.054   5.966  0.7783  0.5069  0.0882
   80MOL   C25933597   7.665   2.026   6.054 -0.8594  0.0702  0.3710
   80MOL   C26033598   7.775   2.111   6.081  0.5696 -0.0136 -0.7329
   80MOL   C26133599   7.764   2.242   6.037 -0.0684 -0.3477 -0.0685
   80MOL   C26233600   7.667   2.274   5.940  0.6150 -0.7346  0.9020
   80MOL   C26333601   7.563   2.182   5.907 -0.6529  0.1692  0.3170
   80MOL   C26433602   7.225   2.151   6.129 -0.2601 -0.2634 -0.3008
   80MOL   H26533603   7.174   1.976   6.022  0.9353 -0.6384 -0.9576
   80MOL   H26633604   7.373   2.011   5.763  1.3523 -2.1214 -0.4494
   80MOL   H26733605   7.286   1.904   5.866 -0.3749  0.4542  0.5680
   80MOL   H26833606   7.665   1.931   6.106 -0.9753 -0.3711 -0.4297
   80MOL   H26933607   7.850   2.092   6.156  0.5424 -1.8207 -1.1496
   80MOL   H27033608   7.843   2.308   6.070  1.0126 -1.4398 -0.3807
   80MOL   H27133609   7.661   2.370   5.891  0.4952 -1.4590 -0.5597
   80MOL   H27233610   7.487   2.207   5.833 -0.6281 -2.2816 -0.5674
   80MOL   H27333611   7.333   2.146   6.141 -0.2947  0.3776  0.2884
   80MOL   H27433612   7.195   2.255   6.132 -0.7550 -0.4346  1.0694
   80MOL   C27533613   7.158   2.092   6.250 -0.0117  0.0407 -0.0583
   80MOL   O27633614   7.221   1.979   6.282 -1.0119 -0.4179 -0.0249
   80MOL   C27733615   7.141   1.873   6.328 -0.8988  0.1343  0.4959
   80MOL   O27833616   7.067   1.810   6.222  0.3024 -0.3511  0.1159
   80MOL   C27933617   7.141   1.734   6.133 -0.0379  0.2368  0.7947
   80MOL   C28033618   7.068   1.661   6.037 -0.4808 -0.6267 -0.3006
   80MOL   C28133619   7.126   1.585   5.935 -0.1053 -0.0936 -0.4972
   80MOL   C28233620   7.262   1.572   5.942  0.1179  0.2112  0.1935
   80MOL   C28333621   7.342   1.648   6.024 -0.6746  0.2800 -0.8937
   80MOL   C28433622   7.284   1.730   6.128  0.2215 -0.0851 -0.0689
   80MOL   C28533623   7.147   2.182   6.375  0.2708 -1.0452 -0.7666
   80MOL   H28633624   7.055   2.062   6.227 -1.2009  2.1833  2.2331
   80MOL   H28733625   7.066   1.907   6.400 -2.2675 -2.5423  0.3965
   80MOL   H28833626   7.203   1.798   6.376  0.8618  0.1943 -1.6013
   80MOL   H28933627   6.960   1.670   6.036 -0.4275  0.1174  0.4460
   80MOL   H29033628   7.072   1.528   5.861  0.1127 -1.2046  0.1780
   80MOL   H29133629   7.306   1.519   5.858 -1.0131 -0.5551  0.0742
   80MOL   H29233630   7.449   1.636   6.022 -0.7930 -0.7237 -1.4575
   80MOL   H29333631   7.343   1.796   6.190 -2.5992  1.9573  0.5202
   80MOL   H29433632   7.245   2.191   6.421  0.3608 -0.4941 -1.0534
   80MOL   H29533633   7.086   2.131   6.449 -0.3642  1.3750  0.4235
   80MOL   C29633634   7.076   2.326   6.358 -0.3106  0.1475  0.4954
   80MOL   O29733635   6.966   2.299   6.265  0.2480  0.9369  0.0238
   80MOL   C29833636   6.897   2.408   6.208 -0.3617 -0.1152 -0.0242
   80MOL   O29933637   6.986   2.481   6.132 -0.5900 -0.4200 -0.0448
   80MOL   C30033638   6.938   2.547   6.023 -0.1025  0.4346  0.5103
   80MOL   C30133639   6.798   2.566   5.987 -0.0298  0.2541 -0.2942
   80MOL   C30233640   6.759   2.648   5.877  0.0498  0.1012  0.1330
   80MOL   C30333641   6.865   2.701   5.803 -0.3179  0.7103  0.6946
   80MOL   C30433642   7.004   2.673   5.826  0.5597 -0.2196 -0.4506
   80MOL   C30533643   7.041   2.601   5.939 -0.0564  0.4740  0.4195
   80MOL   C30633644   7.013   2.373   6.493  0.5520 -0.0400  0.2077
   80MOL   H30733645   7.148   2.396   6.315 -1.0028  0.3219 -0.4010
   80MOL   H30833646   6.844   2.462   6.287 -0.3511 -0.1004 -0.0271
   80MOL   H30933647   6.822   2.360   6.145 -0.2518  0.0072 -0.2462
   80MOL   H31033648   6.723   2.520   6.050  1.3347 -2.3626 -0.4948
   80MOL   H31133649   6.659   2.681   5.852 -0.3298 -2.0281 -1.3201
   80MOL   H31233650   6.842   2.770   5.723  1.2340  0.7510  0.2809
   80MOL   H31333651   7.072   2.721   5.757 -0.8150  1.3383 -0.7483
   80MOL   H31433652   7.144   2.586   5.969 -0.4552 -1.0786  1.0607
   80MOL   H31533653   6.938   2.300   6.523  0.7867 -0.0158  0.8774
   80MOL   H31633654   6.958   2.464   6.471  1.7853  0.9665  1.2028
   80MOL   C31733655   7.109   2.380   6.615  0.3119  0.5777  0.5986
   80MOL   O31833656   7.044   2.322   6.724  0.4638 -0.4272 -0.3525
   80MOL   C31933657   7.123   2.228   6.783  0.0820  0.0213 -0.5360
   80MOL   O32033658   7.059   2.165   6.885 -0.3600 -0.1302 -0.3976
   80MOL   C32133659   6.969   2.071   6.851 -0.4128  0.7665 -0.5346
   80MOL   C32233660   6.880   2.017   6.951 -0.6625  0.1080 -0.3211
   80MOL   C32333661   6.784   1.921   6.928 -0.0235  0.2000 -0.1872
   80MOL   C32433662   6.776   1.858   6.799  0.2805 -0.4760  0.1076
   80MOL   C32533663   6.870   1.902   6.702 -0.0235  0.1227 -0.2617
   80MOL   C32633664   6.953   2.015   6.718  0.0281 -0.9653  0.2854
   80MOL   C32733665   7.156   2.526   6.634 -0.5054 -0.2659 -0.3213
   80MOL   H32833666   7.202   2.339   6.575  0.2336 -0.0715  1.0740
   80MOL   H32933667   7.214   2.275   6.820 -0.5978  0.0672  1.1253
   80MOL   H33033668   7.164   2.153   6.715  1.2668  1.0515 -0.9706
   80MOL   H33133669   6.891   2.053   7.052 -2.2509  1.2616 -0.5406
   80MOL   H33233670   6.707   1.893   6.999  0.2490 -0.9119 -0.3098
   80MOL   H33333671   6.713   1.772   6.782  1.3371 -1.0061 -1.2764
   80MOL   H33433672   6.879   1.849   6.609  0.3622  0.6093 -0.5029
   80MOL   H33533673   7.014   2.048   6.636 -1.2393 -0.8809 -0.6406
   80MOL   H33633674   7.178   2.570   6.537 -0.5710 -1.5956 -0.9650
   80MOL   H33733675   7.073   2.585   6.672  1.4906  1.5194  1.3963
   80MOL   C33833676   7.276   2.537   6.725 -0.2388  0.3986 -0.3857
   80MOL   O33933677   7.389   2.462   6.684  0.2514  0.2494  0.1799
   80MOL   C34033678   7.458   2.498   6.565  0.5718  0.0570 -0.0962
   80MOL   O34133679   7.406   2.441   6.448  0.0016 -0.5717  0.1742
   80MOL   C34233680   7.414   2.522   6.336 -0.3664 -0.6752  0.2216
   80MOL   C34333681   7.441   2.458   6.211  0.0375  0.1352 -0.9657
   80MOL   C34433682   7.421   2.528   6.091  0.3410 -0.1525  0.0489
   80MOL   C34533683   7.389   2.662   6.094 -0.5177  0.0473  0.0777
   80MOL   C34633684   7.364   2.730   6.216  0.1675 -0.7295  0.0931
   80MOL   C34733685   7.383   2.659   6.334  0.2696 -0.1904 -0.1845
   80MOL   C34833686   7.310   2.681   6.757 -0.0274 -0.4146  0.0701
   80MOL   H34933687   7.246   2.497   6.822 -0.6639 -0.2306 -0.7778
   80MOL   H35033688   7.548   2.436   6.567  2.0772  2.2128  0.2391
   80MOL   H35133689   7.492   2.601   6.559  1.0156 -0.1052 -0.4271
   80MOL   H35233690   7.460   2.352   6.208 -3.0295 -0.4777 -0.7297
   80MOL   H35333691   7.429   2.468   6.002  1.1396  0.3530 -0.2260
   80MOL   H35433692   7.370   2.710   5.999 -0.4156  0.1701  0.1178
   80MOL   H35533693   7.325   2.831   6.224  0.2062 -0.6526 -0.6887
   80MOL   H35633694   7.389   2.717   6.425 -1.9494  2.6584 -1.7641
   80MOL   H35733695   7.219   2.735   6.783  0.6709  1.5500 -1.4744
   80MOL   H35833696   7.337   2.725   6.662 -0.4744  0.0179  0.1418
   80MOL   C35933697   7.414   2.702   6.865  0.6114  0.0227 -0.6616
   80MOL   O36033698   7.364   2.641   6.983  0.1344  0.3717  0.0852
   80MOL   C36133699   7.457   2.551   7.034 -0.1845 -0.0762 -0.1367
   80MOL   O36233700   7.579   2.617   7.075  0.6126 -0.2580 -0.1314
   80MOL   C36333701   7.583   2.673   7.201  0.2242 -0.1005 -0.4331
   80MOL   C36433702   7.468   2.703   7.284  0.4526  0.5473  1.2353
   80MOL   C36533703   7.489   2.770   7.407  0.6674  0.4262  0.4014
   80MOL   C36633704   7.616   2.798   7.454 -0.0877  0.0100 -0.1096
   80MOL   C36733705   7.730   2.771   7.379 -0.1715  0.4250 -0.2471
   80MOL   C36833706   7.712   2.707   7.252 -0.0849 -0.2061  0.0682
   80MOL   C36933707   7.419   2.854   6.905  0.1252 -0.0502 -0.5237
   80MOL   H37033708   7.509   2.657   6.837  1.1154  0.6527  0.0142
   80MOL   H37133709   7.486   2.472   6.965  0.1564 -0.3580  0.3326
   80MOL   H37233710   7.417   2.499   7.120 -0.3189  1.0012  0.4602
   80MOL   H37333711   7.367   2.688   7.248  0.8734  0.3791  0.1114
   80MOL   H37433712   7.416   2.791   7.484  0.7964  2.5002 -0.0296
   80MOL   H37533713   7.621   2.843   7.552 -0.5466  0.4354 -0.2808
   80MOL   H37633714   7.823   2.805   7.421  2.1125 -1.4866 -3.5249
   80MOL   H37733715   7.797   2.692   7.188 -1.0334 -1.5258 -0.9116
   80MOL   H37833716   7.476   2.857   6.998 -0.6118 -0.0793 -0.0670
   80MOL   H37933717   7.318   2.893   6.917  0.6325  2.2210 -3.0563
   80MOL   C38033718   7.497   2.946   6.795  0.1492  0.3869  0.0696
   80MOL   O38133719   7.412   2.974   6.679 -0.2016  0.0638 -0.1880
   80MOL   C38233720   7.335   3.090   6.692  0.8154  0.1160 -0.2003
   80MOL   O38333721   7.404   3.207   6.681 -1.0078 -0.1660  0.3587
   80MOL   C38433722   7.444   3.242   6.552  0.7852  1.3844  0.2853
   80MOL   C38533723   7.430   3.162   6.432 -0.4782 -0.6540 -1.2601
   80MOL   C38633724   7.456   3.215   6.307 -0.5394  0.2789  0.4875
   80MOL   C38733725   7.517   3.340   6.291 -0.1376  1.0207 -0.4581
   80MOL   C38833726   7.538   3.418   6.409  0.3103  0.3310  0.1346
   80MOL   C38933727   7.506   3.366   6.538  1.2651 -0.2987  0.5856
   80MOL   C39033728   7.628   2.882   6.744  0.1284  0.1731 -0.0290
   80MOL   H39133729   7.527   3.046   6.825  1.0970 -0.4321  1.9352
   80MOL   H39233730   7.264   3.075   6.611  0.3016 -1.8090  0.5822
   80MOL   H39333731   7.280   3.086   6.786  0.1751  0.1950 -0.5661
   80MOL   H39433732   7.393   3.061   6.443 -0.1089 -0.6159  0.6398
   80MOL   H39533733   7.448   3.151   6.221  2.0865  1.0429 -0.3613
   80MOL   H39633734   7.532   3.387   6.195  0.8896  0.5016 -0.5588
   80MOL   H39733735   7.580   3.516   6.392 -0.3653  0.9479  1.9318
   80MOL   H39833736   7.525   3.430   6.623 -2.1665 -0.9571  1.9423
   80MOL   H39933737   7.653   2.964   6.677  0.5360 -0.2383 -0.3834
   80MOL   H40033738   7.602   2.797   6.681  1.1845  0.4687 -0.8734
   80MOL   C40133739   7.736   2.860   6.845  0.3078  0.4567  0.2767
   80MOL   O40233740   7.857   2.823   6.781 -0.5895 -0.5879  0.2086
   80MOL   C40333741   7.950   2.753   6.860 -0.0948  0.2627 -0.0707
   80MOL   O40433742   7.885   2.631   6.892  0.0739  0.0487  0.3840
   80MOL   C40533743   7.953   2.523   6.942  0.4696 -0.3561 -0.4896
   80MOL   C40633744   7.870   2.410   6.970 -1.3536  0.1391 -0.5340
   80MOL   C40733745   7.933   2.292   7.020  0.4393 -0.0851  0.0399
   80MOL   C40833746   0.097   2.288   7.024  0.1873 -0.2330 -1.1132
   80MOL   C40933747   0.177   2.395   6.992 -0.2066  0.1724  0.2647
   80MOL   C41033748   0.117   2.519   6.962 -0.0077  0.1431 -0.3513
   80MOL   C41133749   7.762   2.988   6.928 -0.5418 -0.0677  0.7187
   80MOL   H41233750   7.701   2.781   6.911  2.5527 -1.7615 -1.1196
   80MOL   H41333751   0.005   2.814   6.946  1.6899 -0.9109  0.1581
   80MOL   H41433752   0.062   2.738   6.797  1.1010 -2.1528  2.0605
   80MOL   H41533753   7.764   2.415   6.953 -1.3998 -2.7073 -1.2878
   80MOL   H41633754   7.882   2.204   7.056  0.2677 -0.1509 -0.3644
   80MOL   H41733755   0.144   2.197   7.058 -0.7920 -0.2585  0.2492
   80MOL   H41833756   0.284   2.380   6.987 -0.2631 -1.0064  2.0601
   80MOL   H41933757   0.186   2.600   6.943  0.2017 -0.3294 -1.6288
   80MOL   H42033758   7.784   3.078   6.870 -1.9978  1.1680  2.0598
   80MOL   H42133759   7.844   2.972   6.998  0.4777  0.5984 -0.2902
   80MOL   H42233760   7.670   2.999   6.985 -0.6937  1.2770  0.2498
   81MOL     C133761   3.075   2.376   1.904  0.4132 -0.4836 -0.5195
   81MOL     O233762   3.065   2.266   1.817  0.5188  0.2208 -0.2498
   81MOL     C333763   2.970   2.297   1.720  0.4873 -0.3108  0.1007
   81MOL     O433764   3.018   2.380   1.621  0.1839  0.4197  0.9824
   81MOL     C533765   3.106   2.328   1.521  0.0818  0.0470 -0.5197
   81MOL     C633766   3.143   2.416   1.417 -0.7839 -0.4808  0.3105
   81MOL     C733767   3.218   2.375   1.310  0.3044  0.5074  0.0991
   81MOL     C833768   3.271   2.242   1.311 -0.3974 -0.1002  0.5448
   81MOL     C933769   3.242   2.150   1.418 -0.3234  0.1164 -0.4066
   81MOL    C1033770   3.155   2.194   1.521  0.7423 -0.3822 -0.0135
   81MOL    C1133771   3.191   2.328   2.001  0.2006  0.7873  0.3078
   81MOL    H1233772   3.099   2.465   1.846  1.4316  0.2044  0.9068
   81MOL    H1333773   2.942   2.202   1.674 -0.5967 -0.5188  1.1776
   81MOL    H1433774   2.878   2.332   1.765 -0.5438 -2.1813 -0.4825
   81MOL    H1533775   3.094   2.512   1.412 -2.4427 -1.1921  2.2864
   81MOL    H1633776   3.227   2.441   1.225  0.1672  0.5743  0.1367
   81MOL    H1733777   3.343   2.223   1.233  0.7566  1.4436  1.2181
   81MOL    H1833778   3.279   2.048   1.421  3.1611  1.3530  2.1990
   81MOL    H1933779   3.119   2.119   1.590 -3.0426 -0.0222 -1.4795
   81MOL    H2033780   3.206   2.403   2.079 -2.5427  1.3453  0.3276
   81MOL    H2133781   3.282   2.314   1.942 -0.1338  2.2998 -0.6055
   81MOL    H2233782   2.979   2.403   1.951 -0.7121 -2.6633 -1.4965
   81MOL    C2333783   3.141   2.208   2.077  0.4084  0.4069 -1.2078
   81MOL    O2433784   3.060   2.264   2.181  0.0170 -0.2439 -0.4886
   81MOL    C2533785   2.954   2.179   2.230  0.7166  0.4359 -0.9318
   81MOL    O2633786   2.848   2.175   2.138  0.1204  0.2753 -0.3901
   81MOL    C2733787   2.843   2.074   2.050  0.3642  0.0544  0.6768
   81MOL    C2833788   2.745   2.092   1.953  0.6373  0.1777  0.2253
   81MOL    C2933789   2.730   2.004   1.840  0.0187 -0.4857 -0.3244
   81MOL    C3033790   2.796   1.879   1.838 -0.1914  0.0256  0.4103
   81MOL    C3133791   2.875   1.851   1.950 -0.3605  0.0319 -0.1980
   81MOL    C3233792   2.905   1.949   2.050 -0.7905 -0.3992 -0.0412
   81MOL    C3333793   3.268   2.142   2.142  0.2033  0.5808  0.4357
   81MOL    H3433794   3.095   2.133   2.014 -0.5985 -0.2122  0.2502
   81MOL    H3533795   2.914   2.225   2.320 -0.2632 -2.2531  0.0658
   81MOL    H3633796   2.988   2.082   2.266  0.0038  0.6114  0.2277
   81MOL    H3733797   2.684   2.180   1.960  0.9016  0.5083 -1.4006
   81MOL    H3833798   2.668   2.042   1.760  1.3932 -0.1158 -1.2282
   81MOL    H3933799   2.785   1.811   1.754 -0.5622  2.1566 -1.3139
   81MOL    H4033800   2.933   1.759   1.950  0.5241  0.5851  0.4853
   81MOL    H4133801   2.978   1.926   2.126 -0.7490 -0.2569 -0.0368
   81MOL    H4233802   3.236   2.088   2.231 -1.3340 -1.3492 -1.2375
   81MOL    H4333803   3.325   2.225   2.184 -1.7564  1.7904  0.7493
   81MOL    C4433804   3.357   2.048   2.052 -1.2355  0.1760 -0.6014
   81MOL    O4533805   3.281   1.929   2.032  0.3709  0.3489  0.0493
   81MOL    C4633806   3.243   1.894   1.905  0.0181 -0.3685  0.3034
   81MOL    O4733807   3.339   1.902   1.814  0.0495 -0.0092 -0.5959
   81MOL    C4833808   3.295   1.858   1.685  0.6864 -0.2836  0.0740
   81MOL    C4933809   3.162   1.827   1.643  0.0126  0.1506 -0.3088
   81MOL    C5033810   3.148   1.793   1.509 -0.3991 -1.5420 -0.0855
   81MOL    C5133811   3.257   1.777   1.422 -0.0083  0.6226 -0.1075
   81MOL    C5233812   3.390   1.786   1.471 -0.1965 -0.1181  0.8242
   81MOL    C5333813   3.406   1.843   1.597 -0.2391  0.5491 -0.0010
   81MOL    C5433814   3.492   2.016   2.130  0.6391 -0.3135  0.7399
   81MOL    H5533815   3.391   2.106   1.966  2.6329  1.8882  1.9523
   81MOL    H5633816   3.153   1.949   1.877 -0.3517  0.3316  2.7199
   81MOL    H5733817   3.212   1.790   1.910  3.8300 -1.6276 -0.1871
   81MOL    H5833818   3.074   1.838   1.704  0.2031  1.4734 -0.2588
   81MOL    H5933819   3.052   1.798   1.460 -0.4849 -3.4675 -0.1694
   81MOL    H6033820   3.228   1.749   1.322 -0.9468 -0.1569  0.3675
   81MOL    H6133821   3.473   1.770   1.404 -1.0411  0.1173 -0.2983
   81MOL    H6233822   3.502   1.879   1.631 -0.0365 -0.2344  0.2513
   81MOL    H6333823   3.532   2.114   2.153 -2.8666  0.9658  1.6118
   81MOL    H6433824   3.472   1.959   2.221 -0.8997  1.1306  1.3147
   81MOL    C6533825   3.586   1.950   2.031  0.1941  0.1380 -0.0307
   81MOL    O6633826   3.707   2.024   2.015 -0.1371 -0.6549 -1.0201
   81MOL    C6733827   3.757   2.047   1.887 -0.5846  0.0042 -0.2040
   81MOL    O6833828   3.660   2.093   1.799  0.4878 -0.0817  0.1755
   81MOL    C6933829   3.603   2.223   1.807 -0.2685  0.1757 -0.1111
   81MOL    C7033830   3.636   2.317   1.894  0.3409 -0.3820 -0.2449
   81MOL    C7133831   3.576   2.446   1.892 -0.8439  0.7222  0.6565
   81MOL    C7233832   3.476   2.477   1.798 -0.4098  0.3721 -0.2315
   81MOL    C7333833   3.434   2.370   1.707  0.1913 -0.5083  0.2449
   81MOL    C7433834   3.493   2.245   1.716 -0.3122  0.2348 -0.3716
   81MOL    C7533835   3.617   1.808   2.087  0.6498 -0.1767 -0.0229
   81MOL    H7633836   3.543   1.939   1.931 -1.1914 -2.4496  0.8091
   81MOL    H7733837   3.792   1.956   1.837 -0.1395  1.1694 -2.0599
   81MOL    H7833838   3.840   2.118   1.889 -1.7707  1.5010 -2.1571
   81MOL    H7933839   3.720   2.301   1.959  0.5206 -0.3906 -0.4777
   81MOL    H8033840   3.611   2.517   1.965 -0.5910 -0.0455  1.2950
   81MOL    H8133841   3.432   2.576   1.803 -1.2047 -0.0502  1.7309
   81MOL    H8233842   3.355   2.387   1.635  0.0745 -3.3389 -0.3577
   81MOL    H8333843   3.454   2.166   1.653 -0.0103 -0.5936  0.4643
   81MOL    H8433844   3.671   1.821   2.181  0.4494  1.5125 -0.1305
   81MOL    H8533845   3.519   1.764   2.107  0.4350 -0.9780 -2.6878
   81MOL    C8633846   3.694   1.706   2.006 -0.6485 -0.0716  0.2244
   81MOL    O8733847   3.690   1.583   2.081  0.4805  0.4576 -0.0412
   81MOL    C8833848   3.811   1.551   2.137  0.1502  0.5241 -0.7365
   81MOL    O8933849   3.856   1.629   2.239 -0.2083  0.0093 -0.1474
   81MOL    C9033850   3.793   1.631   2.364 -0.5885  0.2624 -0.3757
   81MOL    C9133851   3.677   1.550   2.398  0.3301 -0.1532 -0.6273
   81MOL    C9233852   3.607   1.572   2.522 -0.2135  0.8277 -0.8087
   81MOL    C9333853   3.666   1.662   2.611 -0.2195 -0.2994 -0.0903
   81MOL    C9433854   3.783   1.733   2.589  0.5352  0.3619  0.3793
   81MOL    C9533855   3.838   1.726   2.461  0.1041  0.1085 -0.5117
   81MOL    C9633856   3.623   1.696   1.867  0.4125  0.3100 -0.1227
   81MOL    H9733857   3.799   1.730   1.991 -0.5545 -0.1579  0.7273
   81MOL    H9833858   3.881   1.548   2.054 -1.3995 -0.3512 -2.0448
   81MOL    H9933859   3.815   1.445   2.164  1.3827  0.5910 -0.6507
   81MOL   H10033860   3.643   1.480   2.323 -1.5946  0.6747 -0.5713
   81MOL   H10133861   3.521   1.514   2.554  0.7047 -1.2847 -2.0965
   81MOL   H10233862   3.615   1.690   2.702 -1.6151  3.0799 -1.8363
   81MOL   H10333863   3.818   1.809   2.657 -1.9207  1.5253  0.3776
   81MOL   H10433864   3.922   1.792   2.443  0.3629 -0.5071 -1.6361
   81MOL   H10533865   3.514   1.690   1.861  0.5294 -1.0786 -1.1007
   81MOL   H10633866   3.644   1.798   1.835  0.1742  0.8403  1.3697
   81MOL   C10733867   3.683   1.595   1.774  0.4303 -0.2243 -0.3994
   81MOL   O10833868   3.816   1.592   1.783 -1.0651 -0.6396 -0.1335
   81MOL   C10933869   3.887   1.702   1.731  0.5765  0.7457 -0.8404
   81MOL   O11033870   3.980   1.752   1.829  0.5036  0.2258  0.3157
   81MOL   C11133871   4.096   1.679   1.850 -0.0843  0.1515  0.0171
   81MOL   C11233872   4.195   1.732   1.937  0.2452  0.6185 -0.5056
   81MOL   C11333873   4.320   1.667   1.958  0.1065  0.3016 -0.1498
   81MOL   C11433874   4.349   1.554   1.878 -0.0582 -0.0470 -0.4304
   81MOL   C11533875   4.262   1.510   1.780 -0.1267  0.4388  0.7080
   81MOL   C11633876   4.137   1.571   1.765  0.5016 -0.0965  0.3447
   81MOL   C11733877   3.623   1.450   1.792 -0.3079 -0.0661  0.3520
   81MOL   H11833878   3.654   1.617   1.671  0.9097 -1.4184 -0.8117
   81MOL   H11933879   3.813   1.771   1.691 -2.7416 -1.6269  0.9220
   81MOL   H12033880   3.949   1.684   1.643  1.1689 -2.3595  0.1437
   81MOL   H12133881   4.161   1.818   1.993 -1.4479  0.6959 -1.6221
   81MOL   H12233882   4.384   1.699   2.039 -0.6062  0.3860  0.3857
   81MOL   H12333883   4.440   1.502   1.902 -0.1056 -0.0708 -0.3037
   81MOL   H12433884   4.293   1.422   1.727  0.1980  1.1402 -0.2969
   81MOL   H12533885   4.075   1.518   1.694 -1.0335  1.2426  0.6612
   81MOL   H12633886   3.517   1.450   1.817 -0.5330  0.9447 -0.5397
   81MOL   H12733887   3.681   1.400   1.869 -0.1022  1.5615  1.2755
   81MOL   C12833888   3.618   1.370   1.658  0.1986  0.0483  0.5145
   81MOL   O12933889   3.511   1.411   1.570  0.1016 -0.1441 -0.1103
   81MOL   C13033890   3.534   1.420   1.437  0.2217  0.2263  0.7412
   81MOL   O13133891   3.591   1.542   1.411 -0.0425 -0.4362 -0.2366
   81MOL   C13233892   3.651   1.564   1.293  0.0464 -0.2915 -0.2936
   81MOL   C13333893   3.747   1.666   1.294  0.0248  0.1667 -0.0711
   81MOL   C13433894   3.831   1.686   1.182  0.1815  0.9564  0.1423
   81MOL   C13533895   3.814   1.606   1.069  0.5616 -0.1608  0.0842
   81MOL   C13633896   3.716   1.505   1.063  0.2329  0.6888 -0.3951
   81MOL   C13733897   3.634   1.484   1.176  0.2978 -0.0188 -0.3398
   81MOL   C13833898   3.602   1.219   1.670 -0.0685  1.1266 -0.3073
   81MOL   H13933899   3.705   1.395   1.596 -0.0272  0.4421  0.3569
   81MOL   H14033900   3.447   1.412   1.372 -0.1891 -0.0519  1.3106
   81MOL   H14133901   3.600   1.338   1.406 -0.5627 -0.6980  1.4690
   81MOL   H14233902   3.762   1.714   1.390 -2.3048  0.1445  0.3443
   81MOL   H14333903   3.915   1.755   1.180  0.8107  0.1817 -0.7570
   81MOL   H14433904   3.877   1.616   0.982  0.6823 -0.4718  0.1338
   81MOL   H14533905   3.706   1.439   0.978  2.5409 -0.2521  0.0438
   81MOL   H14633906   3.560   1.405   1.167  0.7458 -0.2183 -2.5970
   81MOL   H14733907   3.602   1.176   1.570 -1.6132 -0.4627  0.3527
   81MOL   H14833908   3.700   1.183   1.700 -0.6668  1.5515  2.2255
   81MOL   C14933909   3.484   1.152   1.758  0.0095 -0.2257  0.5668
   81MOL   O15033910   3.536   1.176   1.884 -0.5240  0.2118 -0.0116
   81MOL   C15133911   3.508   1.098   1.996 -0.6320 -0.0933  0.6951
   81MOL   O15233912   3.377   1.103   2.038 -0.0547  0.1820  0.0587
   81MOL   C15333913   3.327   1.218   2.089  0.4130  0.7277 -0.8506
   81MOL   C15433914   3.213   1.194   2.166 -0.1171 -0.3337  0.5468
   81MOL   C15533915   3.146   1.311   2.217 -0.3827  0.7349 -0.3575
   81MOL   C15633916   3.212   1.433   2.209 -0.2478 -0.5285  0.4164
   81MOL   C15733917   3.339   1.456   2.148 -0.4772  0.0158 -0.5980
   81MOL   C15833918   3.386   1.345   2.075 -0.8422 -0.7616  0.0267
   81MOL   C15933919   3.345   1.220   1.736 -0.1563 -0.0839  0.4263
   81MOL   H16033920   3.493   1.046   1.734 -1.8802 -0.4114  0.6107
   81MOL   H16133921   3.532   0.997   1.963  2.9561  0.2793  1.9774
   81MOL   H16233922   3.571   1.126   2.080 -0.4850 -2.1613  1.3143
   81MOL   H16333923   3.166   1.098   2.183 -0.9598  0.2143  1.3987
   81MOL   H16433924   3.055   1.294   2.273  0.0886  1.0702  0.5247
   81MOL   H16533925   3.156   1.510   2.261  1.9260  0.2206  1.7026
   81MOL   H16633926   3.401   1.544   2.142  0.5794 -0.6892 -0.0807
   81MOL   H16733927   3.482   1.360   2.029  0.1664 -0.2466  2.2159
   81MOL   H16833928   3.356   1.328   1.746 -3.2146  0.2427  1.0187
   81MOL   H16933929   3.271   1.192   1.811  0.2366 -0.1921  0.7758
   81MOL   C17033930   3.284   1.169   1.605  0.1142 -0.2497  0.4933
   81MOL   O17133931   3.194   1.061   1.615 -0.2441 -0.1535 -0.3420
   81MOL   C17233932   3.248   0.930   1.616  0.0289  0.0424 -0.0753
   81MOL   O17333933   3.328   0.899   1.503  1.0689 -0.6921 -0.3002
   81MOL   C17433934   3.263   0.821   1.413  0.3178  0.4422  0.0208
   81MOL   C17533935   3.322   0.717   1.346 -0.2000  0.2686  1.0818
   81MOL   C17633936   3.246   0.628   1.261  0.3951 -0.2330 -0.2203
   81MOL   C17733937   3.114   0.644   1.241 -0.3365 -0.0673  0.1554
   81MOL   C17833938   3.056   0.764   1.295 -0.8126 -0.3224  0.1165
   81MOL   C17933939   3.126   0.843   1.391  0.1801 -0.3778  0.1275
   81MOL   C18033940   3.192   1.274   1.538  0.0235 -0.3850 -0.1918
   81MOL   H18133941   3.371   1.145   1.544  0.0638  0.9916 -0.0914
   81MOL   H18233942   3.165   0.865   1.645  1.5586 -2.2305 -0.6251
   81MOL   H18333943   3.310   0.924   1.706  1.0860 -0.7525 -0.8408
   81MOL   H18433944   3.424   0.705   1.377 -0.5622 -1.3421  1.7084
   81MOL   H18533945   3.301   0.550   1.210  0.6200 -1.1905  1.4310
   81MOL   H18633946   3.063   0.571   1.180  0.3001  0.6501 -1.2894
   81MOL   H18733947   2.952   0.786   1.274 -0.9939 -1.0047  0.2921
   81MOL   H18833948   3.077   0.918   1.451 -1.9980 -1.8499  0.2278
   81MOL   H18933949   3.106   1.290   1.603 -0.4344  0.6907 -1.0418
   81MOL   H19033950   3.255   1.363   1.550 -0.7183  0.0417  0.6219
   81MOL   C19133951   3.161   1.234   1.394  0.0816 -0.2237 -0.5789
   81MOL   O19233952   3.269   1.256   1.305  0.5096  0.1005  0.2545
   81MOL   C19333953   3.315   1.139   1.249 -0.4958  0.1399 -0.1523
   81MOL   O19433954   3.416   1.174   1.165  0.7555  0.8229 -0.2269
   81MOL   C19533955   3.472   1.073   1.094 -0.3200 -0.2902 -0.2645
   81MOL   C19633956   3.428   0.940   1.077 -0.0279  1.0341 -0.2374
   81MOL   C19733957   3.502   0.847   0.998 -0.7616  0.3977  0.6224
   81MOL   C19833958   3.617   0.889   0.931  0.5551 -0.4313 -0.4225
   81MOL   C19933959   3.654   1.025   0.940  0.5467  0.9474 -0.1392
   81MOL   C20033960   3.589   1.114   1.021 -0.8497  0.5952  0.7423
   81MOL   C20133961   3.058   1.337   1.334  0.1874 -0.2792 -0.9332
   81MOL   H20233962   3.118   1.135   1.379  0.5562 -0.4232 -0.6356
   81MOL   H20333963   3.236   1.075   1.210 -0.7508 -1.5100  2.9525
   81MOL   H20433964   3.363   1.089   1.333  0.7457  1.1843 -0.2256
   81MOL   H20533965   3.338   0.905   1.125 -0.2180  1.1681 -0.4969
   81MOL   H20633966   3.473   0.743   0.994 -2.3386  0.8437  0.0411
   81MOL   H20733967   3.666   0.809   0.878  0.3136  0.4371 -1.9831
   81MOL   H20833968   3.752   1.060   0.913  1.5506 -1.7066 -0.1232
   81MOL   H20933969   3.625   1.216   1.031  0.7320 -0.0088  1.3221
   81MOL   H21033970   3.097   1.436   1.359  0.2170 -0.4639 -0.2213
   81MOL   H21133971   3.046   1.349   1.227 -1.2583 -1.5410 -0.9371
   81MOL   C21233972   2.915   1.317   1.394 -0.5529 -0.2265  0.2313
   81MOL   O21333973   2.837   1.431   1.361 -0.0309 -0.1712 -0.0004
   81MOL   C21433974   2.803   1.516   1.465 -0.5230  0.5775  0.0361
   81MOL   O21533975   2.911   1.576   1.534 -0.4106  0.3635 -0.1022
   81MOL   C21633976   2.928   1.539   1.662 -0.1799 -0.0059  0.3886
   81MOL   C21733977   2.820   1.523   1.754  0.0280  0.5753 -0.1330
   81MOL   C21833978   2.837   1.478   1.888  0.3721  0.0073  0.0471
   81MOL   C21933979   2.966   1.466   1.938 -0.0045 -0.3254  0.0177
   81MOL   C22033980   3.070   1.479   1.849  0.1817 -0.6765 -0.0135
   81MOL   C22133981   3.055   1.521   1.714  0.5184  0.4144 -0.3723
   81MOL   C22233982   2.840   1.195   1.336  0.0304 -0.1222  0.1317
   81MOL   H22333983   2.915   1.315   1.503 -0.0457 -0.0130  0.2388
   81MOL   H22433984   2.739   1.455   1.530 -0.4018 -0.0588 -0.4348
   81MOL   H22533985   2.727   1.587   1.433 -0.1268  2.2188  2.5265
   81MOL   H22633986   2.717   1.536   1.724 -0.8937 -1.9890  1.7643
   81MOL   H22733987   2.744   1.454   1.938 -1.0054  2.1068 -1.4205
   81MOL   H22833988   2.985   1.433   2.039 -1.6725  0.5239  0.6273
   81MOL   H22933989   3.169   1.463   1.888 -0.9658 -0.3269  3.2403
   81MOL   H23033990   3.141   1.523   1.649  2.2278 -1.1657  1.7864
   81MOL   H23133991   2.804   1.213   1.234 -0.7943 -1.7488  0.1314
   81MOL   H23233992   2.896   1.103   1.323 -0.3444 -0.0783 -2.0790
   81MOL   C23333993   2.704   1.159   1.407 -0.0862 -0.3837 -0.2407
   81MOL   O23433994   2.632   1.275   1.414 -0.2688 -0.2996  0.2285
   81MOL   C23533995   2.512   1.280   1.493  1.1536 -0.1731  0.3818
   81MOL   O23633996   2.503   1.407   1.546 -0.2123  0.2318 -0.7081
   81MOL   C23733997   2.422   1.493   1.481 -0.4042 -0.0625 -0.6079
   81MOL   C23833998   2.370   1.599   1.556  0.3584  0.0007 -0.6389
   81MOL   C23933999   2.303   1.709   1.497 -0.1225 -0.0459  0.5484
   81MOL   C24034000   2.271   1.699   1.358 -0.2569  0.0034  0.5839
   81MOL   C24134001   2.310   1.590   1.278 -0.5627 -0.0677 -0.7698
   81MOL   C24234002   2.396   1.491   1.342  0.6710 -0.2591  1.2333
   81MOL   C24334003   2.615   1.043   1.351 -0.2380  1.0048  0.9085
   81MOL   H24434004   2.732   1.142   1.511 -0.4999 -0.4461 -0.1382
   81MOL   H24534005   2.537   1.215   1.577 -2.6954  1.0951  2.6527
   81MOL   H24634006   2.433   1.237   1.430  0.1321  0.2341  1.3649
   81MOL   H24734007   2.391   1.609   1.662 -1.9449  1.1124 -0.2525
   81MOL   H24834008   2.291   1.799   1.555 -0.4978 -1.4452  2.7243
   81MOL   H24934009   2.233   1.780   1.297  1.5506  0.3312 -0.1299
   81MOL   H25034010   2.288   1.584   1.172 -2.0871 -1.1828 -0.4093
   81MOL   H25134011   2.440   1.410   1.285 -1.2005  0.0682 -0.7418
   81MOL   H25234012   2.521   1.031   1.404 -0.3694  0.1560  0.4901
   81MOL   H25334013   2.584   1.079   1.253 -2.3759  0.7675  1.4724
   81MOL   C25434014   2.687   0.905   1.358 -0.2546  0.2790 -0.8741
   81MOL   O25534015   2.696   0.900   1.495 -0.1343  0.3126  0.5722
   81MOL   C25634016   2.775   0.798   1.560  0.7212  0.0493 -0.4484
   81MOL   O25734017   2.753   0.782   1.696 -0.3954  0.2128 -0.2657
   81MOL   C25834018   2.814   0.874   1.777 -0.1415 -0.0065 -0.2886
   81MOL   C25934019   2.791   0.861   1.913  0.1691 -0.1635  0.0145
   81MOL   C26034020   2.844   0.944   2.005  0.5799  0.1332  0.0399
   81MOL   C26134021   2.932   1.045   1.963  0.6206 -0.3723  0.2043
   81MOL   C26234022   2.942   1.075   1.831  0.4678 -0.3585  0.3266
   81MOL   C26334023   2.890   0.986   1.738 -0.5895 -0.4026  0.2307
   81MOL   C26434024   2.605   0.793   1.298  0.3505  0.4626  0.4821
   81MOL   H26534025   2.788   0.917   1.320 -0.8307  0.2665 -2.4473
   81MOL   H26634026   2.881   0.810   1.537  0.8768  0.6058  0.5478
   81MOL   H26734027   2.742   0.702   1.520 -2.3374 -0.5370  3.2050
   81MOL   H26834028   2.736   0.774   1.948 -0.8054  0.8142  0.9313
   81MOL   H26934029   2.819   0.918   2.108 -2.1047 -0.6359 -0.7536
   81MOL   H27034030   2.980   1.110   2.035 -2.5933  1.4662  0.8054
   81MOL   H27134031   3.005   1.159   1.806 -1.5856  0.6303 -1.6960
   81MOL   H27234032   2.900   1.018   1.635 -1.8771 -0.5427  0.0458
   81MOL   H27334033   2.643   0.694   1.325  0.7472  0.3263 -0.5537
   81MOL   H27434034   2.507   0.798   1.345 -0.6183  1.7740 -1.5931
   81MOL   C27534035   2.609   0.807   1.146 -0.0709  0.2632  0.4176
   81MOL   O27634036   2.728   0.750   1.102  0.1535  0.2507 -0.1726
   81MOL   C27734037   2.796   0.805   0.996  0.3481 -0.2124  0.0537
   81MOL   O27834038   2.872   0.899   1.054 -0.4439  0.3575 -0.0191
   81MOL   C27934039   2.947   0.979   0.968  0.5467  0.0682 -0.9851
   81MOL   C28034040   3.002   1.101   1.022 -0.2761 -0.5607  0.2584
   81MOL   C28134041   3.088   1.180   0.952 -0.0741 -0.0685  0.8461
   81MOL   C28234042   3.123   1.140   0.820  0.1837  0.0508 -0.5032
   81MOL   C28334043   3.073   1.021   0.766 -0.4538 -0.1457  0.1769
   81MOL   C28434044   2.984   0.946   0.839  0.2344 -0.1426 -0.5391
   81MOL   C28534045   2.492   0.730   1.088  0.2874 -0.4654  0.1578
   81MOL   H28634046   2.620   0.913   1.120  1.3447  0.4849  1.8780
   81MOL   H28734047   2.738   0.838   0.910  2.2119 -2.1049 -1.9858
   81MOL   H28834048   2.850   0.721   0.955 -1.8908 -1.8883  0.4538
   81MOL   H28934049   2.977   1.132   1.122  1.6296  0.2659  0.5023
   81MOL   H29034050   3.122   1.274   0.993  0.4743  0.0224  0.2063
   81MOL   H29134051   3.197   1.181   0.753 -0.0122  2.3993  0.6382
   81MOL   H29234052   3.106   0.991   0.668 -0.3294  1.2557 -0.2217
   81MOL   H29334053   2.953   0.852   0.797 -0.4526 -0.5905  0.9191
   81MOL   H29434054   2.455   0.664   1.166 -0.1478  0.1672  0.4917
   81MOL   H29534055   2.531   0.663   1.011  0.9519  1.4887 -1.2471
   81MOL   C29634056   2.373   0.820   1.035  0.5272 -0.4215 -0.2463
   81MOL   O29734057   2.264   0.722   1.023 -0.0589 -0.1721 -0.4992
   81MOL   C29834058   2.270   0.625   0.920  0.1056 -0.1584  0.1456
   81MOL   O29934059   2.333   0.506   0.960  0.4800  0.0888 -0.0864
   81MOL   C30034060   2.272   0.423   1.052  0.8626  0.4362  0.2269
   81MOL   C30134061   2.340   0.302   1.078 -0.1889  0.0192  0.1454
   81MOL   C30234062   2.300   0.216   1.177 -0.5567  0.3295  0.5157
   81MOL   C30334063   2.180   0.245   1.251 -0.2022  0.1238  0.1394
   81MOL   C30434064   2.100   0.355   1.218 -0.1836  0.0664 -0.2212
   81MOL   C30534065   2.153   0.449   1.126 -0.4094 -0.4591  0.7391
   81MOL   C30634066   2.327   0.918   1.140  0.0419 -0.2803 -0.5181
   81MOL   H30734067   2.395   0.858   0.935 -0.2306 -0.4058 -0.4110
   81MOL   H30834068   2.327   0.661   0.834 -0.1477  0.3468  0.1831
   81MOL   H30934069   2.170   0.596   0.890  0.0186 -0.3234  0.5978
   81MOL   H31034070   2.425   0.276   1.017 -0.1893 -0.1980  0.2342
   81MOL   H31134071   2.364   0.134   1.204 -0.2949  1.3493  3.1216
   81MOL   H31234072   2.143   0.184   1.333  0.1888  0.7277  0.7680
   81MOL   H31334073   2.013   0.379   1.277  0.0102 -2.1484  1.0267
   81MOL   H31434074   2.097   0.541   1.122 -0.1171 -0.3582 -1.4390
   81MOL   H31534075   2.415   0.967   1.182 -0.1235  0.3639 -0.9163
   81MOL   H31634076   2.283   0.856   1.217 -0.8032  1.2158  0.2246
   81MOL   C31734077   2.236   1.037   1.104  0.3256 -0.1057  0.8646
   81MOL   O31834078   2.311   1.114   1.008 -0.0754  0.5038 -0.2095
   81MOL   C31934079   2.236   1.204   0.925 -0.0130 -0.4516 -0.2685
   81MOL   O32034080   2.151   1.131   0.842 -0.2439  0.0162  0.1886
   81MOL   C32134081   2.206   1.029   0.762 -0.0455 -0.6419  0.1486
   81MOL   C32234082   2.119   0.928   0.726 -0.1674  0.2937  0.3006
   81MOL   C32334083   2.164   0.816   0.650  0.2367 -0.9154  0.0719
   81MOL   C32434084   2.299   0.811   0.620  0.4055 -0.4057  0.4446
   81MOL   C32534085   2.390   0.907   0.660 -0.2874 -0.1393 -0.2578
   81MOL   C32634086   2.344   1.017   0.732  0.0467 -0.3396 -0.6829
   81MOL   C32734087   2.199   1.137   1.218 -0.8470 -0.0322 -0.0339
   81MOL   H32834088   2.146   0.991   1.064  0.1217  0.8842  0.1658
   81MOL   H32934089   2.302   1.258   0.857  0.1023 -0.3757 -0.0958
   81MOL   H33034090   2.197   1.281   0.990  0.9776 -0.2906  0.1391
   81MOL   H33134091   2.014   0.935   0.752 -1.0919 -0.6855 -2.8982
   81MOL   H33234092   2.096   0.736   0.625 -0.9314 -0.4858  1.7180
   81MOL   H33334093   2.327   0.722   0.566 -2.0699 -1.0517  0.1613
   81MOL   H33434094   2.493   0.903   0.628 -0.4693  0.3842 -0.9210
   81MOL   H33534095   2.407   1.096   0.769 -1.6719 -0.1405  1.9213
   81MOL   H33634096   2.282   1.208   1.218 -1.7270  1.0049 -0.3059
   81MOL   H33734097   2.106   1.186   1.191 -0.8448  0.9483  1.6502
   81MOL   C33834098   2.165   1.088   1.356  0.2566 -0.5256 -0.3621
   81MOL   O33934099   2.290   1.044   1.416  0.1487 -0.0589  0.0708
   81MOL   C34034100   2.277   0.948   1.517 -0.9914  0.0637  0.1377
   81MOL   O34134101   2.254   0.820   1.457  0.2852 -0.1998  0.3452
   81MOL   C34234102   2.319   0.715   1.515 -0.4844 -0.3445  0.0242
   81MOL   C34334103   2.318   0.591   1.439  0.4487  0.2889  0.0292
   81MOL   C34434104   2.371   0.477   1.503 -0.4013  0.3847  0.1963
   81MOL   C34534105   2.412   0.482   1.635  0.0590 -0.5735  0.4186
   81MOL   C34634106   2.413   0.601   1.704 -0.3794 -0.1613 -0.6473
   81MOL   C34734107   2.369   0.720   1.648  0.6819  0.5862 -0.6079
   81MOL   C34834108   2.112   1.207   1.441 -0.1013  0.5351 -0.2557
   81MOL   H34934109   2.092   1.009   1.342 -1.3057  1.2281 -2.2331
   81MOL   H35034110   2.207   0.981   1.594 -0.5596 -0.7410  0.8792
   81MOL   H35134111   2.383   0.957   1.544 -0.8586 -1.7723  0.2693
   81MOL   H35234112   2.261   0.586   1.348  0.1252 -3.4731  0.3488
   81MOL   H35334113   2.367   0.387   1.444 -2.3710  0.9762 -0.6327
   81MOL   H35434114   2.445   0.390   1.681  1.8622 -0.3008 -0.2746
   81MOL   H35534115   2.454   0.606   1.804 -0.3181  0.3765 -0.6954
   81MOL   H35634116   2.377   0.809   1.708 -0.1442  1.0077 -1.1062
   81MOL   H35734117   2.055   1.268   1.372 -0.8004 -0.3542 -0.4763
   81MOL   H35834118   2.198   1.258   1.485  1.3495 -3.5579  2.0001
   81MOL   C35934119   2.010   1.170   1.543  0.2359 -0.0290 -0.0300
   81MOL   O36034120   1.898   1.101   1.486  0.2053  0.3405 -0.0322
   81MOL   C36134121   1.841   0.999   1.565 -0.3397 -0.4096  0.5541
   81MOL   O36234122   1.930   0.884   1.578  0.5858 -0.2699 -0.4224
   81MOL   C36334123   1.874   0.759   1.600 -0.1343  0.7251  0.4176
   81MOL   C36434124   1.739   0.740   1.639  0.0968  0.0435  0.1845
   81MOL   C36534125   1.687   0.613   1.666  0.3566  0.1931 -0.3605
   81MOL   C36634126   1.767   0.494   1.652 -0.2247 -0.5106  0.2311
   81MOL   C36734127   1.897   0.515   1.606 -0.0727 -0.7354 -0.6825
   81MOL   C36834128   1.958   0.638   1.580  0.1150 -0.0950 -0.0426
   81MOL   C36934129   1.935   1.292   1.600  0.3890  0.2830  0.2740
   81MOL   H37034130   2.050   1.119   1.631  1.6170  2.6757  0.9733
   81MOL   H37134131   1.757   0.971   1.501 -0.3313  0.8471 -0.0275
   81MOL   H37234132   1.804   1.037   1.660  0.8715  1.6129  0.2499
   81MOL   H37334133   1.681   0.828   1.660  0.1168 -0.0144  0.4835
   81MOL   H37434134   1.589   0.589   1.705 -0.0200  0.0402 -1.3977
   81MOL   H37534135   1.721   0.400   1.680 -0.0345 -0.3565  1.0643
   81MOL   H37634136   1.953   0.423   1.596  1.2909  0.1678 -1.5477
   81MOL   H37734137   2.058   0.623   1.543 -0.3168 -2.3146 -0.3745
   81MOL   H37834138   1.854   1.264   1.666  1.0813  2.2405  1.9895
   81MOL   H37934139   1.886   1.338   1.514  2.0079 -2.7977 -2.4320
   81MOL   C38034140   2.004   1.407   1.677  0.3837  0.0744 -0.3079
   81MOL   O38134141   2.042   1.351   1.807 -0.0013  0.3228 -0.3430
   81MOL   C38234142   2.145   1.408   1.881 -0.1594 -0.7246  0.0702
   81MOL   O38334143   2.271   1.382   1.816  0.1563 -0.3189 -0.5583
   81MOL   C38434144   2.330   1.257   1.838 -1.2057 -0.6083  0.4519
   81MOL   C38534145   2.252   1.141   1.873 -0.0677 -0.7141  0.2695
   81MOL   C38634146   2.312   1.017   1.898 -0.1896  0.0410  0.3162
   81MOL   C38734147   2.454   1.001   1.879  0.3963  0.1872  0.9036
   81MOL   C38834148   2.530   1.118   1.856  0.0879 -0.3962  0.7518
   81MOL   C38934149   2.467   1.249   1.827  0.3958  0.3671  0.2126
   81MOL   C39034150   1.898   1.506   1.716 -0.4920  0.7404 -0.5360
   81MOL   H39134151   2.076   1.448   1.607  0.9196 -1.6070 -0.7681
   81MOL   H39234152   2.134   1.517   1.885 -2.3942 -0.9246 -0.1974
   81MOL   H39334153   2.153   1.368   1.982 -0.1409 -0.7930  0.0415
   81MOL   H39434154   2.144   1.141   1.873 -0.0705 -0.8968 -1.2732
   81MOL   H39534155   2.253   0.928   1.912 -1.9218  0.7711 -2.0006
   81MOL   H39634156   2.506   0.907   1.885  0.8336  0.2857 -1.0548
   81MOL   H39734157   2.638   1.116   1.849  0.0803 -0.4597  0.6425
   81MOL   H39834158   2.526   1.336   1.801  0.7681 -0.1904 -0.8599
   81MOL   H39934159   1.932   1.565   1.802 -1.4377  1.5021 -0.6738
   81MOL   H40034160   1.821   1.442   1.757 -0.6380  0.6351 -0.9682
   81MOL   C40134161   1.832   1.598   1.609  0.2671 -0.3750  0.0221
   81MOL   O40234162   1.725   1.675   1.676 -0.1436  0.1692 -0.2859
   81MOL   C40334163   1.607   1.611   1.722  0.2105  0.2472 -0.1659
   81MOL   O40434164   1.561   1.514   1.636 -0.2446  0.1848 -0.6347
   81MOL   C40534165   1.501   1.555   1.519  0.3396  0.2269 -0.4614
   81MOL   C40634166   1.447   1.452   1.442  0.3272 -0.6255  0.2053
   81MOL   C40734167   1.380   1.482   1.322 -0.2892  0.7269 -0.2051
   81MOL   C40834168   1.351   1.614   1.282  0.6474  0.5667 -0.1179
   81MOL   C40934169   1.409   1.722   1.358  0.5693  0.1727  0.2981
   81MOL   C41034170   1.473   1.688   1.479  0.1275  0.7844  0.1101
   81MOL   C41134171   1.927   1.708   1.571 -0.0799 -0.4899 -0.0336
   81MOL   H41234172   1.785   1.556   1.520 -1.3362  1.2701  0.0646
   81MOL   H41334173   1.530   1.684   1.746 -0.0784  0.8839 -2.9223
   81MOL   H41434174   1.645   1.561   1.812  0.7620  0.1120 -0.4680
   81MOL   H41534175   1.462   1.352   1.480  0.2684 -0.7178 -0.0105
   81MOL   H41634176   1.351   1.397   1.262  2.1075 -1.0299  1.0449
   81MOL   H41734177   1.297   1.629   1.190  3.2888  2.1596 -1.4800
   81MOL   H41834178   1.393   1.826   1.337 -0.1097 -0.1843 -1.0113
   81MOL   H41934179   1.533   1.762   1.530 -0.0494  2.2263 -1.7345
   81MOL   H42034180   2.001   1.660   1.507  1.4921  1.7237  0.0601
   81MOL   H42134181   1.983   1.742   1.658 -1.5121  1.1890  0.2484
   81MOL   H42234182   1.882   1.796   1.525  1.2352  1.5251  2.4076
   82MOL     C134183   2.057   4.080   7.449  0.6443 -0.2208  0.2928
   82MOL     O234184   2.073   4.087   7.308 -0.2738 -0.3804  0.3861
   82MOL     C334185   1.995   4.191   7.242  0.8794 -0.5116 -0.5277
   82MOL     O434186   1.858   4.152   7.219 -0.3669 -0.2787  0.4463
   82MOL     C534187   1.832   4.083   7.105 -0.0080  0.1692  0.1654
   82MOL     C634188   1.913   3.984   7.056 -0.6281  0.2048  0.1834
   82MOL     C734189   1.872   3.908   6.942  0.3557  0.0786 -0.4233
   82MOL     C834190   1.740   3.923   6.890  0.7123  0.4699 -0.4142
   82MOL     C934191   1.659   4.029   6.928  0.0546 -0.0475  0.0562
   82MOL    C1034192   1.714   4.114   7.029  0.1503 -0.1746  0.0357
   82MOL    C1134193   2.123   3.954   7.503 -0.1082  0.4066 -0.0611
   82MOL    H1234194   2.105   4.167   7.496 -0.4333 -0.6892  2.3147
   82MOL    H1334195   1.989   4.274   7.312 -0.5239  1.0176 -2.3787
   82MOL    H1434196   2.040   4.221   7.147 -0.9819  4.0348 -0.0763
   82MOL    H1534197   2.014   3.969   7.092 -0.6131  0.5543  0.2909
   82MOL    H1634198   1.938   3.831   6.905 -1.0522 -0.4235 -1.9420
   82MOL    H1734199   1.713   3.856   6.810 -1.4486  0.3834  0.3483
   82MOL    H1834200   1.561   4.050   6.887  0.3346  1.4751  0.1099
   82MOL    H1934201   1.655   4.196   7.065  1.5257 -0.5099  3.1829
   82MOL    H2034202   2.146   3.954   7.609 -0.5368  0.5082  0.0333
   82MOL    H2134203   2.218   3.944   7.451  0.1238  1.6308  0.1163
   82MOL    H2234204   1.957   4.097   7.488  1.2863  0.7464  1.5704
   82MOL    C2334205   2.054   3.829   7.453  0.7742 -0.2486  0.3719
   82MOL    O2434206   1.930   3.817   7.515  0.4041  0.5388 -0.0024
   82MOL    C2534207   1.816   3.848   7.436 -0.2034  0.1912 -0.6419
   82MOL    O2634208   1.747   3.739   7.399  0.2188  0.2879 -0.5088
   82MOL    C2734209   1.693   3.652   7.492 -0.3429 -0.1486 -0.1805
   82MOL    C2834210   1.624   3.542   7.445 -0.2582 -0.1144  0.8091
   82MOL    C2934211   1.560   3.449   7.536  0.7840 -0.4902 -0.0973
   82MOL    C3034212   1.553   3.481   7.671  0.2653 -0.2108 -0.2783
   82MOL    C3134213   1.617   3.594   7.722  0.3110  0.0176 -0.2094
   82MOL    C3234214   1.690   3.681   7.634  1.0908  0.1429  0.3901
   82MOL    C3334215   2.144   3.707   7.487  0.4327  0.1792  0.4196
   82MOL    H3434216   2.042   3.842   7.345 -1.5013 -1.6316  0.4358
   82MOL    H3534217   1.853   3.900   7.347 -0.3393 -0.5981 -1.1703
   82MOL    H3634218   1.754   3.923   7.485 -3.3364 -0.3599 -3.5835
   82MOL    H3734219   1.630   3.532   7.337 -2.4477  1.4660  0.5178
   82MOL    H3834220   1.506   3.364   7.497 -1.4777  1.8675 -2.3324
   82MOL    H3934221   1.507   3.409   7.738  1.0080 -0.0969  0.3670
   82MOL    H4034222   1.629   3.600   7.829  0.9282 -0.0619 -0.2699
   82MOL    H4134223   1.757   3.753   7.679  0.8823 -0.7107  2.1100
   82MOL    H4234224   2.183   3.696   7.588 -0.1121  2.5697  0.9297
   82MOL    H4334225   2.235   3.716   7.427 -0.1512 -0.9421 -0.6447
   82MOL    C4434226   2.074   3.573   7.457  0.1874  0.2469 -0.1538
   82MOL    O4534227   2.151   3.477   7.530 -0.9832  0.6039 -0.1904
   82MOL    C4634228   2.108   3.418   7.648 -0.0519 -0.5392 -0.0899
   82MOL    O4734229   2.042   3.301   7.617  0.5171 -0.0344 -0.2684
   82MOL    C4834230   1.958   3.254   7.718  0.4615  0.4658  0.2273
   82MOL    C4934231   1.970   3.120   7.768  0.4880  0.3145  0.0193
   82MOL    C5034232   1.885   3.072   7.870  1.0890 -0.2946  0.6064
   82MOL    C5134233   1.796   3.161   7.927  0.1722  0.2735 -0.4083
   82MOL    C5234234   1.784   3.293   7.884  0.2703 -0.0632  0.3168
   82MOL    C5334235   1.868   3.341   7.782 -0.3526  0.0882  0.8575
   82MOL    C5434236   2.075   3.530   7.303  0.3073 -0.2681  0.2334
   82MOL    H5534237   1.971   3.568   7.493  0.8667  0.1310  1.8482
   82MOL    H5634238   2.054   3.491   7.707  1.5366 -1.8003  3.0307
   82MOL    H5734239   2.199   3.393   7.701  0.9107  3.6697  0.3395
   82MOL    H5834240   2.037   3.046   7.727  1.1583  1.5610 -1.1845
   82MOL    H5934241   1.901   2.973   7.910  0.9855 -0.3055  0.6189
   82MOL    H6034242   1.742   3.133   0.041  2.3389  1.0968  1.2359
   82MOL    H6134243   1.718   3.361   7.936 -1.7585 -3.0465  1.7541
   82MOL    H6234244   1.853   3.445   7.757 -0.9801 -0.3790 -0.7818
   82MOL    H6334245   2.054   3.622   7.247 -0.9776 -0.1083  0.9593
   82MOL    H6434246   2.176   3.495   7.285  0.2565 -0.3266  0.0616
   82MOL    C6534247   1.971   3.430   7.255 -0.1075 -0.8682  0.0589
   82MOL    O6634248   1.976   3.444   7.112 -0.0061 -0.1861  0.4230
   82MOL    C6734249   1.868   3.516   7.065  0.3994  0.2093  0.7888
   82MOL    O6834250   1.745   3.474   7.118 -0.0724  0.2748  0.3063
   82MOL    C6934251   1.630   3.527   7.066 -0.1607 -0.1436  0.2724
   82MOL    C7034252   1.629   3.633   6.975  0.7206  0.3789  0.1699
   82MOL    C7134253   1.506   3.687   6.928  0.4859 -0.3866  0.2592
   82MOL    C7234254   1.382   3.635   6.969 -0.4821  0.4408  0.4279
   82MOL    C7334255   1.379   3.536   7.064 -0.2802  0.3665  0.3659
   82MOL    C7434256   1.503   3.483   7.109  0.0118  0.7435  0.1358
   82MOL    C7534257   2.016   3.286   7.281  0.0367  0.2165 -0.3957
   82MOL    H7634258   1.875   3.453   7.301 -2.9781 -3.6266 -4.1451
   82MOL    H7734259   1.866   3.522   6.956 -0.0088 -0.7981  0.7389
   82MOL    H7834260   1.880   3.621   7.093  0.5239  0.2698  0.5131
   82MOL    H7934261   1.721   3.681   6.945  1.4471 -1.4534 -0.6135
   82MOL    H8034262   1.504   3.758   6.847 -0.8675 -0.3881  0.2807
   82MOL    H8134263   1.292   3.674   6.923 -0.2613 -0.4034 -0.7515
   82MOL    H8234264   1.283   3.504   7.102 -0.4816  0.8436  0.2562
   82MOL    H8334265   1.508   3.409   7.188 -1.3480 -0.1179 -0.5895
   82MOL    H8434266   2.106   3.282   7.220  0.9187  1.7625  0.7712
   82MOL    H8534267   2.039   3.277   7.387 -4.8082  2.5849  1.0224
   82MOL    C8634268   1.919   3.167   7.254 -0.0361  0.1550 -0.0360
   82MOL    O8734269   1.980   3.044   7.287 -0.9228 -0.1342 -0.5244
   82MOL    C8834270   2.004   2.967   7.172 -0.4274 -0.4771 -0.2618
   82MOL    O8934271   2.112   3.015   7.105 -0.4694 -0.1929 -0.3337
   82MOL    C9034272   2.175   2.924   7.029  0.1136  0.5309  0.1749
   82MOL    C9134273   2.318   2.920   7.020  0.7433 -0.0483 -0.2139
   82MOL    C9234274   2.381   2.841   6.921 -0.1698  0.0709  0.1693
   82MOL    C9334275   2.302   2.770   6.831 -0.3066  1.3008  0.1084
   82MOL    C9434276   2.162   2.768   6.845  0.1774  0.0385 -0.9995
   82MOL    C9534277   2.097   2.843   6.943  0.5867 -0.1715  0.2445
   82MOL    C9634278   1.798   3.169   7.347 -0.5677  0.3156  0.2116
   82MOL    H9734279   1.889   3.178   7.149  3.0024 -0.1905 -0.9898
   82MOL    H9834280   1.919   2.980   7.104 -0.1738  1.8030 -0.1784
   82MOL    H9934281   2.026   2.865   7.201  2.5516  0.4431  0.9246
   82MOL   H10034282   2.369   2.997   7.076 -0.5574 -0.2415  1.3016
   82MOL   H10134283   2.489   2.841   6.920 -0.1171  2.8863  2.3085
   82MOL   H10234284   2.356   2.708   6.761 -1.7736  1.8367 -1.5302
   82MOL   H10334285   2.100   2.707   6.781 -1.7153  0.2820  0.5495
   82MOL   H10434286   1.989   2.843   6.944  0.5790 -1.9623  0.3606
   82MOL   H10534287   1.843   3.174   7.446  0.6072 -1.9622 -0.1623
   82MOL   H10634288   1.744   3.263   7.335  0.3758  0.5941 -2.0895
   82MOL   C10734289   1.691   3.064   7.341 -0.3854  0.7988  0.3693
   82MOL   O10834290   1.599   3.067   7.450  0.0126  0.3614  0.5270
   82MOL   C10934291   1.630   3.004   7.571  0.2996  0.7299 -0.6377
   82MOL   O11034292   1.574   2.874   7.578 -0.0518 -0.0660  0.3529
   82MOL   C11134293   1.440   2.864   7.613 -0.1841  0.5956  0.5430
   82MOL   C11234294   1.340   2.964   7.607 -0.4837  0.2462  0.1770
   82MOL   C11334295   1.205   2.940   7.653  0.4303  0.5565  0.1576
   82MOL   C11434296   1.172   2.815   7.709 -0.2491 -0.1872 -0.5689
   82MOL   C11534297   1.268   2.709   7.704  0.0375  0.1380 -0.2936
   82MOL   C11634298   1.401   2.733   7.663  0.2243 -0.4652  0.2464
   82MOL   C11734299   1.607   3.076   7.206 -0.1100  0.4579  0.1808
   82MOL   H11834300   1.742   2.967   7.338 -1.6883  0.1198  0.0485
   82MOL   H11934301   1.588   3.070   7.647 -1.1402  0.2116 -0.9618
   82MOL   H12034302   1.735   2.997   7.597  0.4936 -2.0603 -1.9906
   82MOL   H12134303   1.371   3.063   7.576 -2.1816  1.8946  3.4940
   82MOL   H12234304   1.133   3.021   7.643  1.5813  1.6920  0.8151
   82MOL   H12334305   1.076   2.807   7.758  0.1679 -2.5096 -0.0454
   82MOL   H12434306   1.250   2.611   7.745  1.2897 -0.8180 -1.9564
   82MOL   H12534307   1.475   2.656   7.679  1.8770  1.2185  0.8147
   82MOL   H12634308   1.654   3.121   7.118  0.3106 -2.7292 -1.3091
   82MOL   H12734309   1.520   3.138   7.225 -0.1758 -0.0035  1.4308
   82MOL   C12834310   1.558   2.936   7.160 -0.5151 -0.7203 -0.2450
   82MOL   O12934311   1.514   2.947   7.022 -0.5128 -0.1540  0.3650
   82MOL   C13034312   1.596   2.898   6.921 -0.4804 -0.2533  0.9980
   82MOL   O13134313   1.717   2.966   6.910  0.5379  0.3773 -0.4638
   82MOL   C13234314   1.722   3.095   6.855 -0.4617  0.2925  0.8701
   82MOL   C13334315   1.847   3.148   6.816  0.1093 -0.7187  0.8504
   82MOL   C13434316   1.847   3.283   6.760  0.3019 -0.1653 -0.4142
   82MOL   C13534317   1.733   3.359   6.757  0.3291 -0.1312  0.1435
   82MOL   C13634318   1.607   3.300   6.777  0.7220  0.3280 -0.4352
   82MOL   C13734319   1.604   3.165   6.823  0.3103  0.0486  0.0022
   82MOL   C13834320   1.430   2.898   7.231  0.0259 -0.2086  0.2567
   82MOL   H13934321   1.622   2.848   7.166 -1.2355 -1.2568 -0.3341
   82MOL   H14034322   1.547   2.908   6.824  1.0722  1.4814  0.3532
   82MOL   H14134323   1.632   2.796   6.928 -1.7712 -0.7744  0.2962
   82MOL   H14234324   1.943   3.099   6.828  0.8300 -0.0338 -1.7576
   82MOL   H14334325   1.935   3.334   6.724 -0.3388  2.1100  1.1693
   82MOL   H14434326   1.746   3.459   6.717  2.5953 -0.0675  0.9431
   82MOL   H14534327   1.516   3.356   6.764  0.7006 -0.0145 -1.8899
   82MOL   H14634328   1.505   3.128   6.842  0.3026 -0.1889 -0.4778
   82MOL   H14734329   1.451   2.910   7.337 -1.1761 -0.1572  0.5013
   82MOL   H14834330   1.353   2.971   7.210 -1.7361 -2.3336 -0.9053
   82MOL   C14934331   1.376   2.752   7.199 -0.0653 -0.2649 -0.1931
   82MOL   O15034332   1.479   2.650   7.215  0.3930  0.1758  0.1788
   82MOL   C15134333   1.520   2.608   7.345  0.1574 -0.4626 -0.7705
   82MOL   O15234334   1.449   2.512   7.419 -0.2797  0.6148  0.2475
   82MOL   C15334335   1.423   2.391   7.367  0.0600  0.2498  0.2170
   82MOL   C15434336   1.340   2.313   7.445  0.2566 -0.1457 -0.1303
   82MOL   C15534337   1.303   2.186   7.399 -0.9496 -0.0713 -0.1678
   82MOL   C15634338   1.349   2.137   7.276 -0.4455  0.5948 -0.3733
   82MOL   C15734339   1.424   2.224   7.188  0.7650  0.1825  0.4195
   82MOL   C15834340   1.471   2.346   7.239 -0.6734 -0.5185 -0.5093
   82MOL   C15934341   1.248   2.718   7.274 -0.5471  0.2047 -0.2956
   82MOL   H16034342   1.354   2.755   7.092 -1.7108  0.4822  0.1506
   82MOL   H16134343   1.619   2.564   7.343  0.6715  0.5740  0.8394
   82MOL   H16234344   1.518   2.691   7.415  0.0491  0.3167 -1.6839
   82MOL   H16334345   1.305   2.342   7.543 -0.3598  0.8676 -0.6355
   82MOL   H16434346   1.247   2.126   7.469 -1.4050 -2.3795 -2.4515
   82MOL   H16534347   1.335   2.035   7.243  1.2542  0.3860 -0.4610
   82MOL   H16634348   1.456   2.191   7.090 -3.4466 -0.5557 -0.8268
   82MOL   H16734349   1.529   2.409   7.173  1.8779 -0.3192  1.8408
   82MOL   H16834350   1.273   2.728   7.380  1.2881  0.3301 -0.7249
   82MOL   H16934351   1.220   2.614   7.261  1.1478 -0.4563  1.0536
   82MOL   C17034352   1.123   2.820   7.257 -0.2092  0.6136  0.5711
   82MOL   O17134353   1.060   2.793   7.142  0.3748 -0.3052  0.4831
   82MOL   C17234354   1.103   2.870   7.032 -0.1541  1.0652  0.3637
   82MOL   O17334355   1.062   3.005   7.030  0.3469  0.1718  0.0750
   82MOL   C17434356   1.113   3.092   6.934  0.5312 -0.1386 -0.6624
   82MOL   C17534357   1.185   3.051   6.822 -1.1026  0.0391 -1.0355
   82MOL   C17634358   1.236   3.149   6.730 -0.0761 -0.0810  0.3314
   82MOL   C17734359   1.211   3.285   6.754 -0.9607 -0.8328  0.3127
   82MOL   C17834360   1.140   3.326   6.863 -0.1908  0.2553 -0.1054
   82MOL   C17934361   1.086   3.231   6.955  0.4827 -0.4898 -0.1281
   82MOL   C18034362   1.023   2.783   7.368  0.9370  0.0758 -0.1133
   82MOL   H18134363   1.164   2.921   7.264  1.8311 -0.2992  2.2296
   82MOL   H18234364   1.059   2.815   6.949  1.6125  0.2632 -0.0442
   82MOL   H18334365   1.210   2.865   7.013  0.1296  1.8150  1.6319
   82MOL   H18434366   1.214   2.947   6.813  1.2889  0.8343 -3.0812
   82MOL   H18534367   1.299   3.117   6.647 -0.9906  0.3220 -0.5273
   82MOL   H18634368   1.254   3.356   6.685  1.1999 -1.3401  1.0795
   82MOL   H18734369   1.129   3.433   6.877  0.7779  0.1357  1.8844
   82MOL   H18834370   1.034   3.267   7.043  0.2466 -0.0475 -0.4456
   82MOL   H18934371   0.982   2.687   7.336  2.0878 -1.0618  1.7374
   82MOL   H19034372   1.076   2.776   7.463 -1.1566  0.9601  1.1449
   82MOL   C19134373   0.908   2.885   7.370 -0.5908  0.7721 -0.5156
   82MOL   O19234374   0.962   3.009   7.417 -0.6941  0.4768 -0.0389
   82MOL   C19334375   0.953   3.110   7.326  0.5688  0.2451  0.0593
   82MOL   O19434376   1.039   3.216   7.357 -0.0289 -0.0411 -0.2590
   82MOL   C19534377   1.039   3.281   7.480 -0.7092 -0.4844 -0.7581
   82MOL   C19634378   0.944   3.248   7.581 -0.2015 -0.5391 -0.6841
   82MOL   C19734379   0.950   3.302   7.713  0.8084 -0.6586  0.0406
   82MOL   C19834380   1.042   3.406   7.741  0.7722  0.8254  0.2140
   82MOL   C19934381   1.129   3.450   7.638 -0.0512  0.9072  0.0277
   82MOL   C20034382   1.130   3.385   7.512  0.9680 -0.4651 -0.0538
   82MOL   C20134383   0.793   2.838   7.465  0.2474  0.7512  0.6314
   82MOL   H20234384   0.873   2.897   7.267 -2.1365 -0.4486 -0.1472
   82MOL   H20334385   0.852   3.138   7.299  0.0498 -0.4127  1.2936
   82MOL   H20434386   1.001   3.094   7.229  0.3293  1.0441 -0.1930
   82MOL   H20534387   0.883   3.160   7.572 -0.8873 -0.0952 -0.4806
   82MOL   H20634388   0.885   3.266   7.790  1.0149  1.3422  1.1793
   82MOL   H20734389   1.034   3.455   7.837  0.0300 -1.1903  1.2139
   82MOL   H20834390   1.199   3.533   7.641  0.9865  0.0796 -1.0289
   82MOL   H20934391   1.183   3.427   7.428 -0.8304  1.4408 -0.2811
   82MOL   H21034392   0.772   2.731   7.453 -0.2336  1.0764 -1.5689
   82MOL   H21134393   0.826   2.855   7.567  0.0512  0.3185  0.7718
   82MOL   C21234394   0.655   2.900   7.445  0.0775 -0.2265  0.3443
   82MOL   O21334395   0.601   2.838   7.330  0.2274  0.0380  0.2285
   82MOL   C21434396   0.503   2.907   7.258  0.4220  0.4685  0.1649
   82MOL   O21534397   0.545   3.025   7.204  0.5944  0.0023 -0.3022
   82MOL   C21634398   0.630   3.013   7.096  0.1101  0.3493  0.6372
   82MOL   C21734399   0.687   2.889   7.044  0.4870  0.3851 -0.3126
   82MOL   C21834400   0.767   2.893   6.932  0.2011 -0.1297 -0.3012
   82MOL   C21934401   0.807   3.014   6.876  0.1088  0.6261  0.6745
   82MOL   C22034402   0.752   3.133   6.920 -0.3151 -0.0122 -0.1608
   82MOL   C22134403   0.676   3.130   7.032 -0.4597  0.1593  0.4050
   82MOL   C22234404   0.553   2.894   7.566 -0.9683  0.3221 -0.1114
   82MOL   H22334405   0.658   3.004   7.414 -0.7605 -0.7917 -1.7737
   82MOL   H22434406   0.424   2.935   7.327  0.2306  0.8903 -0.2184
   82MOL   H22534407   0.460   2.841   7.182 -2.1949 -0.7024  2.5872
   82MOL   H22634408   0.661   2.794   7.087 -1.2554  2.0248  2.3755
   82MOL   H22734409   0.805   2.802   6.887  1.3429  0.4754 -0.5738
   82MOL   H22834410   0.868   3.019   6.787 -0.2655  0.6753  0.4217
   82MOL   H22934411   0.777   3.230   6.879 -0.7987 -0.8600 -2.5845
   82MOL   H23034412   0.648   3.231   7.060  2.0246  1.1339 -0.4443
   82MOL   H23134413   0.492   2.809   7.537  1.2903 -0.6125 -2.3441
   82MOL   H23234414   0.602   2.865   7.659 -2.0224  0.2781  0.4262
   82MOL   C23334415   0.470   3.014   7.598 -0.0201 -0.8045 -0.3962
   82MOL   O23434416   0.354   2.958   7.658  0.5493  0.1759 -0.3112
   82MOL   C23534417   0.232   3.016   7.616 -0.1133 -0.1866 -0.5355
   82MOL   O23634418   0.197   2.995   7.485  0.8119 -0.1477 -0.2333
   82MOL   C23734419   0.169   2.876   7.443  0.4571  0.1354 -0.5024
   82MOL   C23834420   0.128   2.876   7.309 -0.4730 -0.0243  0.2440
   82MOL   C23934421   0.095   2.751   7.242 -0.4307  0.0516  0.2253
   82MOL   C24034422   0.106   2.633   7.319 -0.0407 -0.5765 -0.5387
   82MOL   C24134423   0.148   2.635   7.457  0.1931  0.1364  0.0816
   82MOL   C24234424   0.181   2.759   7.517  0.6286  0.7277 -0.2693
   82MOL   C24334425   0.538   3.120   7.680 -0.5302  0.3168 -0.0718
   82MOL   H24434426   0.446   3.064   7.504  1.8548 -0.2257 -0.5850
   82MOL   H24534427   0.228   3.124   7.635  1.4030 -0.3249  0.7219
   82MOL   H24634428   0.152   2.970   7.674  0.9982 -0.5079  0.7796
   82MOL   H24734429   0.131   2.969   7.253 -3.8477  0.8396  1.3317
   82MOL   H24834430   0.057   2.751   7.141  0.7933 -0.7810 -0.2437
   82MOL   H24934431   0.088   2.539   7.270 -0.1819 -1.6754  1.5789
   82MOL   H25034432   0.159   2.541   7.509  2.3242 -0.2313 -0.9539
   82MOL   H25134433   0.219   2.763   7.617  1.4565 -1.7472 -0.4500
   82MOL   H25234434   0.599   3.174   7.608  0.9007 -1.0726  0.0849
   82MOL   H25334435   0.470   3.202   7.703  2.6110  2.9104  0.2477
   82MOL   C25434436   0.604   3.073   7.809 -0.3741  0.1908 -1.1147
   82MOL   O25534437   0.741   3.045   7.781  0.1451  0.1318 -0.6029
   82MOL   C25634438   0.796   2.943   7.865  0.1034 -0.0141 -0.4990
   82MOL   O25734439   0.909   2.998   7.924 -0.2052  0.1037 -0.2132
   82MOL   C25834440   0.976   2.912   0.027 -0.9321 -0.1132 -0.4539
   82MOL   C25934441   1.086   2.964   0.099  0.2178  0.7073  0.3080
   82MOL   C26034442   1.156   2.889   0.198  0.0778  0.7683  0.2405
   82MOL   C26134443   1.110   2.759   0.231 -0.0911 -0.4774  0.0086
   82MOL   C26234444   1.008   2.703   0.153  0.2222 -0.6969 -0.3660
   82MOL   C26334445   0.942   2.780   0.056 -0.6099  1.6290 -0.0261
   82MOL   C26434446   0.614   3.186   7.917 -0.7080 -0.2865  0.1056
   82MOL   H26534447   0.545   2.995   7.858  0.2421  0.1631 -0.3998
   82MOL   H26634448   0.835   2.865   7.800 -1.2825 -1.3168  0.1896
   82MOL   H26734449   0.725   2.903   7.937  0.9122  0.7885  0.7620
   82MOL   H26834450   1.125   3.058   0.065 -0.4175  1.7061  2.2670
   82MOL   H26934451   1.239   2.936   0.248  0.9873 -1.3134  0.7233
   82MOL   H27034452   1.164   2.703   0.305  1.0560 -0.8448 -1.0947
   82MOL   H27134453   0.975   2.604   0.180  1.4393 -0.7645  0.9474
   82MOL   H27234454   0.872   2.719   0.000 -0.7043  0.2696  1.5386
   82MOL   H27334455   0.693   3.154   0.009  0.6202  0.3149 -1.1158
   82MOL   H27434456   0.649   3.280   7.873  0.6671 -0.2019  1.3460
   82MOL   C27534457   0.487   3.213   0.016 -0.9198  0.6697 -0.4156
   82MOL   O27634458   0.480   3.154   0.142 -0.1123 -0.7859 -0.2473
   82MOL   C27734459   0.358   3.084   0.164  0.7057  0.4114 -0.0700
   82MOL   O27834460   0.335   2.973   0.080 -0.2295  0.4355  0.1992
   82MOL   C27934461   0.407   2.858   0.103 -0.4525 -0.2264  0.8162
   82MOL   C28034462   0.409   2.772   7.966  0.3062  0.3756  0.1186
   82MOL   C28134463   0.492   2.661   7.971 -0.1101  0.5315  0.0238
   82MOL   C28234464   0.574   2.630   0.103 -0.7481  0.1651 -0.9260
   82MOL   C28334465   0.580   2.720   0.209 -0.4761 -0.8209 -0.4914
   82MOL   C28434466   0.501   2.838   0.209 -0.2045  0.3768  0.5563
   82MOL   C28534467   0.468   3.363   0.051 -0.1547 -0.4350  0.1829
   82MOL   H28634468   0.400   3.187   7.931  0.5894 -0.2038 -2.2614
   82MOL   H28734469   0.275   3.154   0.162  0.0107 -0.4241 -0.5579
   82MOL   H28834470   0.360   3.055   0.269  0.0631 -0.0626 -0.1892
   82MOL   H28934471   0.342   2.786   7.883 -0.0904 -2.6440 -0.1192
   82MOL   H29034472   0.482   2.591   7.890  2.5759 -0.0764  0.1534
   82MOL   H29134473   0.639   2.543   0.108  0.8661  1.3792 -0.2622
   82MOL   H29234474   0.641   2.698   0.295 -0.8874 -1.9481 -0.4792
   82MOL   H29334475   0.518   2.906   0.291  1.3357  2.2136 -1.2090
   82MOL   H29434476   0.551   3.422   0.091  1.1281 -1.4353 -0.9531
   82MOL   H29534477   0.404   3.358   0.139  2.3559 -4.5592  1.9016
   82MOL   C29634478   0.396   3.449   7.924 -0.4567  0.9502 -0.6753
   82MOL   O29734479   0.463   3.450   7.800 -0.5110  0.7741  0.5729
   82MOL   C29834480   0.562   3.540   7.781  0.0201  0.2587  0.0360
   82MOL   O29934481   0.657   3.539   7.883 -0.0188  0.4222  0.2106
   82MOL   C30034482   0.751   3.640   7.890  0.2157 -0.3384  0.8477
   82MOL   C30134483   0.817   3.664   0.035  0.7272  0.4226 -0.3516
   82MOL   C30234484   0.932   3.748   0.032 -0.0196 -0.4864  0.0662
   82MOL   C30334485   0.957   3.833   7.894  0.2462  0.1947  0.0785
   82MOL   C30434486   0.876   3.814   7.777  0.2452 -0.0443 -0.3022
   82MOL   C30534487   0.785   3.708   7.774 -0.3548  0.4363 -0.0551
   82MOL   C30634488   0.256   3.401   7.895 -0.1584 -0.6330  0.4498
   82MOL   H30734489   0.397   3.550   7.966  1.8276  0.8202 -0.3968
   82MOL   H30834490   0.520   3.640   7.768  3.7336  1.7524 -1.2365
   82MOL   H30934491   0.609   3.510   7.687  0.0399 -3.7871  1.2225
   82MOL   H31034492   0.798   3.608   0.125 -0.6618  2.6838  0.8163
   82MOL   H31134493   1.003   3.759   0.112  3.4312 -3.1582 -2.4872
   82MOL   H31234494   1.042   3.900   7.901  1.2328 -1.0914  0.6012
   82MOL   H31334495   0.879   3.875   7.688  1.7198  0.7155  0.2415
   82MOL   H31434496   0.741   3.696   7.676  1.0184  4.7992 -1.3266
   82MOL   H31534497   0.213   3.386   0.018  0.4848 -1.5221  0.5985
   82MOL   H31634498   0.253   3.318   7.824  0.4299  0.4229 -0.8369
   82MOL   C31734499   0.168   3.511   7.828  0.1077  0.2166  0.4885
   82MOL   O31834500   0.147   3.618   7.911 -0.1456  0.6311  0.0159
   82MOL   C31934501   0.188   3.739   7.863  0.2550 -0.2770 -0.0596
   82MOL   O32034502   0.319   3.771   7.899 -0.2910  0.1657 -0.0522
   82MOL   C32134503   0.377   3.893   7.869 -0.3642 -0.1834  0.1883
   82MOL   C32234504   0.518   3.910   7.885  0.2750  0.7518  0.6129
   82MOL   C32334505   0.574   4.037   7.853  0.1284  0.2440  0.3086
   82MOL   C32434506   0.498   4.142   7.806 -0.1498 -1.0564 -0.0579
   82MOL   C32534507   0.358   4.129   7.798 -1.1482 -0.5413  0.0302
   82MOL   C32634508   0.302   4.005   7.829 -0.0801 -0.2115 -0.0910
   82MOL   C32734509   0.029   3.447   7.801  0.0019 -0.4267 -0.5119
   82MOL   H32834510   0.210   3.542   7.732 -1.2772  1.2826  0.2133
   82MOL   H32934511   0.133   3.813   7.921 -0.9677 -1.7359  0.6831
   82MOL   H33034512   0.160   3.758   7.759 -0.2372  1.9252  0.4531
   82MOL   H33134513   0.582   3.831   7.921  1.3750  1.4578  0.2365
   82MOL   H33234514   0.677   4.060   7.872 -0.0855  1.4263  0.0801
   82MOL   H33334515   0.542   4.235   7.772 -0.2981 -1.1200 -0.4246
   82MOL   H33434516   0.299   4.206   7.749  1.3782  0.4653 -1.4864
   82MOL   H33534517   0.199   4.003   7.798 -0.8278  0.2617  2.3121
   82MOL   H33634518   7.942   3.519   7.749 -0.4330 -0.4635 -0.0484
   82MOL   H33734519   0.032   3.370   7.724  0.5207 -0.5284 -0.3971
   82MOL   C33834520   7.911   3.398   7.917 -0.8280 -0.2005 -0.7548
   82MOL   O33934521   7.864   3.521   7.973  0.3910 -0.3092 -0.3202
   82MOL   C34034522   7.892   3.549   0.126  0.4604 -0.5673 -0.1519
   82MOL   O34134523   7.809   3.471   0.212  0.3051 -0.2199 -0.1696
   82MOL   C34234524   7.819   3.503   0.347  0.3088 -0.5522  0.4586
   82MOL   C34334525   7.934   3.546   0.417 -0.2446  0.3632 -0.1931
   82MOL   C34434526   7.925   3.591   0.552  0.4416  0.0590 -0.1447
   82MOL   C34534527   7.804   3.585   0.618 -1.1306 -0.4986  0.0205
   82MOL   C34634528   7.695   3.523   0.553 -0.2977  0.2649  0.1056
   82MOL   C34734529   7.705   3.480   0.419  0.1241  0.6425  0.2832
   82MOL   C34834530   7.797   3.304   7.858 -0.9184 -0.1299  0.5472
   82MOL   H34934531   7.969   3.353   0.022  0.2854  2.3531 -0.0902
   82MOL   H35034532   7.876   3.656   0.142  0.5784 -0.7914  1.4928
   82MOL   H35134533   0.019   3.529   0.156 -0.5203  0.6286  4.3003
   82MOL   H35234534   0.049   3.558   0.359 -0.7602  1.1017 -0.8511
   82MOL   H35334535   0.040   3.641   0.584  0.9158 -1.0187  0.2318
   82MOL   H35434536   7.797   3.623   0.719  0.5659 -1.5952  0.5846
   82MOL   H35534537   7.605   3.513   0.612 -1.1734  0.8084 -1.1327
   82MOL   H35634538   7.615   3.437   0.377  1.1913 -0.9235 -0.4262
   82MOL   H35734539   7.831   3.262   7.763 -1.6681 -0.2935  0.3501
   82MOL   H35834540   7.701   3.354   7.845 -0.0573  0.7369 -2.8039
   82MOL   C35934541   7.783   3.196   7.964 -0.0231  0.8543 -0.5574
   82MOL   O36034542   7.910   3.132   7.954 -0.2926  0.5234  0.0899
   82MOL   C36134543   7.948   3.070   0.099 -0.1833 -0.3802  0.1457
   82MOL   O36234544   0.014   3.169   0.192 -0.6009  0.6026 -0.2542
   82MOL   C36334545   0.052   3.127   0.318 -0.3455  0.1193 -0.2989
   82MOL   C36434546   0.066   3.222   0.426 -0.3488 -0.4772  0.3863
   82MOL   C36534547   0.115   3.174   0.554 -0.0127  0.1388  0.3537
   82MOL   C36634548   0.128   3.042   0.580  0.6324  0.1224  0.0296
   82MOL   C36734549   0.135   2.949   0.474 -0.1173 -0.3418 -0.0933
   82MOL   C36834550   0.090   2.988   0.344  0.4120 -0.1153  0.0818
   82MOL   C36934551   7.673   3.092   7.931  0.2022  0.8522  0.8632
   82MOL   H37034552   7.760   3.234   0.088 -0.8321 -0.4651 -0.2155
   82MOL   H37134553   0.057   3.012   0.062  0.0818 -1.5273  2.4455
   82MOL   H37234554   7.877   2.999   0.142  0.5722 -0.6365  0.9952
   82MOL   H37334555   0.054   3.329   0.417 -1.5787 -0.6143  0.3050
   82MOL   H37434556   0.141   3.236   0.638  2.3476 -0.4833  0.1134
   82MOL   H37534557   0.168   3.014   0.676  1.0759  0.9813  0.0961
   82MOL   H37634558   0.178   2.851   0.492  0.3285  0.1243  1.4223
   82MOL   H37734559   0.077   2.911   0.270  1.1392 -1.4934  1.3724
   82MOL   H37834560   7.717   3.006   7.879 -2.2014 -1.0363  1.8419
   82MOL   H37934561   7.608   3.137   7.856  1.3864  1.7126  0.3390
   82MOL   C38034562   7.603   3.037   0.079  0.4630 -0.9076 -0.2776
   82MOL   O38134563   7.552   2.905   0.057  0.0367 -0.0185 -0.0795
   82MOL   C38234564   7.596   2.792   0.137  0.3551  0.8719 -1.4066
   82MOL   O38334565   7.735   2.771   0.145 -0.4900  0.3187  0.1523
   82MOL   C38434566   7.805   2.718   0.036 -0.3980  0.1384  0.4754
   82MOL   C38534567   7.937   2.699   0.055  0.1448  0.4876 -0.0016
   82MOL   C38634568   0.044   2.655   7.925 -0.5069 -0.7390 -0.1485
   82MOL   C38734569   7.963   2.626   7.800 -0.5089  0.4836  0.0813
   82MOL   C38834570   7.824   2.656   7.778  0.7975 -0.1193  0.9386
   82MOL   C38934571   7.742   2.691   7.889  0.2437 -0.4195 -0.1492
   82MOL   C39034572   7.496   3.129   0.132  0.9302  0.1010 -0.3912
   82MOL   H39134573   7.669   3.028   0.165 -2.4788  0.5760  2.2247
   82MOL   H39234574   7.575   2.791   0.244  0.6647 -0.8176 -1.3478
   82MOL   H39334575   7.548   2.706   0.092 -1.5611  2.3341 -2.2155
   82MOL   H39434576   0.004   2.716   0.153 -2.3428  0.2984  1.1436
   82MOL   H39534577   0.151   2.644   7.939 -0.5292 -0.0516  0.6052
   82MOL   H39634578   0.052   2.594   7.720  1.5790  0.2018  1.8271
   82MOL   H39734579   7.778   2.638   7.682 -0.7160 -0.1957  1.6603
   82MOL   H39834580   7.635   2.703   7.876  0.0611 -1.0755  0.7117
   82MOL   H39934581   7.404   3.126   0.073  0.7723 -1.1506 -0.0969
   82MOL   H40034582   7.522   3.233   0.112  1.8367 -0.0783 -0.1976
   82MOL   C40134583   7.466   3.126   0.285 -0.5475 -0.8103  0.5553
   82MOL   O40234584   7.591   3.143   0.356  0.4266  0.1702 -0.7768
   82MOL   C40334585   7.584   3.138   0.497 -1.1757 -0.3858 -0.3956
   82MOL   O40434586   7.516   3.032   0.547 -0.1815  0.0553  0.7788
   82MOL   C40534587   7.577   2.905   0.557 -0.0900 -0.2820  0.5826
   82MOL   C40634588   7.507   2.801   0.620  0.1870  0.4790 -0.0657
   82MOL   C40734589   7.564   2.675   0.641 -0.1512  0.9725  0.0195
   82MOL   C40834590   7.702   2.654   0.609  0.5241 -0.1650 -0.3783
   82MOL   C40934591   7.776   2.764   0.554 -0.0073 -0.9195  0.1506
   82MOL   C41034592   7.715   2.883   0.526 -0.1960  0.5135  0.2841
   82MOL   C41134593   7.367   3.236   0.326  0.0818 -0.9825  0.4018
   82MOL   H41234594   7.433   3.023   0.303 -2.2580 -0.3746  0.0262
   82MOL   H41334595   7.528   3.229   0.521  2.2042  0.9371  3.1053
   82MOL   H41434596   7.674   3.152   0.557 -0.1124 -0.6498 -1.9209
   82MOL   H41534597   7.408   2.812   0.662 -0.7481 -3.1721 -1.0688
   82MOL   H41634598   7.510   2.590   0.681 -1.3919  2.1296  0.8159
   82MOL   H41734599   7.732   2.551   0.610 -0.3286 -0.4310 -1.4672
   82MOL   H41834600   7.880   2.752   0.528  0.0437 -1.5957  0.6496
   82MOL   H41934601   7.773   2.965   0.487  0.5886 -0.6812 -1.0928
   82MOL   H42034602   7.322   3.226   0.425  0.5438 -0.7613  0.6362
   82MOL   H42134603   7.286   3.224   0.255 -2.2065  1.7209  2.4405
   82MOL   H42234604   7.398   3.340   0.319 -0.3116 -0.9826 -1.3570
   83MOL     C134605   5.175   6.850   1.521 -0.9165  0.3377 -0.3059
   83MOL     O234606   5.296   6.871   1.593 -0.2907  0.7334 -0.3560
   83MOL     C334607   5.311   6.986   1.672 -0.2094  0.7074  1.1056
   83MOL     O434608   5.220   7.001   1.778 -0.3849 -0.1107 -0.5978
   83MOL     C534609   5.235   7.108   1.865  0.0810 -0.3899 -1.2669
   83MOL     C634610   5.347   7.193   1.866  0.1362  0.1933 -0.6582
   83MOL     C734611   5.357   7.287   1.977  0.5392  0.2550  0.6238
   83MOL     C834612   5.257   7.287   2.074 -0.6957 -0.1530  0.5578
   83MOL     C934613   5.151   7.206   2.074  0.2216 -0.0129  0.4596
   83MOL    C1034614   5.138   7.115   1.966  1.0850 -0.4452  0.0919
   83MOL    C1134615   5.165   6.717   1.442  1.0216  0.3173 -0.0629
   83MOL    H1234616   5.096   6.870   1.594 -1.3390  0.0874 -0.6962
   83MOL    H1334617   5.408   6.971   1.719  0.9940 -0.0355 -1.4871
   83MOL    H1434618   5.330   7.082   1.624 -3.2937  0.0372 -1.6440
   83MOL    H1534619   5.423   7.184   1.790  0.0516 -3.3968 -0.4163
   83MOL    H1634620   5.444   7.349   1.988  1.4808 -1.0152  0.5363
   83MOL    H1734621   5.272   7.350   2.160  1.0911  0.7882 -0.4126
   83MOL    H1834622   5.074   7.197   2.149 -1.0009  0.3947 -0.7312
   83MOL    H1934623   5.064   7.036   1.967  1.2449 -0.5916  0.5634
   83MOL    H2034624   5.161   6.648   1.526 -2.3645 -1.2495 -1.3721
   83MOL    H2134625   5.253   6.693   1.382 -1.1070 -0.1213 -3.1667
   83MOL    H2234626   5.177   6.929   1.446  1.0451 -0.0385 -0.6619
   83MOL    C2334627   5.033   6.711   1.372  0.3755 -0.5109 -0.4033
   83MOL    O2434628   5.009   6.572   1.350 -0.2031  0.6618  0.1069
   83MOL    C2534629   4.927   6.502   1.435  0.0802 -0.3646  0.0953
   83MOL    O2634630   4.797   6.533   1.394 -0.0256 -0.6378 -0.5043
   83MOL    C2734631   4.728   6.441   1.317 -0.9086  0.1170  0.3073
   83MOL    C2834632   4.588   6.453   1.303  0.1449 -0.2179 -0.2469
   83MOL    C2934633   4.519   6.355   1.227  0.5809 -0.6245  0.3132
   83MOL    C3034634   4.584   6.251   1.168 -0.6775  0.4953 -0.4518
   83MOL    C3134635   4.724   6.230   1.185  0.0775  0.4555  0.1824
   83MOL    C3234636   4.794   6.331   1.263 -0.2267  0.4556  0.8869
   83MOL    C3334637   5.036   6.782   1.237  0.1796  0.2199 -0.1093
   83MOL    H3434638   4.953   6.753   1.434 -0.0180  1.3263 -2.1081
   83MOL    H3534639   4.945   6.535   1.537  2.0246  0.2775 -0.4278
   83MOL    H3634640   4.961   6.398   1.434  1.3827  0.0473 -1.2907
   83MOL    H3734641   4.535   6.538   1.342 -0.6137 -1.1224  0.7529
   83MOL    H3834642   4.417   6.378   1.201  1.1627 -1.6776 -3.1767
   83MOL    H3934643   4.522   6.189   1.104  0.2937  0.2235 -1.1532
   83MOL    H4034644   4.767   6.138   1.148 -0.5830  0.4599 -0.6189
   83MOL    H4134645   4.902   6.325   1.257 -0.3488 -1.5798  0.3911
   83MOL    H4234646   5.123   6.737   1.189  0.6363  2.3894 -1.3527
   83MOL    H4334647   5.061   6.888   1.240  1.4196 -0.0897  1.9336
   83MOL    C4434648   4.905   6.771   1.157  0.3226  0.0940 -0.4233
   83MOL    O4534649   4.949   6.737   1.021  0.2521 -0.1079  0.1598
   83MOL    C4634650   4.962   6.605   0.982  0.1072 -0.0484 -0.2233
   83MOL    O4734651   5.096   6.558   0.984  0.4603  0.6611 -0.3660
   83MOL    C4834652   5.184   6.597   0.883  0.5102 -1.0679  0.0721
   83MOL    C4934653   5.163   6.700   0.788 -0.0883 -0.2176  0.4791
   83MOL    C5034654   5.271   6.741   0.706 -0.0095 -0.2838  0.5989
   83MOL    C5134655   5.391   6.674   0.712 -0.5636  0.3423 -1.0094
   83MOL    C5234656   5.410   6.558   0.799  0.0477 -0.3525  0.2269
   83MOL    C5334657   5.303   6.522   0.878 -0.1224  0.1614  0.0684
   83MOL    C5434658   4.828   6.906   1.127  0.1142  0.3186 -0.1756
   83MOL    H5534659   4.830   6.701   1.191 -0.7578  1.9633  1.1567
   83MOL    H5634660   4.918   6.600   0.883  1.1345  2.2615 -0.8420
   83MOL    H5734661   4.915   6.530   1.046  0.5484  0.7871  1.1232
   83MOL    H5834662   5.080   6.769   0.792  1.1210  1.3538 -0.3896
   83MOL    H5934663   5.258   6.829   0.646  2.6657  0.4636  1.0707
   83MOL    H6034664   5.475   6.713   0.657  0.9821  0.3976  1.2937
   83MOL    H6134665   5.497   6.496   0.813  0.1970 -0.3260 -0.5665
   83MOL    H6234666   5.315   6.442   0.950 -1.6153 -0.0054  0.1515
   83MOL    H6334667   4.903   6.963   1.074  0.3262  0.2324  0.0323
   83MOL    H6434668   4.767   6.882   1.040  2.0430 -1.6959 -1.0156
   83MOL    C6534669   4.758   6.988   1.239  0.1324 -0.0268  0.4624
   83MOL    O6634670   4.670   6.903   1.311 -0.8747  0.4203 -0.0030
   83MOL    C6734671   4.557   6.849   1.245  0.0779  0.6118  0.3200
   83MOL    O6834672   4.441   6.918   1.269 -0.5930  0.4582  0.2460
   83MOL    C6934673   4.376   6.898   1.392  0.3663 -1.0775  0.0268
   83MOL    C7034674   4.255   6.976   1.409  0.2494  0.2659 -0.3742
   83MOL    C7134675   4.188   6.968   1.535 -0.2673  0.6241  0.3405
   83MOL    C7234676   4.245   6.888   1.637  0.7618  0.4113 -0.1509
   83MOL    C7334677   4.363   6.813   1.616 -0.0867  0.0449 -0.0929
   83MOL    C7434678   4.436   6.816   1.497 -0.8178 -0.0284  0.0537
   83MOL    C7534679   4.867   7.041   1.334  0.1334 -0.1915 -0.7128
   83MOL    H7634680   4.696   7.070   1.205 -0.9932 -0.4897  1.3657
   83MOL    H7734681   4.550   6.743   1.267  1.8601  0.3297 -0.3592
   83MOL    H7834682   4.567   6.859   1.137 -0.5698  1.6688  0.3497
   83MOL    H7934683   4.227   7.034   1.322  1.3377  0.4527 -0.6079
   83MOL    H8034684   4.097   7.019   1.563  0.0880  1.6866 -0.4023
   83MOL    H8134685   4.196   6.888   1.733  1.4606 -0.4139  0.2139
   83MOL    H8234686   4.403   6.758   1.700  1.0282 -3.2085 -2.6600
   83MOL    H8334687   4.533   6.773   1.479  0.6113  2.4133  1.6812
   83MOL    H8434688   4.901   6.957   1.394  1.2392  0.9176  0.2418
   83MOL    H8534689   4.954   7.062   1.272 -0.3716  1.0496 -1.0046
   83MOL    C8634690   4.827   7.164   1.414  0.5287 -0.2695  0.7288
   83MOL    O8734691   4.910   7.173   1.534 -0.0633  0.0120 -0.2879
   83MOL    C8834692   4.836   7.147   1.651 -0.5337 -0.0304  0.3068
   83MOL    O8934693   4.762   7.251   1.687  0.2268  0.0516 -0.5717
   83MOL    C9034694   4.759   7.295   1.816 -0.5987  0.0791  0.0636
   83MOL    C9134695   4.746   7.427   1.835  0.5902 -0.2156  0.3720
   83MOL    C9234696   4.746   7.485   1.961  0.1489 -0.2330  0.0403
   83MOL    C9334697   4.764   7.403   2.073 -0.2244 -0.0216  0.4542
   83MOL    C9434698   4.775   7.262   2.060 -0.2890 -0.3005 -0.5122
   83MOL    C9534699   4.766   7.212   1.928  0.6170 -1.0832  0.0878
   83MOL    C9634700   4.859   7.288   1.326 -0.2407 -0.4304  0.3736
   83MOL    H9734701   4.720   7.168   1.436  0.1085  0.3009 -1.3488
   83MOL    H9834702   4.901   7.122   1.735  0.1543 -1.4262 -0.6210
   83MOL    H9934703   4.766   7.064   1.641  0.6342 -0.8689 -1.1231
   83MOL   H10034704   4.735   7.483   1.744  4.3652  1.0186  0.6022
   83MOL   H10134705   4.738   7.592   1.977  2.6594  0.1899 -1.3015
   83MOL   H10234706   4.772   7.434   2.176 -1.3360 -1.6296  1.0539
   83MOL   H10334707   4.784   7.200   2.147 -1.4027  0.6409  0.2940
   83MOL   H10434708   4.768   7.105   1.918  1.0175 -0.9129 -1.7426
   83MOL   H10534709   4.965   7.297   1.348  0.0176 -0.8684 -0.6514
   83MOL   H10634710   4.844   7.262   1.221 -0.8779 -2.1796  0.8878
   83MOL   C10734711   4.789   7.418   1.354 -0.1346 -0.0926  0.4639
   83MOL   O10834712   4.886   7.530   1.362 -0.4809 -0.4289  0.3994
   83MOL   C10934713   4.840   7.637   1.443  0.1656 -0.0992  0.1637
   83MOL   O11034714   4.945   7.714   1.493 -0.1420  0.2323 -0.1126
   83MOL   C11134715   5.013   7.664   1.602 -0.3363  0.1857 -0.1869
   83MOL   C11234716   5.025   7.528   1.625  0.3692 -0.1789 -0.5610
   83MOL   C11334717   5.091   7.485   1.743 -0.3564 -0.4855  0.2761
   83MOL   C11434718   5.159   7.578   1.824  0.6339 -0.3456 -0.2541
   83MOL   C11534719   5.160   7.711   1.784 -0.2851  0.1041 -0.2390
   83MOL   C11634720   5.091   7.755   1.671  0.2065 -0.4750 -0.1635
   83MOL   C11734721   4.664   7.460   1.275  0.3182 -0.4160 -0.2345
   83MOL   H11834722   4.753   7.398   1.455 -3.7467  1.2879 -0.4676
   83MOL   H11934723   4.789   7.593   1.529  0.1992 -0.3132  0.0748
   83MOL   H12034724   4.775   7.701   1.384 -1.8800  1.6615  4.1216
   83MOL   H12134725   4.977   7.457   1.559 -1.5775  1.2869 -0.7544
   83MOL   H12234726   5.110   7.382   1.771  0.7440 -0.1719  0.7126
   83MOL   H12334727   5.209   7.549   1.915  0.2871  0.5753  0.2383
   83MOL   H12434728   5.222   7.782   1.836  1.3850 -2.0154  0.7271
   83MOL   H12534729   5.084   7.860   1.646 -0.9713 -0.8652 -1.5251
   83MOL   H12634730   4.675   7.454   1.167 -0.8392  0.1901 -0.3963
   83MOL   H12734731   4.638   7.565   1.288  1.1501  0.0149 -2.0179
   83MOL   C12834732   4.534   7.391   1.323 -0.1965 -0.2040 -0.3832
   83MOL   O12934733   4.438   7.400   1.216  0.2159 -0.7288 -0.1643
   83MOL   C13034734   4.431   7.281   1.141 -0.0311 -0.6259  0.1422
   83MOL   O13134735   4.551   7.247   1.083 -0.0686 -0.4937  0.2702
   83MOL   C13234736   4.551   7.154   0.985 -0.3777 -0.0102  0.0668
   83MOL   C13334737   4.440   7.066   0.955  0.6558 -0.0420 -0.5643
   83MOL   C13434738   4.447   6.974   0.853 -0.2401  0.3670  0.4956
   83MOL   C13534739   4.557   6.973   0.770  0.0113  0.5953  0.2664
   83MOL   C13634740   4.667   7.055   0.800  0.5100  0.2274  0.3840
   83MOL   C13734741   4.663   7.149   0.902 -0.6696 -0.3438  0.2426
   83MOL   C13834742   4.467   7.462   1.441 -0.5383  0.4997  0.1551
   83MOL   H13934743   4.550   7.290   1.361  0.9142 -0.2460 -0.9503
   83MOL   H14034744   4.342   7.276   1.078 -0.2023  1.6643  0.1570
   83MOL   H14134745   4.428   7.201   1.214 -1.0227 -0.6747  0.0529
   83MOL   H14234746   4.352   7.075   1.018 -0.5267 -0.5886 -2.0892
   83MOL   H14334747   4.359   6.919   0.827 -0.4663 -0.7249  3.3271
   83MOL   H14434748   4.566   6.892   0.698 -1.2692  0.5893  0.0982
   83MOL   H14534749   4.760   7.039   0.747  0.3384 -1.9246  0.6947
   83MOL   H14634750   4.754   7.203   0.924 -1.2123 -0.0371  1.7798
   83MOL   H14734751   4.549   7.502   1.501  0.7342  1.3452 -2.0665
   83MOL   H14834752   4.413   7.543   1.392 -0.1751 -0.5692 -2.0560
   83MOL   C14934753   4.366   7.379   1.526 -1.0111  0.2590  0.2899
   83MOL   O15034754   4.441   7.334   1.638  0.3463  0.2285 -0.3368
   83MOL   C15134755   4.411   7.204   1.686  0.2367 -0.4625  0.5392
   83MOL   O15234756   4.285   7.203   1.729  0.1446 -0.4523 -0.3562
   83MOL   C15334757   4.254   7.233   1.864 -0.8752 -0.6296 -0.0132
   83MOL   C15434758   4.338   7.311   1.945  0.5090 -0.8642 -0.1318
   83MOL   C15534759   4.300   7.348   2.073  0.4440  0.4447 -0.3556
   83MOL   C15634760   4.177   7.312   2.125  0.1355 -0.2561 -0.0730
   83MOL   C15734761   4.086   7.233   2.043 -0.1016  0.1491  0.1099
   83MOL   C15834762   4.130   7.193   1.914  0.3213 -0.2615 -0.5661
   83MOL   C15934763   4.247   7.464   1.575 -0.1674  0.1224  0.0498
   83MOL   H16034764   4.320   7.296   1.473  0.3292  1.0163 -2.1518
   83MOL   H16134765   4.428   7.133   1.605  1.9014 -2.2903  2.4400
   83MOL   H16234766   4.491   7.175   1.754 -0.3032  0.0453  1.3915
   83MOL   H16334767   4.435   7.348   1.914  0.8701  0.6874  2.6988
   83MOL   H16434768   4.359   7.410   2.139 -0.7973 -1.9888  3.1791
   83MOL   H16534769   4.145   7.354   2.219  0.5999 -0.8437  0.3598
   83MOL   H16634770   3.983   7.210   2.070 -0.7616  0.9147 -1.6854
   83MOL   H16734771   4.062   7.138   1.851 -1.0102  1.4903 -0.6757
   83MOL   H16834772   4.271   7.570   1.573  0.8769 -0.0547  1.7831
   83MOL   H16934773   4.229   7.434   1.678  0.5679  1.0690  0.4555
   83MOL   C17034774   4.113   7.453   1.503 -0.4024  0.4512  0.4186
   83MOL   O17134775   4.016   7.529   1.580  0.2919  0.9887 -0.0485
   83MOL   C17234776   3.946   7.466   1.675 -0.1649 -0.5129  0.2283
   83MOL   O17334777   3.861   7.367   1.626 -0.0759 -0.2980  0.3242
   83MOL   C17434778   3.752   7.402   1.552 -0.5057 -0.4272  0.2070
   83MOL   C17534779   3.661   7.296   1.518 -0.3671  0.3942  0.1271
   83MOL   C17634780   3.546   7.323   1.447 -0.8827 -0.6241 -0.6646
   83MOL   C17734781   3.507   7.455   1.421  0.1002 -0.0609 -0.0230
   83MOL   C17834782   3.593   7.561   1.447 -0.5665 -0.4516 -0.8183
   83MOL   C17934783   3.713   7.533   1.514 -1.0570  0.2643 -0.8340
   83MOL   C18034784   4.120   7.499   1.349  0.0148  0.7480 -0.3197
   83MOL   H18134785   4.099   7.345   1.510 -0.8633  0.4455 -0.5769
   83MOL   H18234786   3.879   7.532   1.731 -0.0795 -0.2053 -0.0284
   83MOL   H18334787   4.009   7.412   1.746  1.3144 -0.1359 -0.7695
   83MOL   H18434788   3.671   7.192   1.544  0.4615  0.9182  2.0292
   83MOL   H18534789   3.480   7.247   1.408 -3.2475  0.6395  0.7456
   83MOL   H18634790   3.417   7.479   1.367 -1.0062 -0.9232  1.4077
   83MOL   H18734791   3.564   7.664   1.429  1.7081  0.7724  2.0874
   83MOL   H18834792   3.776   7.615   1.545  1.2668 -2.9148  3.4055
   83MOL   H18934793   4.099   7.605   1.365  1.7625  0.9642  0.5593
   83MOL   H19034794   4.220   7.477   1.314  0.2048 -0.4897  0.9909
   83MOL   C19134795   4.013   7.438   1.248  0.0049  0.0386 -0.3598
   83MOL   O19234796   4.040   7.296   1.245  0.1916 -0.4589  0.2101
   83MOL   C19334797   3.933   7.209   1.270  0.2762 -1.0868 -0.6230
   83MOL   O19434798   3.970   7.075   1.288 -0.1196 -0.6140  0.1554
   83MOL   C19534799   3.992   7.003   1.171  0.0477  0.9026 -0.0549
   83MOL   C19634800   3.977   6.859   1.181 -0.5266 -0.1759 -0.3737
   83MOL   C19734801   4.027   6.782   1.071 -0.0560 -0.0650  0.2157
   83MOL   C19834802   4.086   6.839   0.960 -0.5027  0.1022 -0.0807
   83MOL   C19934803   4.081   6.979   0.948 -0.0823 -0.4941 -0.2325
   83MOL   C20034804   4.041   7.060   1.050  0.1142 -0.4167 -0.0471
   83MOL   C20134805   4.013   7.505   1.109  0.3171  0.6244  0.1054
   83MOL   H20234806   3.919   7.455   1.300  0.5487  1.2312  0.2784
   83MOL   H20334807   3.866   7.210   1.185 -0.6423 -0.3158  0.1102
   83MOL   H20434808   3.877   7.248   1.354 -1.0699 -0.2949 -1.8841
   83MOL   H20534809   3.940   6.806   1.268 -1.2475 -0.5277 -0.8895
   83MOL   H20634810   4.002   6.677   1.081  1.4837 -0.4252  0.5360
   83MOL   H20734811   4.094   6.776   0.873 -2.1280  1.2454 -1.0840
   83MOL   H20834812   4.115   7.027   0.857  5.7270 -1.6331  1.1056
   83MOL   H20934813   4.046   7.168   1.039  0.4525 -0.2651  1.5325
   83MOL   H21034814   3.996   7.610   1.129  0.6061  0.9371 -1.2150
   83MOL   H21134815   4.106   7.483   1.055  2.4395  3.6069  2.4031
   83MOL   C21234816   3.898   7.451   1.020 -0.2667  0.1383  0.4422
   83MOL   O21334817   3.766   7.463   1.087  0.3905 -0.5272  0.1530
   83MOL   C21434818   3.661   7.391   1.032  0.1430 -0.5244 -0.7996
   83MOL   O21534819   3.676   7.260   1.062  0.0725  0.4264 -0.2070
   83MOL   C21634820   3.569   7.171   1.050  0.3153  0.5106  0.9774
   83MOL   C21734821   3.433   7.203   1.059 -1.0198  0.5458  1.1085
   83MOL   C21834822   3.334   7.107   1.062 -0.7872 -0.0604 -0.2724
   83MOL   C21934823   3.368   6.972   1.041  0.3529  0.1625  0.1227
   83MOL   C22034824   3.507   6.935   1.034  0.4414 -0.8008  0.0821
   83MOL   C22134825   3.608   7.035   1.039 -0.3096  0.5774 -0.8580
   83MOL   C22234826   3.901   7.532   0.887  0.3278 -0.1611 -0.6534
   83MOL   H22334827   3.911   7.345   0.999  1.1055  0.9755 -3.3180
   83MOL   H22434828   3.647   7.401   0.925 -1.7264  2.0833 -0.3590
   83MOL   H22534829   3.573   7.429   1.085  0.5856 -1.7776  0.8920
   83MOL   H22634830   3.399   7.304   1.075  1.4350  1.7762 -1.1979
   83MOL   H22734831   3.230   7.134   1.076 -1.2202 -2.1973  0.9040
   83MOL   H22834832   3.288   6.901   1.025 -0.8087  1.4232  0.2499
   83MOL   H22934833   3.526   6.831   1.016  0.0239 -1.0812  1.2313
   83MOL   H23034834   3.712   7.015   1.020 -0.0480  2.2153 -1.2177
   83MOL   H23134835   3.819   7.494   0.826  0.9750  0.1994 -1.7502
   83MOL   H23234836   3.872   7.634   0.913 -2.1453 -0.6024 -1.5230
   83MOL   C23334837   4.026   7.545   0.795 -0.4184 -0.3321 -0.1783
   83MOL   O23434838   4.064   7.408   0.779 -0.3068 -0.1053 -0.5960
   83MOL   C23534839   4.187   7.372   0.721 -0.2416 -0.3737 -0.4217
   83MOL   O23634840   4.182   7.356   0.583 -0.5101  0.0517 -0.7641
   83MOL   C23734841   4.283   7.298   0.514 -0.3728  0.8196 -0.4223
   83MOL   C23834842   4.272   7.315   0.373  0.1110  0.4513  0.2064
   83MOL   C23934843   4.370   7.267   0.284 -0.0503 -0.4396  0.0860
   83MOL   C24034844   4.475   7.191   0.336 -0.2664 -0.8741  0.1630
   83MOL   C24134845   4.490   7.172   0.477  0.1581 -0.0718  0.8766
   83MOL   C24234846   4.393   7.223   0.572 -0.1954  0.0069 -0.1583
   83MOL   C24334847   4.007   7.609   0.656 -0.2876  0.1682  0.0624
   83MOL   H24434848   4.101   7.594   0.856  0.3574 -1.6142 -0.0794
   83MOL   H24534849   4.209   7.272   0.758  0.9498  0.8521  2.2960
   83MOL   H24634850   4.272   7.436   0.743 -1.0912 -0.1223  2.3128
   83MOL   H24734851   4.195   7.376   0.328 -0.8395 -0.0811  1.0812
   83MOL   H24834852   4.366   7.278   0.176  2.2291 -2.8241 -0.3056
   83MOL   H24934853   4.556   7.155   0.275 -1.8655 -0.7115 -2.1164
   83MOL   H25034854   4.583   7.127   0.508  0.4065 -1.8519 -2.1814
   83MOL   H25134855   4.417   7.207   0.676  2.5736 -2.4162 -1.0919
   83MOL   H25234856   4.101   7.582   0.608  1.0115  1.1085  1.9917
   83MOL   H25334857   3.926   7.560   0.604 -1.2021  0.2323  1.4035
   83MOL   C25434858   3.990   7.764   0.660  0.2683  0.2421  0.1258
   83MOL   O25534859   4.109   7.830   0.709  0.1282  0.1112  0.0632
   83MOL   C25634860   4.086   7.948   0.770 -0.2720 -0.0827  0.8359
   83MOL   O25734861   4.025   7.929   0.894 -0.6121 -0.4451  0.9128
   83MOL   C25834862   4.098   7.889   1.001 -0.1581  0.0522 -0.5388
   83MOL   C25934863   4.039   7.901   1.132  0.0354 -0.2182  0.3053
   83MOL   C26034864   4.112   7.872   1.245  0.4983  0.0831  0.0979
   83MOL   C26134865   4.240   7.812   1.241  0.3017  0.2640  0.3313
   83MOL   C26234866   4.296   7.790   1.115  0.3815 -0.0311 -0.6265
   83MOL   C26334867   4.231   7.827   0.994 -0.5189  0.4240 -0.3752
   83MOL   C26434868   3.958   7.817   0.521  0.3067 -0.2193  0.4526
   83MOL   H26534869   3.907   7.783   0.729 -0.8314  2.5881 -1.7744
   83MOL   H26634870   4.031   0.042   0.706  0.1589 -2.5226 -2.3463
   83MOL   H26734871   4.182   0.023   0.774 -0.7058  0.7777  0.4426
   83MOL   H26834872   3.940   7.945   1.139  0.5290  0.5716  2.9335
   83MOL   H26934873   4.061   7.901   1.336 -1.1178 -0.6336 -0.5455
   83MOL   H27034874   4.295   7.779   1.328 -0.4135 -0.6571  0.4430
   83MOL   H27134875   4.393   7.742   1.114 -0.7409 -2.3494 -1.8604
   83MOL   H27234876   4.284   7.805   0.903  1.7830  2.5296  0.4057
   83MOL   H27334877   3.995   7.919   0.507 -0.1894 -0.1420 -0.3629
   83MOL   H27434878   4.012   7.751   0.453  1.6117  0.2921  0.9753
   83MOL   C27534879   3.806   7.799   0.499  0.4252 -0.3546  0.3218
   83MOL   O27634880   3.738   7.903   0.567 -0.3946  0.6385  0.2603
   83MOL   C27734881   3.600   7.878   0.599 -0.6050  0.1155  0.1027
   83MOL   O27834882   3.594   7.776   0.695  0.1609  0.2292  0.7113
   83MOL   C27934883   3.624   7.818   0.826 -0.6821  0.1437 -0.1579
   83MOL   C28034884   3.694   7.939   0.860  0.4675  0.2241  0.2549
   83MOL   C28134885   3.713   7.967   1.000  0.1331 -0.0716 -0.4593
   83MOL   C28234886   3.683   7.870   1.100  0.3226 -0.1126 -0.1393
   83MOL   C28334887   3.626   7.749   1.059  0.8688 -0.3995 -0.4525
   83MOL   C28434888   3.585   7.729   0.928 -0.1551 -0.0194  0.1476
   83MOL   C28534889   3.765   7.789   0.349 -0.0552 -0.7111 -0.7662
   83MOL   H28634890   3.775   7.701   0.536 -0.3679 -0.9217 -1.7393
   83MOL   H28734891   3.542   7.854   0.510 -1.5385 -3.1305  1.4871
   83MOL   H28834892   3.564   0.000   0.631  2.4835  1.5844 -0.7546
   83MOL   H28934893   3.738   0.026   0.784 -0.3122 -0.1615 -0.5305
   83MOL   H29034894   3.771   0.078   1.029  2.8761 -1.5090 -1.5572
   83MOL   H29134895   3.711   7.895   1.201  0.2314  2.4422 -0.6959
   83MOL   H29234896   3.604   7.674   1.134 -0.2002  1.2700  0.9434
   83MOL   H29334897   3.542   7.637   0.890 -0.3662  0.2279 -0.2166
   83MOL   H29434898   3.660   7.764   0.336  0.2193 -1.6159 -1.3339
   83MOL   H29534899   3.810   7.696   0.314 -2.4122 -1.4399 -1.9572
   83MOL   C29634900   3.797   7.913   0.260  0.4944 -0.7734 -1.1041
   83MOL   O29734901   3.814   7.872   0.126 -0.2342  0.4757  0.2303
   83MOL   C29834902   3.947   7.849   0.088 -0.2495 -0.5343  1.3557
   83MOL   O29934903   4.010   7.751   0.152 -0.1801  0.4721  0.5757
   83MOL   C30034904   4.142   7.734   0.121  0.1012 -0.2015  0.8884
   83MOL   C30134905   4.201   7.773   7.973 -0.2038 -0.7616  0.4125
   83MOL   C30234906   4.339   7.762   7.938  0.3663 -0.2060 -0.3148
   83MOL   C30334907   4.420   7.705   0.062 -0.7712  0.6647  0.6848
   83MOL   C30434908   4.365   7.656   0.184 -0.5296  0.4590 -0.0701
   83MOL   C30534909   4.226   7.669   0.212 -0.7425  0.4815  0.5749
   83MOL   C30634910   3.686   0.041   0.256  0.1626 -0.5220  0.1777
   83MOL   H30734911   3.874   0.007   0.294 -0.1184 -0.2773 -0.7178
   83MOL   H30834912   4.002   7.943   0.087 -1.1879  0.0260 -0.5343
   83MOL   H30934913   3.932   7.816   7.961  1.4951  1.2973  0.4847
   83MOL   H31034914   4.146   7.827   7.897 -1.4071 -0.6684  1.3249
   83MOL   H31134915   4.382   7.799   7.846  0.8870  0.2446  0.1081
   83MOL   H31234916   4.525   7.679   0.055 -1.2257 -1.9496  2.4800
   83MOL   H31334917   4.422   7.596   0.253 -1.8234 -0.5885  0.1024
   83MOL   H31434918   4.189   7.626   0.305  3.1101 -2.5548  0.8276
   83MOL   H31534919   3.649   0.065   0.356  1.2648 -2.5002  1.0910
   83MOL   H31634920   3.600   7.969   0.210  1.8404  0.3691 -4.0912
   83MOL   C31734921   3.725   0.174   0.188  0.3546  0.0267 -0.5019
   83MOL   O31834922   3.649   0.282   0.238  0.3091 -0.0174 -0.8411
   83MOL   C31934923   3.716   0.351   0.337  0.1452  0.7235  0.5931
   83MOL   O32034924   3.751   0.274   0.442  0.9733 -0.4162 -0.1500
   83MOL   C32134925   3.817   0.334   0.546  0.7321 -0.8600 -0.4857
   83MOL   C32234926   3.871   0.255   0.641  0.1569 -0.0716  0.0104
   83MOL   C32334927   3.938   0.307   0.757 -0.4749 -0.0834  0.0572
   83MOL   C32434928   3.940   0.444   0.784 -0.7358  0.0000  0.9763
   83MOL   C32534929   3.880   0.528   0.690 -0.7800 -0.3561 -0.4970
   83MOL   C32634930   3.822   0.474   0.577 -0.7717 -0.0340  0.0458
   83MOL   C32734931   3.695   0.176   0.037  0.0677 -0.0067  0.4486
   83MOL   H32834932   3.832   0.192   0.200  0.2366  1.4812 -1.5054
   83MOL   H32934933   3.644   0.429   0.361 -1.8839 -0.3083 -1.9119
   83MOL   H33034934   3.801   0.402   0.291  0.6621 -0.5278  0.1543
   83MOL   H33134935   3.861   0.149   0.619 -1.3222 -0.2587  1.4596
   83MOL   H33234936   3.994   0.248   0.828 -0.6136  0.4377  0.6056
   83MOL   H33334937   3.994   0.486   0.868 -0.8516  0.8908  0.6077
   83MOL   H33434938   3.868   0.634   0.707 -1.5010 -0.3081 -1.2709
   83MOL   H33534939   3.777   0.540   0.505 -0.2988 -0.4700 -0.6510
   83MOL   H33634940   3.645   0.087   0.001  0.2250 -0.0004  0.2113
   83MOL   H33734941   3.622   0.252   0.010 -2.0439 -0.5751  4.2560
   83MOL   C33834942   3.826   0.194   7.932 -0.7806  0.3188  0.3638
   83MOL   O33934943   3.790   0.178   7.790  0.1555 -0.1488 -0.1733
   83MOL   C34034944   3.813   0.047   7.747  0.5404 -0.0956 -0.2730
   83MOL   O34134945   3.949   0.035   7.730  0.0277  0.1554 -0.1960
   83MOL   C34234946   3.997   7.891   7.688 -0.4612  0.3802 -0.0575
   83MOL   C34334947   4.131   7.886   7.647  0.4535 -0.1111 -0.5873
   83MOL   C34434948   4.189   7.769   7.601 -0.0999  0.0259  0.7161
   83MOL   C34534949   4.121   7.649   7.597 -0.7854  0.3588  0.0352
   83MOL   C34634950   3.990   7.641   7.650  0.8013 -0.6586 -0.7593
   83MOL   C34734951   3.930   7.765   7.698  1.1136  0.9194  0.6602
   83MOL   C34834952   3.879   0.335   7.939  0.4380 -0.3582 -0.4569
   83MOL   H34934953   3.910   0.127   7.949 -1.2683 -0.5547 -0.6273
   83MOL   H35034954   3.765   0.041   7.650 -0.8401 -0.4865  0.4138
   83MOL   H35134955   3.776   7.949   7.820 -0.4869  0.7958  0.1124
   83MOL   H35234956   4.186   0.002   7.638  0.4496 -0.1264 -0.7589
   83MOL   H35334957   4.288   7.767   7.559 -1.1309 -1.1172 -1.8021
   83MOL   H35434958   4.177   7.564   7.562 -1.6453  0.2273 -1.0503
   83MOL   H35534959   3.949   7.542   7.660 -1.4232  0.4486  1.7985
   83MOL   H35634960   3.837   7.764   7.753  0.7257  1.4396  0.0145
   83MOL   H35734961   3.878   0.363   0.069  1.4736  1.3455 -0.8872
   83MOL   H35834962   3.804   0.399   7.892 -1.7021 -0.1554  3.0695
   83MOL   C35934963   4.021   0.346   7.875 -0.2774  0.4685  0.1111
   83MOL   O36034964   4.118   0.380   7.973 -0.5387 -0.4318  0.6199
   83MOL   C36134965   4.216   0.281   0.025  0.2544 -0.8554  0.3425
   83MOL   O36234966   4.169   0.180   0.096 -0.0416 -0.1952 -0.0255
   83MOL   C36334967   4.207   0.185   0.226 -0.2168  0.0373 -0.2395
   83MOL   C36434968   4.177   0.290   0.312 -0.7183 -0.5362  0.2715
   83MOL   C36534969   4.207   0.285   0.447  0.1645 -0.2354 -0.3080
   83MOL   C36634970   4.283   0.176   0.489 -0.3295 -0.0909  0.2756
   83MOL   C36734971   4.305   0.061   0.412 -0.3629 -0.1666 -0.2134
   83MOL   C36834972   4.265   0.068   0.276  0.5540 -1.1551  0.2612
   83MOL   C36934973   4.014   0.460   7.779  0.1058 -0.5454 -0.1753
   83MOL   H37034974   4.037   0.256   7.815 -1.0513  0.2329  0.2475
   83MOL   H37134975   4.291   0.343   0.075 -1.0178 -0.8330  2.3018
   83MOL   H37234976   4.268   0.253   7.909 -3.5125 -2.0434 -1.5152
   83MOL   H37334977   4.115   0.366   0.269  0.7384 -0.3309 -1.5075
   83MOL   H37434978   4.200   0.370   0.514  2.2144 -0.1351 -0.2047
   83MOL   H37534979   4.325   0.186   0.588  0.7661  1.5878 -0.3437
   83MOL   H37634980   4.365   7.959   0.458  1.1378  1.1691  0.0993
   83MOL   H37734981   4.284   7.957   0.214 -0.0419 -1.6048  0.6959
   83MOL   H37834982   4.005   0.558   7.826 -1.3865 -1.0385  0.6003
   83MOL   H37934983   3.925   0.444   7.718 -0.1943  0.3182  0.0302
   83MOL   C38034984   4.137   0.462   7.692  0.1286  0.4785  0.1151
   83MOL   O38134985   4.143   0.593   7.637 -0.2236 -0.2211 -0.1303
   83MOL   C38234986   4.235   0.677   7.706 -0.4499 -0.3845  0.1229
   83MOL   O38334987   4.367   0.636   7.700  0.2430 -0.2595  0.0895
   83MOL   C38434988   4.456   0.690   7.791  0.0544  0.3302  0.4875
   83MOL   C38534989   4.417   0.780   7.895 -0.2485  0.6194  1.0650
   83MOL   C38634990   4.506   0.839   0.009 -0.5639  0.1076  0.1692
   83MOL   C38734991   4.645   0.820   7.960 -0.4452  0.2524 -0.0212
   83MOL   C38834992   4.683   0.727   7.855 -0.6256  0.5810 -0.3799
   83MOL   C38934993   4.593   0.656   7.774  0.0450  0.4987 -0.6701
   83MOL   C39034994   4.136   0.363   7.566 -0.7430 -0.0795 -0.5847
   83MOL   H39134995   4.222   0.435   7.754 -0.0768 -4.9483 -1.6970
   83MOL   H39234996   4.225   0.773   7.655  0.2447 -0.6189 -0.4705
   83MOL   H39334997   4.198   0.692   7.807 -1.4964  0.7610 -0.4168
   83MOL   H39434998   4.315   0.815   7.905 -0.9710 -0.7293 -1.1041
   83MOL   H39534999   4.478   0.910   0.086 -1.1835 -0.7106  0.6999
   83MOL   H39635000   4.720   0.870   0.044  0.1873  2.3088 -2.4437
   83MOL   H39735001   4.785   0.695   7.849 -0.8451 -0.0003 -1.1123
   83MOL   H39835002   4.620   0.580   7.703 -0.5808  0.8053 -1.2406
   83MOL   H39935003   4.083   0.394   7.476  2.4999  0.5104 -2.3792
   83MOL   H40035004   4.095   0.266   7.593  0.9250 -0.9219 -1.0653
   83MOL   C40135005   4.281   0.337   7.517  0.6513  0.6521  0.3777
   83MOL   O40235006   4.340   0.246   7.611  0.4763 -0.2810  0.2865
   83MOL   C40335007   4.468   0.274   7.656  0.0979 -0.0844 -0.6562
   83MOL   O40435008   4.559   0.286   7.551 -0.3798  0.2060 -0.2026
   83MOL   C40535009   4.683   0.344   7.588 -0.7282 -0.1864 -0.6611
   83MOL   C40635010   4.770   0.302   7.697  0.0540 -0.5301 -0.2772
   83MOL   C40735011   4.893   0.376   7.716 -0.7634  0.4732 -0.3005
   83MOL   C40835012   4.929   0.482   7.626  0.1956  0.4558 -0.4123
   83MOL   C40935013   4.842   0.518   7.519  0.2148  0.8509 -0.3440
   83MOL   C41035014   4.723   0.452   7.504 -0.0263  0.3315  0.3833
   83MOL   C41135015   4.273   0.264   7.382 -0.1088 -0.0762  0.1735
   83MOL   H41235016   4.346   0.425   7.516 -1.1787  2.0546 -0.1109
   83MOL   H41335017   4.485   0.191   7.725  0.1467 -0.3729 -1.0133
   83MOL   H41435018   4.479   0.363   7.718  0.6174 -0.5269 -0.0965
   83MOL   H41535019   4.732   0.222   7.760 -1.6139  2.5324  2.7651
   83MOL   H41635020   4.952   0.336   7.796  1.6716 -0.9979 -2.7661
   83MOL   H41735021   5.020   0.537   7.643  0.9135 -0.2937 -1.7081
   83MOL   H41835022   4.867   0.606   7.462  0.5563  1.9437  1.4406
   83MOL   H41935023   4.651   0.486   7.431 -0.6828  0.7813  1.2319
   83MOL   H42035024   4.206   0.311   7.310  0.6055  1.8878  0.7620
   83MOL   H42135025   4.253   0.161   7.410  2.6512 -0.5715  0.5021
   83MOL   H42235026   4.371   0.268   7.334  0.6287  3.4274  1.7899
   84MOL     C135027   0.245   7.107   4.898 -0.1589 -0.3206 -0.2601
   84MOL     O235028   0.212   7.137   5.029 -0.3640  0.1839  0.1715
   84MOL     C335029   0.130   7.038   5.088 -0.6409 -0.3608  0.2886
   84MOL     O435030   7.973   7.053   5.058 -0.1824  0.0209 -0.1165
   84MOL     C535031   7.905   7.157   5.120 -0.6862  0.4853 -0.1161
   84MOL     C635032   7.959   7.250   5.214 -0.8726 -0.4098  0.3166
   84MOL     C735033   7.877   7.362   5.254  0.0715 -0.1058  0.1646
   84MOL     C835034   7.750   7.378   5.198  0.5931  0.2130  0.1710
   84MOL     C935035   7.706   7.293   5.098 -0.2091  0.6191  0.2453
   84MOL    C1035036   7.781   7.180   5.059  0.4645 -0.0206 -0.1329
   84MOL    C1135037   0.302   7.229   4.821  0.6298 -0.1866  0.8750
   84MOL    H1235038   0.310   7.020   4.902  0.5611  0.3515  3.7591
   84MOL    H1335039   0.167   6.938   5.065 -0.6802  0.1606 -2.0894
   84MOL    H1435040   0.154   7.032   5.195 -0.8931  1.0963  0.4395
   84MOL    H1535041   0.082   7.235   5.254 -1.3114 -3.0496  0.4583
   84MOL    H1635042   7.920   7.431   5.326  0.6562 -0.8331  0.5145
   84MOL    H1735043   7.696   7.471   5.214 -0.6922 -0.7138  1.3486
   84MOL    H1835044   7.612   7.310   5.046 -0.3000 -0.6204  0.0015
   84MOL    H1935045   7.755   7.122   4.973 -1.7861  2.1339 -0.9782
   84MOL    H2035046   0.306   7.203   4.715  1.8481 -1.0326  1.1198
   84MOL    H2135047   0.407   7.231   4.851  0.9089  3.1621 -0.1908
   84MOL    H2235048   0.157   7.077   4.841 -0.5710 -1.1374  0.7849
   84MOL    C2335049   0.229   7.362   4.847 -0.1976 -0.6579  0.9979
   84MOL    O2435050   0.101   7.328   4.794  0.3069 -0.1474 -0.2194
   84MOL    C2535051   7.974   7.389   4.871  0.4780  0.0138 -0.4022
   84MOL    O2635052   7.952   7.526   4.852 -0.6766  0.0361 -0.3678
   84MOL    C2735053   7.901   7.570   4.739  0.8430 -0.9588 -0.2824
   84MOL    C2835054   7.838   7.702   4.747  0.3716  0.3109 -0.5397
   84MOL    C2935055   7.779   7.762   4.639 -0.2755  0.6263  0.3936
   84MOL    C3035056   7.785   7.691   4.518  1.0414 -0.4639 -0.3851
   84MOL    C3135057   7.845   7.565   4.502  0.2100  0.0051  0.4171
   84MOL    C3235058   7.899   7.505   4.615  0.5866  0.6863 -0.3223
   84MOL    C3335059   0.286   7.467   4.748 -0.0845 -0.1527  0.1498
   84MOL    H3435060   0.239   7.402   4.948  2.9651 -0.4359  0.6298
   84MOL    H3535061   0.022   7.376   4.977  2.4104 -0.1711 -0.8376
   84MOL    H3635062   7.878   7.339   4.857 -1.2617  2.5811  1.8790
   84MOL    H3735063   7.838   7.756   4.841 -0.9145  0.4444 -0.6038
   84MOL    H3835064   7.725   7.855   4.650 -0.5221  0.4544  0.6294
   84MOL    H3935065   7.735   7.730   4.431  1.6134 -0.0233 -0.5235
   84MOL    H4035066   7.840   7.525   4.402 -0.0551  0.6670  0.1701
   84MOL    H4135067   7.938   7.404   4.616 -0.1108  0.4276  0.6278
   84MOL    H4235068   0.205   7.538   4.730  1.1399  1.4092  0.6654
   84MOL    H4335069   0.316   7.422   4.653  0.1902  1.4288 -0.5287
   84MOL    C4435070   0.404   7.539   4.809  0.4606  0.0165 -0.1353
   84MOL    O4535071   0.362   7.606   4.924 -0.9720 -0.3815  0.1143
   84MOL    C4635072   0.468   7.666   5.000  0.5757 -0.2311  0.1856
   84MOL    O4735073   0.532   7.576   5.080 -0.6382  0.5844  0.2594
   84MOL    C4835074   0.455   7.543   5.193  0.5157  0.1500  0.4099
   84MOL    C4935075   0.445   7.637   5.297 -0.3212 -0.0489  0.5386
   84MOL    C5035076   0.392   7.608   5.421 -1.2017 -0.3861 -0.3080
   84MOL    C5135077   0.348   7.474   5.445 -0.1750  0.5097 -0.2980
   84MOL    C5235078   0.364   7.373   5.345 -0.7271  0.4362 -0.2819
   84MOL    C5335079   0.421   7.407   5.221 -0.0596 -0.6588 -0.4429
   84MOL    C5435080   0.475   7.625   4.701  0.0006 -0.2813 -0.1626
   84MOL    H5535081   0.472   7.462   4.845  1.5602  0.8079 -0.4693
   84MOL    H5635082   0.420   7.744   5.060 -0.8298  0.5097 -1.8556
   84MOL    H5735083   0.543   7.723   4.945 -1.3498  2.3934  0.1816
   84MOL    H5835084   0.475   7.739   5.280  2.4690 -1.1769 -1.7666
   84MOL    H5935085   0.391   7.673   5.507  1.6463  0.5312 -0.9001
   84MOL    H6035086   0.305   7.453   5.542 -0.4886  1.9557 -0.1070
   84MOL    H6135087   0.349   7.267   5.358  0.0334  0.3431 -0.1238
   84MOL    H6235088   0.435   7.327   5.150 -1.1922 -1.7380  0.5139
   84MOL    H6335089   0.571   7.631   4.752 -0.2552  1.0004  0.1823
   84MOL    H6435090   0.490   7.576   4.605 -0.2861 -0.9565  0.1276
   84MOL    C6535091   0.414   7.769   4.669  0.4035  0.4673  0.7985
   84MOL    O6635092   0.519   7.841   4.597 -0.0344 -0.4207 -0.2878
   84MOL    C6735093   0.591   7.930   4.678 -1.1069  0.1217 -0.1837
   84MOL    O6835094   0.525   0.070   4.711  0.1936  0.1751  0.3189
   84MOL    C6935095   0.493   0.158   4.607  0.3901  0.5600  0.2698
   84MOL    C7035096   0.499   0.128   4.468  0.1705  0.1302  0.0672
   84MOL    C7135097   0.468   0.226   4.369 -0.0607  0.2290  0.1677
   84MOL    C7235098   0.434   0.357   4.405  0.3991  0.0373  0.1905
   84MOL    C7335099   0.429   0.386   4.547 -0.5503  0.3959 -0.9729
   84MOL    C7435100   0.438   0.280   4.645  0.3181  0.4431 -0.3665
   84MOL    C7535101   0.286   7.779   4.575  0.5530  0.1108 -0.1000
   84MOL    H7635102   0.386   7.829   4.756  0.3942  1.0371  0.4065
   84MOL    H7735103   0.680   7.959   4.622  0.1114 -0.8746  1.1989
   84MOL    H7835104   0.627   7.884   4.771 -1.9279 -0.1062  0.0278
   84MOL    H7935105   0.549   0.037   4.437  2.8571  2.1524 -1.7888
   84MOL    H8035106   0.482   0.216   4.262  2.6339 -0.3174  0.5163
   84MOL    H8135107   0.416   0.434   4.331  0.2281 -1.3146 -1.1991
   84MOL    H8235108   0.400   0.486   4.576  1.0745  0.4582  0.5015
   84MOL    H8335109   0.424   0.305   4.749 -1.3934  1.2901 -0.7881
   84MOL    H8435110   0.225   7.694   4.604 -1.3371  1.0656 -1.2000
   84MOL    H8535111   0.216   7.861   4.588 -0.4493 -1.0637  2.1647
   84MOL    C8635112   0.313   7.766   4.428 -0.6081 -0.3091  0.1096
   84MOL    O8735113   0.364   7.637   4.405  0.2824 -0.3187 -0.1112
   84MOL    C8835114   0.466   7.631   4.309  0.6062 -0.0807 -0.3673
   84MOL    O8935115   0.432   7.658   4.170 -0.0112 -0.3846 -0.6043
   84MOL    C9035116   0.390   7.551   4.090  0.2924  0.0898 -0.3912
   84MOL    C9135117   0.398   7.563   3.948  0.0051 -0.0606 -0.6103
   84MOL    C9235118   0.354   7.461   3.864  0.0293  0.1283  0.5808
   84MOL    C9335119   0.298   7.343   3.916 -0.2146 -0.5537 -0.6442
   84MOL    C9435120   0.289   7.327   4.059 -0.0056  0.6402  0.3325
   84MOL    C9535121   0.326   7.437   4.142 -0.1265  0.0364 -0.1198
   84MOL    C9635122   0.194   7.792   4.337 -0.1811 -0.7381  0.0347
   84MOL    H9735123   0.383   7.847   4.407 -0.8488  0.1293  0.9806
   84MOL    H9835124   0.495   7.526   4.314  0.3964 -0.1842 -1.3294
   84MOL    H9935125   0.547   7.698   4.337  0.9479 -0.0934 -1.3328
   84MOL   H10035126   0.440   7.655   3.910  1.7013 -0.4241  0.3394
   84MOL   H10135127   0.358   7.471   3.757  2.1238  0.0941  0.6416
   84MOL   H10235128   0.269   7.260   3.853 -1.2895 -1.0707  0.5011
   84MOL   H10335129   0.242   7.240   4.101 -0.5837 -0.3584 -2.3006
   84MOL   H10435130   0.301   7.421   4.246 -3.1475 -0.6393 -0.9018
   84MOL   H10535131   0.210   7.755   4.236  0.4147  3.7151 -1.5825
   84MOL   H10635132   0.102   7.744   4.371 -0.7928  0.5802  0.2748
   84MOL   C10735133   0.147   7.936   4.322  0.4996 -0.3514 -0.0310
   84MOL   O10835134   0.130   7.962   4.185  0.1947  0.1577  0.1365
   84MOL   C10935135   0.243   0.017   4.111 -0.3393  0.0106  0.2061
   84MOL   O11035136   0.212   0.102   4.011  0.1741  0.4936  0.6764
   84MOL   C11135137   0.149   0.046   3.903  0.7848 -0.2029  0.3688
   84MOL   C11235138   0.122   7.882   3.883  0.1135  0.4102 -0.0010
   84MOL   C11335139   0.025   7.839   3.791  0.1657 -0.5021 -0.8512
   84MOL   C11435140   7.930   7.937   3.717 -0.0287 -0.1155 -0.4695
   84MOL   C11535141   7.965   0.101   3.723 -0.1164  0.5696  0.7962
   84MOL   C11635142   0.087   0.139   3.813 -0.6677  0.1660 -0.8393
   84MOL   C11735143   0.015   7.962   4.391  0.3393 -0.4969  0.1418
   84MOL   H11835144   0.221   0.032   4.358 -0.5856  1.2687 -1.0147
   84MOL   H11935145   0.291   7.899   4.081 -0.4241  1.2838 -4.1491
   84MOL   H12035146   0.324   0.065   4.166  0.1338 -2.2802  1.5939
   84MOL   H12135147   0.178   7.810   3.942  2.0068  0.5418 -1.5946
   84MOL   H12235148   7.960   7.739   3.792  0.6355 -0.6893 -0.4859
   84MOL   H12335149   7.853   7.905   3.649  0.1868 -2.9510  0.5463
   84MOL   H12435150   7.910   0.179   3.673 -0.8507  0.5789  1.6136
   84MOL   H12535151   0.126   0.239   3.822 -1.9366  0.6913 -1.2300
   84MOL   H12635152   0.022   7.934   4.496 -3.3230 -1.9548  0.0814
   84MOL   H12735153   7.932   7.881   4.347  1.4738 -2.3539  1.9650
   84MOL   C12835154   7.934   0.128   4.376  0.2349 -0.3003  0.4610
   84MOL   O12935155   0.021   0.199   4.483 -0.3957  0.1395 -0.8308
   84MOL   C13035156   0.094   0.315   4.446 -0.5723  0.1269 -0.3601
   84MOL   O13135157   0.029   0.421   4.381 -0.0636  0.1632  0.3513
   84MOL   C13235158   7.916   0.495   4.452  0.9224 -0.3937  0.0862
   84MOL   C13335159   7.865   0.610   4.389  0.1152  0.6030 -0.0518
   84MOL   C13435160   7.775   0.694   4.459 -0.6886  0.3613 -0.4180
   84MOL   C13535161   7.725   0.668   4.588  0.1024  0.2199  0.1836
   84MOL   C13635162   7.775   0.550   4.651 -0.5028 -0.7756 -0.0899
   84MOL   C13735163   7.870   0.468   4.582  0.3372 -0.0379  0.0950
   84MOL   C13835164   7.777   0.136   4.391  0.6161 -0.3003 -0.6139
   84MOL   H13935165   7.962   0.170   4.280 -2.0006 -1.0743 -0.5686
   84MOL   H14035166   0.154   0.283   4.361 -2.7469 -1.5577 -1.2980
   84MOL   H14135167   0.167   0.344   4.522 -0.7815 -1.1388  0.3354
   84MOL   H14235168   7.893   0.628   4.286 -0.8467  2.5401  0.0004
   84MOL   H14335169   7.739   0.785   4.413  0.5801 -0.8858 -4.0809
   84MOL   H14435170   7.648   0.726   4.637  0.4101 -0.1558  1.1297
   84MOL   H14535171   7.757   0.525   4.755 -2.0382 -1.9737 -0.6194
   84MOL   H14635172   7.899   0.378   4.635  1.7277  1.4180  1.8704
   84MOL   H14735173   7.734   0.082   4.475  0.4515 -0.4348 -0.7848
   84MOL   H14835174   7.769   0.239   4.426  2.1261 -0.7784  1.2513
   84MOL   C14935175   7.702   0.119   4.256 -0.2985  0.1477 -0.3472
   84MOL   O15035176   7.722   7.964   4.212 -0.7310  0.2057 -0.1904
   84MOL   C15135177   7.793   7.962   4.085 -0.4191 -0.0321 -0.6883
   84MOL   O15235178   7.714   0.034   3.976 -0.2339 -0.2791  0.1744
   84MOL   C15335179   7.621   7.925   3.920 -0.2770 -0.0491  0.8355
   84MOL   C15435180   7.552   7.829   3.993  0.0325  0.2423  0.3090
   84MOL   C15535181   7.462   7.739   3.935 -0.3976 -0.1458  0.6615
   84MOL   C15635182   7.441   7.749   3.795  0.2780 -0.1275 -0.1117
   84MOL   C15735183   7.512   7.843   3.717 -0.0028  0.5105 -0.4172
   84MOL   C15835184   7.594   7.934   3.781  0.4604 -0.1358  0.7018
   84MOL   C15935185   7.549   0.140   4.266  0.2544 -0.1282 -0.2702
   84MOL   H16035186   7.734   0.198   4.189 -2.8746  0.6706 -1.0429
   84MOL   H16135187   7.888   0.041   4.091 -0.1992 -0.6260  1.3350
   84MOL   H16235188   7.827   7.860   4.067 -0.2551 -0.3419  1.3457
   84MOL   H16335189   7.570   7.836   4.099 -2.2555  0.6877  0.6908
   84MOL   H16435190   7.406   7.676   4.002 -2.8199 -0.3792 -1.5024
   84MOL   H16535191   7.374   7.683   3.741 -0.5242  0.8066 -0.2656
   84MOL   H16635192   7.495   7.856   3.611 -0.3519 -0.8058 -0.5369
   84MOL   H16735193   7.647   0.035   3.726  1.4028 -1.3536 -0.0895
   84MOL   H16835194   7.490   0.127   4.176 -0.6175 -1.5383  0.4952
   84MOL   H16935195   7.556   0.245   4.295 -0.9076  0.1160 -0.8621
   84MOL   C17035196   7.468   0.068   4.382  1.1141  0.3614  0.8350
   84MOL   O17135197   7.333   0.110   4.368  0.1351  0.3468 -0.7138
   84MOL   C17235198   7.295   0.238   4.413  0.4267  0.1013  0.3787
   84MOL   O17335199   7.210   0.236   4.524 -0.0164  0.3932  0.8367
   84MOL   C17435200   7.168   0.358   4.573 -0.3010  0.0666 -0.3102
   84MOL   C17535201   7.071   0.353   4.681  0.0076 -0.4155 -0.1503
   84MOL   C17635202   7.013   0.466   4.737 -1.1106  0.2880 -0.3596
   84MOL   C17735203   7.049   0.591   4.683  0.4770  0.0083 -0.9758
   84MOL   C17835204   7.139   0.603   4.576  0.1494 -0.8010  0.5631
   84MOL   C17935205   7.198   0.486   4.518 -0.3463 -0.1902 -0.0685
   84MOL   C18035206   7.464   7.892   4.371 -0.5548  0.3101 -0.8613
   84MOL   H18135207   7.518   0.095   4.475  1.6227  0.4587  0.5348
   84MOL   H18235208   7.251   0.299   4.333  4.3499  4.1253  1.0918
   84MOL   H18335209   7.384   0.298   4.428  0.5806  0.7936 -2.9063
   84MOL   H18435210   7.045   0.257   4.722 -1.5506  0.4427  0.8919
   84MOL   H18535211   6.941   0.466   4.817 -1.6478 -0.4911 -0.8340
   84MOL   H18635212   7.011   0.681   4.729  1.7338 -0.5201  1.1677
   84MOL   H18735213   7.161   0.700   4.533 -0.2228 -0.9201  0.0934
   84MOL   H18835214   7.270   0.495   4.438  0.1024 -0.0652  0.3504
   84MOL   H18935215   7.412   7.873   4.276  0.0525  1.1643 -1.3736
   84MOL   H19035216   7.563   7.854   4.347 -1.4922 -1.4046 -2.1716
   84MOL   C19135217   7.408   7.811   4.487 -0.2650  0.0961 -0.9023
   84MOL   O19235218   7.468   7.851   4.611 -0.1577  0.1021 -0.3006
   84MOL   C19335219   7.403   7.943   4.689 -0.0760  0.9614  0.4517
   84MOL   O19435220   7.286   7.883   4.741  0.0390  0.3278 -0.3801
   84MOL   C19535221   7.203   7.959   4.819  0.7575  0.2758 -0.0856
   84MOL   C19635222   7.078   7.898   4.845  1.4485  0.2706 -0.1295
   84MOL   C19735223   6.987   7.957   4.932 -0.1975 -0.1856 -0.4972
   84MOL   C19835224   7.029   0.093   5.006  0.1610 -0.0454 -0.6405
   84MOL   C19935225   7.150   0.155   4.977  0.0905 -0.1194 -1.0237
   84MOL   C20035226   7.237   0.110   4.874  0.1924 -0.4350 -0.0466
   84MOL   C20135227   7.428   7.660   4.465 -0.0168  1.0590 -0.3926
   84MOL   H20235228   7.302   7.830   4.504  0.1684  2.0108 -0.2634
   84MOL   H20335229   7.359   0.050   4.631 -1.6529 -0.4828 -0.4777
   84MOL   H20435230   7.471   0.005   4.765  3.3811 -1.1697 -1.4707
   84MOL   H20535231   7.060   7.802   4.798  2.4921  0.9720 -1.9950
   84MOL   H20635232   6.894   7.909   4.959  0.7795 -0.8913  1.7437
   84MOL   H20735233   6.971   0.120   5.094  2.6188  2.7002  0.2346
   84MOL   H20835234   7.180   0.241   5.035  1.0061  0.8947 -2.9425
   84MOL   H20935235   7.335   0.151   4.855 -0.3403  0.1930 -1.5449
   84MOL   H21035236   7.535   7.644   4.462 -0.1140 -0.4977  2.3503
   84MOL   H21135237   7.394   7.616   4.559 -1.4589  1.9746 -0.4524
   84MOL   C21235238   7.356   7.591   4.347 -0.7824 -0.3784  0.9651
   84MOL   O21335239   7.406   7.464   4.331  0.3050  0.5481  0.5492
   84MOL   C21435240   7.483   7.444   4.216  0.5435 -0.6852 -0.4838
   84MOL   O21535241   7.583   7.539   4.204 -0.3741  0.3984 -0.6822
   84MOL   C21635242   7.690   7.526   4.120  0.1916  0.4283 -0.6450
   84MOL   C21735243   7.805   7.611   4.141 -0.9528 -0.2717  1.0150
   84MOL   C21835244   7.923   7.601   4.065 -0.1119  0.3518  0.8053
   84MOL   C21935245   7.933   7.511   3.957  0.8455  0.2803 -0.0581
   84MOL   C22035246   7.820   7.419   3.936  0.0514 -0.4596 -0.8189
   84MOL   C22135247   7.697   7.429   4.017  0.1744  0.7032  0.8073
   84MOL   C22235248   7.201   7.574   4.365  0.0149  0.1183 -0.3646
   84MOL   H22335249   7.376   7.648   4.257 -0.6577 -3.0619 -0.7517
   84MOL   H22435250   7.422   7.451   4.126 -0.3023 -0.7413  0.0785
   84MOL   H22535251   7.529   7.345   4.220 -1.2603 -1.5478 -0.3416
   84MOL   H22635252   7.801   7.687   4.218 -0.6239 -1.5174  2.2923
   84MOL   H22735253   0.029   7.669   4.085  2.5138 -1.2943 -3.6058
   84MOL   H22835254   0.047   7.501   3.897  0.3714 -0.8962 -0.5903
   84MOL   H22935255   7.827   7.346   3.858  0.1583 -3.0255  1.5345
   84MOL   H23035256   7.607   7.376   3.991  0.7901  1.7770 -4.0810
   84MOL   H23135257   7.189   7.528   4.463  2.3461  0.7471  0.2312
   84MOL   H23235258   7.163   7.676   4.375  0.8318  0.2982  0.9959
   84MOL   C23335259   7.124   7.501   4.260  0.0443 -0.3640 -0.7729
   84MOL   O23435260   6.992   7.467   4.310  0.3502 -0.5018 -0.2322
   84MOL   C23535261   6.991   7.366   4.407  0.2521  0.6209  0.3335
   84MOL   O23635262   7.061   7.258   4.361 -0.1040 -0.6697 -0.0316
   84MOL   C23735263   6.992   7.172   4.283  0.6997 -0.7212 -0.2751
   84MOL   C23835264   7.052   7.049   4.259 -0.1237 -0.4355  0.5990
   84MOL   C23935265   6.993   6.957   4.175  0.3020  0.9834  0.1318
   84MOL   C24035266   6.870   6.979   4.113  0.4074  0.4599 -0.9076
   84MOL   C24135267   6.803   7.097   4.146 -0.8575 -0.4976  0.9026
   84MOL   C24235268   6.868   7.194   4.222  0.3707  0.7640  0.1319
   84MOL   C24335269   7.101   7.595   4.132 -0.2455  0.1268  0.0522
   84MOL   H24435270   7.171   7.410   4.225 -0.4003 -0.3583 -1.4052
   84MOL   H24535271   6.886   7.351   4.432  0.7912 -2.1157  1.1079
   84MOL   H24635272   7.023   7.404   4.504  0.5122 -0.7572  0.8052
   84MOL   H24735273   7.148   7.013   4.290  1.4295  1.1748 -2.1453
   84MOL   H24835274   7.044   6.864   4.159  2.4657  2.2841 -0.7210
   84MOL   H24935275   6.824   6.912   4.041 -0.9186  0.8576 -0.4420
   84MOL   H25035276   6.711   7.133   4.101 -0.7036 -0.6227  0.4857
   84MOL   H25135277   6.821   7.291   4.224  0.0056  0.6349 -1.9837
   84MOL   H25235278   7.024   7.668   4.156  0.7903  1.0612  0.5447
   84MOL   H25335279   7.194   7.647   4.109 -0.1435 -0.1094 -0.0739
   84MOL   C25435280   7.059   7.515   4.007  0.5767  0.1432  0.3620
   84MOL   O25535281   7.045   7.611   3.908 -0.1429 -0.0840  0.0305
   84MOL   C25635282   6.929   7.682   3.894 -0.3384  0.1735 -0.1242
   84MOL   O25735283   6.834   7.605   3.829 -0.0997 -0.6717 -0.1600
   84MOL   C25835284   6.731   7.550   3.901  0.2127  0.8181  0.3721
   84MOL   C25935285   6.620   7.497   3.830 -0.6825  0.0045  0.0678
   84MOL   C26035286   6.516   7.422   3.895  0.1441 -0.2747  0.5885
   84MOL   C26135287   6.517   7.410   4.031 -0.5643  0.2551 -0.3679
   84MOL   C26235288   6.626   7.461   4.104 -0.4942 -0.1558  0.0385
   84MOL   C26335289   6.729   7.535   4.045 -0.9089  0.0551 -0.0614
   84MOL   C26435290   7.158   7.414   3.946  1.0072 -0.6304 -0.1814
   84MOL   H26535291   6.972   7.452   4.025  0.0442  0.5321 -0.7604
   84MOL   H26635292   6.962   7.755   3.820  0.0458  0.8250  0.6840
   84MOL   H26735293   6.892   7.741   3.977 -0.5167  0.9057 -0.7197
   84MOL   H26835294   6.620   7.506   3.722 -1.6323 -0.7302 -0.0029
   84MOL   H26935295   6.436   7.377   3.839 -0.2055 -1.2997  1.8909
   84MOL   H27035296   6.427   7.374   4.079 -1.7678  1.6921 -1.5214
   84MOL   H27135297   6.625   7.461   4.212  1.6272  2.5487  0.1330
   84MOL   H27235298   6.810   7.567   4.109  0.3945 -2.5452 -0.3461
   84MOL   H27335299   7.243   7.466   3.900 -0.7382  1.1880 -1.4620
   84MOL   H27435300   7.198   7.347   4.022  4.9292 -1.4398 -2.7823
   84MOL   C27535301   7.085   7.334   3.825  0.3938  0.4740  0.1876
   84MOL   O27635302   7.188   7.278   3.743  0.1437 -0.3900  0.5719
   84MOL   C27735303   7.197   7.328   3.613  0.2300 -0.0811 -0.5662
   84MOL   O27835304   7.249   7.454   3.612  0.4029 -0.2286  0.3208
   84MOL   C27935305   7.346   7.485   3.524  0.0271  0.3838  0.0200
   84MOL   C28035306   7.346   7.614   3.472 -0.3675  0.5006 -0.1674
   84MOL   C28135307   7.441   7.660   3.377  1.0067  0.9083  0.7268
   84MOL   C28235308   7.544   7.571   3.337 -0.1476  0.7793  0.0609
   84MOL   C28335309   7.547   7.441   3.397  0.0444  0.5131 -1.0664
   84MOL   C28435310   7.452   7.400   3.491  0.6176  0.1468 -0.6120
   84MOL   C28535311   6.997   7.218   3.882  0.3017  0.7678 -0.4839
   84MOL   H28635312   7.019   7.393   3.762  0.1086  0.3437  0.3683
   84MOL   H28735313   7.094   7.334   3.577  0.7542  4.5932 -1.6436
   84MOL   H28835314   7.252   7.248   3.563  1.1236  1.3300 -1.9088
   84MOL   H28935315   7.270   7.681   3.507 -0.9203  0.5505 -1.4235
   84MOL   H29035316   7.431   7.758   3.333 -0.2666 -0.1978 -1.5141
   84MOL   H29135317   7.617   7.607   3.266  0.6458  0.3926  0.6802
   84MOL   H29235318   7.626   7.370   3.381 -0.8109 -0.3585 -1.5140
   84MOL   H29335319   7.443   7.301   3.533  0.2422  0.6268  0.4665
   84MOL   H29435320   6.911   7.261   3.932 -0.0557  0.4760 -0.8391
   84MOL   H29535321   7.044   7.159   3.961 -2.5866 -0.1637  0.5999
   84MOL   C29635322   6.944   7.110   3.777  0.3977  0.0276  0.0310
   84MOL   O29735323   6.861   7.175   3.680  0.4108  0.3803  0.2711
   84MOL   C29835324   6.720   7.156   3.692 -0.4860 -0.7568  0.2763
   84MOL   O29935325   6.680   7.038   3.627 -0.4508 -0.2712 -0.2335
   84MOL   C30035326   6.557   7.043   3.563  0.7645  0.0294 -0.0515
   84MOL   C30135327   6.537   6.966   3.451 -0.0790 -0.0097 -0.4224
   84MOL   C30235328   6.411   6.967   3.386 -0.4281  0.3400  0.3139
   84MOL   C30335329   6.300   7.030   3.441  0.2305  0.5427 -0.1390
   84MOL   C30435330   6.312   7.092   3.564  0.8302 -0.3070 -0.3419
   84MOL   C30535331   6.438   7.112   3.621  0.0136  0.2753  0.0215
   84MOL   C30635332   7.054   7.015   3.722  0.1032 -1.0600 -1.0262
   84MOL   H30735333   6.878   7.047   3.837  0.9138 -0.0176  0.5493
   84MOL   H30835334   6.672   7.239   3.642  1.3951  0.4208  0.3790
   84MOL   H30935335   6.690   7.146   3.797 -2.9755 -0.3087 -0.3662
   84MOL   H31035336   6.614   6.903   3.409 -0.0094  0.8237 -1.5697
   84MOL   H31135337   6.397   6.904   3.300  0.0945 -1.4909  1.5521
   84MOL   H31235338   6.199   7.020   3.404 -0.3374  0.2060  1.4598
   84MOL   H31335339   6.224   7.139   3.607  0.1595 -1.2405 -0.6776
   84MOL   H31435340   6.447   7.170   3.711 -0.7587 -0.6006  0.6754
   84MOL   H31535341   7.076   6.948   3.806 -0.1904  0.5460  0.3587
   84MOL   H31635342   7.155   7.049   3.699  0.0011  0.8876  1.2236
   84MOL   C31735343   7.006   6.925   3.608  0.8134  0.4561  0.0818
   84MOL   O31835344   7.088   6.813   3.610 -0.5633 -0.1695 -0.1301
   84MOL   C31935345   7.063   6.702   3.694 -0.4593  0.3623 -0.4267
   84MOL   O32035346   7.111   6.719   3.823 -0.3324 -0.6933  0.0345
   84MOL   C32135347   7.250   6.727   3.839 -0.0280 -0.1173 -0.1920
   84MOL   C32235348   7.338   6.765   3.735  0.0079 -0.2269  0.1413
   84MOL   C32335349   7.475   6.770   3.755 -1.0815 -0.4845 -0.2279
   84MOL   C32435350   7.531   6.724   3.873  0.0909 -0.6467  0.0927
   84MOL   C32535351   7.443   6.678   3.970 -0.6009 -0.1249 -0.4099
   84MOL   C32635352   7.303   6.683   3.960 -0.1127  0.2564 -0.3859
   84MOL   C32735353   7.017   6.993   3.471  0.0332  0.6987 -0.1245
   84MOL   H32835354   6.899   6.906   3.615  0.7778  1.2944  2.1172
   84MOL   H32935355   7.106   6.611   3.653 -1.2537 -0.6811  0.9849
   84MOL   H33035356   6.956   6.687   3.703 -0.4503  0.0891 -0.7596
   84MOL   H33135357   7.297   6.782   3.636  1.4853  0.1524 -0.4090
   84MOL   H33235358   7.537   6.821   3.683  0.4629  0.2742  1.5937
   84MOL   H33335359   7.638   6.721   3.888  0.2251 -0.1153 -0.7204
   84MOL   H33435360   7.481   6.630   4.059 -1.3843  0.4757  0.2545
   84MOL   H33535361   7.229   6.640   4.025 -1.3189 -0.3012 -2.0910
   84MOL   H33635362   6.949   7.078   3.477 -0.4032  0.2740  0.9471
   84MOL   H33735363   7.120   7.029   3.464 -0.1327  0.9067 -1.7237
   84MOL   C33835364   6.991   6.906   3.348 -0.1842 -0.3856  0.4625
   84MOL   O33935365   6.863   6.853   3.355  0.4676 -0.8614 -0.4469
   84MOL   C34035366   6.844   6.729   3.410 -0.3047 -0.2462 -0.6032
   84MOL   O34135367   6.864   6.645   3.306  0.2570 -0.0030  0.5884
   84MOL   C34235368   6.842   6.512   3.329 -0.6527 -0.1265  0.2935
   84MOL   C34335369   6.829   6.428   3.216 -0.8124  0.0832  0.5610
   84MOL   C34435370   6.798   6.296   3.237  0.4979  0.5045  0.3311
   84MOL   C34535371   6.777   6.241   3.365 -0.2116 -0.4292 -0.4399
   84MOL   C34635372   6.795   6.324   3.479 -0.5007  0.0498 -0.3035
   84MOL   C34735373   6.828   6.458   3.459 -0.3821  0.5525 -0.3930
   84MOL   C34835374   7.000   6.979   3.220 -0.4952  0.7524  0.2111
   84MOL   H34935375   7.061   6.823   3.344  1.2549  0.8729 -1.1932
   84MOL   H35035376   6.745   6.717   3.454 -0.8532 -0.6947 -1.9378
   84MOL   H35135377   6.916   6.708   3.490 -0.1269 -0.1292 -0.7323
   84MOL   H35235378   6.851   6.459   3.115 -0.1479  0.4529  0.8192
   84MOL   H35335379   6.771   6.239   3.149 -1.1598  2.4903 -0.4930
   84MOL   H35435380   6.725   6.148   3.380 -0.2375  0.0363  2.7166
   84MOL   H35535381   6.767   6.288   3.577  0.1634 -2.1374 -0.8920
   84MOL   H35635382   6.825   6.516   3.550 -0.5999 -2.2092  1.4013
   84MOL   H35735383   6.940   7.069   3.211 -0.8395  0.5354  0.3616
   84MOL   H35835384   6.953   6.914   3.147  1.3648  0.6443 -0.9334
   84MOL   C35935385   7.136   7.026   3.174 -0.3521  0.3869  0.3764
   84MOL   O36035386   7.151   7.148   3.240  0.1082 -0.6896  0.0358
   84MOL   C36135387   7.295   7.168   3.261 -0.0730 -0.4200  0.5236
   84MOL   O36235388   7.348   7.082   3.358  0.0879  0.3119 -0.5026
   84MOL   C36335389   7.488   7.084   3.375  0.7843 -0.2070  0.1464
   84MOL   C36435390   7.534   7.034   3.499  0.1234 -0.2720 -0.0421
   84MOL   C36535391   7.673   6.993   3.511  1.1329 -0.1716 -0.0133
   84MOL   C36635392   7.760   7.020   3.409 -0.7014  0.4290  0.2583
   84MOL   C36735393   7.717   7.090   3.296 -0.3140  0.3939  0.2160
   84MOL   C36835394   7.582   7.127   3.276  0.0030  0.5017 -0.3523
   84MOL   C36935395   7.144   7.041   3.017  0.0226 -0.2535  0.1242
   84MOL   H37035396   7.203   6.943   3.193 -1.8790 -0.7389  0.9429
   84MOL   H37135397   7.323   7.268   3.293  1.8969 -0.7831  0.0162
   84MOL   H37235398   7.351   7.159   3.168  2.0925  0.4743  1.6984
   84MOL   H37335399   7.459   7.018   3.575 -0.5050  0.6681 -0.4595
   84MOL   H37435400   7.710   6.952   3.604 -0.3667  0.5301  0.9086
   84MOL   H37535401   7.862   6.983   3.412 -0.3857  1.1870 -0.9184
   84MOL   H37635402   7.797   7.101   3.224 -0.2501  0.0422  0.2328
   84MOL   H37735403   7.558   7.159   3.175  2.1978  0.4769 -0.8971
   84MOL   H37835404   7.238   7.090   2.992 -1.3640  1.8634 -1.0470
   84MOL   H37935405   7.065   7.110   2.988 -0.0687  0.3307  1.7254
   84MOL   C38035406   7.142   6.912   2.937  0.7151 -0.0290 -0.1066
   84MOL   O38135407   7.270   6.850   2.953  0.2562  0.0146 -0.1640
   84MOL   C38235408   7.267   6.713   2.952 -0.1085 -0.1373  0.3554
   84MOL   O38335409   7.213   6.664   3.068 -0.0903  0.8228  0.3536
   84MOL   C38435410   7.292   6.660   3.180  0.2531 -0.2674  0.2609
   84MOL   C38535411   7.412   6.730   3.196  0.1221  0.0954 -0.0357
   84MOL   C38635412   7.490   6.720   3.309 -0.2567  0.6926 -0.0878
   84MOL   C38735413   7.446   6.648   3.423  0.1874  0.0274 -0.1369
   84MOL   C38835414   7.325   6.583   3.413 -0.8928  0.0291  0.6259
   84MOL   C38935415   7.253   6.590   3.296 -0.2107 -0.5902 -0.4901
   84MOL   C39035416   7.109   6.931   2.789  0.0418 -0.0882  0.5071
   84MOL   H39135417   7.074   6.845   2.989  3.3110 -0.3792  3.0320
   84MOL   H39235418   7.226   6.675   2.858  2.3592  1.8830 -1.6252
   84MOL   H39335419   7.371   6.681   2.942 -0.2844 -0.5678 -0.1178
   84MOL   H39435420   7.445   6.802   3.122 -0.2392  3.0898  2.6076
   84MOL   H39535421   7.578   6.783   3.315  1.3176 -1.5499  0.8311
   84MOL   H39635422   7.508   6.642   3.511  0.7658  1.9666 -0.3791
   84MOL   H39735423   7.285   6.537   3.503  0.4544  1.3719  1.9313
   84MOL   H39835424   7.158   6.540   3.305 -0.8289  0.8544  1.2533
   84MOL   H39935425   7.019   6.992   2.777  1.5707  1.9541 -0.9918
   84MOL   H40035426   7.073   6.832   2.759  2.6353 -0.8785 -0.0902
   84MOL   C40135427   7.216   6.963   2.685  0.5949  0.7684  0.4264
   84MOL   O40235428   7.191   6.904   2.560 -0.5220 -0.4080  0.2067
   84MOL   C40335429   7.302   6.868   2.489  0.2779 -0.5632 -0.3574
   84MOL   O40435430   7.346   6.742   2.521 -0.8085 -0.2761  0.5390
   84MOL   C40535431   7.414   6.670   2.419  0.2932  0.2229 -0.3520
   84MOL   C40635432   7.425   6.530   2.436 -0.4863  0.4036 -0.1233
   84MOL   C40735433   7.510   6.454   2.346 -0.3463  0.1221 -0.1705
   84MOL   C40835434   7.585   6.520   2.241  0.2070  0.3645  0.1221
   84MOL   C40935435   7.560   6.654   2.216 -0.0656 -0.0348 -0.0733
   84MOL   C41035436   7.479   6.728   2.303  0.2427 -0.1484  0.2993
   84MOL   C41135437   7.223   7.119   2.657  0.2970  0.5074 -0.0320
   84MOL   H41235438   7.312   6.926   2.722  1.2427  1.0907 -0.9311
   84MOL   H41335439   7.390   6.930   2.505 -0.4000  0.4391 -0.4667
   84MOL   H41435440   7.280   6.869   2.382  0.6526 -1.9834 -0.4457
   84MOL   H41535441   7.393   6.473   2.522 -1.2324  1.1208  0.0741
   84MOL   H41635442   7.538   6.351   2.361  0.6523  0.3849 -0.1507
   84MOL   H41735443   7.664   6.464   2.193 -0.3297 -0.3590  0.0678
   84MOL   H41835444   7.606   6.699   2.130 -0.9730 -0.4863 -0.8083
   84MOL   H41935445   7.464   6.833   2.285 -2.1665 -0.3864  0.6902
   84MOL   H42035446   7.126   7.142   2.612 -1.1512 -1.9454  1.7515
   84MOL   H42135447   7.306   7.131   2.588  1.0387 -0.7207  0.6509
   84MOL   H42235448   7.239   7.182   2.745 -0.8672  1.2803 -0.3525
   85MOL     C135449   5.395   1.733   0.392  0.6704  0.1596 -0.2602
   85MOL     O235450   5.497   1.720   0.494  0.4538 -0.2739 -0.3669
   85MOL     C335451   5.455   1.764   0.616 -0.5497 -0.7129 -0.2207
   85MOL     O435452   5.441   1.898   0.619 -0.1799  0.2310 -0.0370
   85MOL     C535453   5.315   1.950   0.592  0.2802 -0.2203 -0.0645
   85MOL     C635454   5.192   1.881   0.610  0.1708 -0.4172  0.2289
   85MOL     C735455   5.066   1.939   0.581  0.2640 -0.5895 -1.1871
   85MOL     C835456   5.064   2.075   0.533 -1.6967 -0.1979 -0.4172
   85MOL     C935457   5.190   2.139   0.505 -0.1437 -0.4720  0.4683
   85MOL    C1035458   5.312   2.077   0.531  0.9442  0.4513  0.1457
   85MOL    C1135459   5.449   1.656   0.271  0.0258  0.2522 -0.4585
   85MOL    H1235460   5.304   1.676   0.411 -0.6050  2.1443 -0.2768
   85MOL    H1335461   5.374   1.703   0.655  0.0064 -1.0062  0.5095
   85MOL    H1435462   5.542   1.748   0.680 -2.2800  0.7145  2.5987
   85MOL    H1535463   5.199   1.783   0.657 -0.5592  0.0334  1.3155
   85MOL    H1635464   4.977   1.887   0.612  0.7313 -1.6159 -1.5266
   85MOL    H1735465   4.973   2.131   0.520 -1.4410  0.3009 -0.0938
   85MOL    H1835466   5.193   2.240   0.465 -0.3569 -0.8261 -0.4505
   85MOL    H1935467   5.408   2.124   0.517  1.6374  0.0465  3.1883
   85MOL    H2035468   5.370   1.655   0.196 -0.8266  0.7952  0.4177
   85MOL    H2135469   5.485   1.559   0.304  3.1878  1.7804  0.8882
   85MOL    H2235470   5.362   1.835   0.373  0.4837 -0.0932 -1.3198
   85MOL    C2335471   5.579   1.722   0.209  0.8466 -0.1271  0.4357
   85MOL    O2435472   5.527   1.843   0.158  0.0718  0.2138  0.2501
   85MOL    C2535473   5.594   1.960   0.200 -0.5667 -0.3916  0.0698
   85MOL    O2635474   5.543   2.072   0.140  0.0141  0.1756  0.2283
   85MOL    C2735475   5.579   2.194   0.193  0.6496  0.1372  0.4605
   85MOL    C2835476   5.467   2.281   0.202 -0.2254  0.3900 -0.9734
   85MOL    C2935477   5.481   2.410   0.253 -0.3534  0.4052  0.4609
   85MOL    C3035478   5.605   2.443   0.298  0.3655  0.1798  0.0666
   85MOL    C3135479   5.721   2.359   0.289  0.4878 -0.2850  0.0434
   85MOL    C3235480   5.706   2.232   0.233  0.3760 -0.5587 -0.4606
   85MOL    C3335481   5.642   1.630   0.102 -0.2779  1.1015 -0.1130
   85MOL    H3435482   5.649   1.752   0.287  0.9025 -0.6317  0.5829
   85MOL    H3535483   5.699   1.958   0.172 -0.4040  0.4680  0.5878
   85MOL    H3635484   5.588   1.974   0.308  0.5081  0.4670  0.0283
   85MOL    H3735485   5.371   2.251   0.163  0.4748 -0.7908 -1.8362
   85MOL    H3835486   5.389   2.462   0.272  0.1963  1.5337  0.0771
   85MOL    H3935487   5.615   2.546   0.327  0.5835  0.6597 -1.6896
   85MOL    H4035488   5.820   2.389   0.320  0.9517 -3.0701  1.3490
   85MOL    H4135489   5.795   2.171   0.221  0.6434  0.1794 -2.5011
   85MOL    H4235490   5.574   1.600   0.022  2.1923 -1.5287 -1.3068
   85MOL    H4335491   5.666   1.535   0.149 -0.2340  0.7897 -0.7624
   85MOL    C4435492   5.773   1.692   0.051  0.7178  0.5925  0.0905
   85MOL    O4535493   5.815   1.623   7.906  0.2802  1.0557 -0.4194
   85MOL    C4635494   5.770   1.675   7.782 -0.7253  0.0760  0.8771
   85MOL    O4735495   5.643   1.629   7.746  0.2213 -0.2346 -0.1393
   85MOL    C4835496   5.534   1.714   7.746  0.8441  0.5158 -0.7264
   85MOL    C4935497   5.529   1.847   7.800  0.3971  0.4872 -0.6102
   85MOL    C5035498   5.410   1.922   7.802  0.7069 -0.4900 -0.6480
   85MOL    C5135499   5.291   1.868   7.751  0.1257  0.0016 -0.0562
   85MOL    C5235500   5.294   1.733   7.708 -0.2145 -0.0437  0.5696
   85MOL    C5335501   5.408   1.655   7.709 -0.1371  0.5899 -0.4384
   85MOL    C5435502   5.881   1.664   0.152  0.0290 -0.3167  0.0067
   85MOL    H5535503   5.758   1.798   0.034 -1.2955  0.3341  0.1085
   85MOL    H5635504   5.842   1.647   7.705 -2.4685  0.5696 -0.9508
   85MOL    H5735505   5.783   1.783   7.770 -1.3149  0.0451 -0.0654
   85MOL    H5835506   5.626   1.883   7.831  0.3355  0.3881 -0.2986
   85MOL    H5935507   5.412   2.015   7.858  0.8391 -0.9084  0.0521
   85MOL    H6035508   5.201   1.927   7.741  1.3376  2.0528  0.7589
   85MOL    H6135509   5.199   1.693   7.677  0.3414 -0.2966 -0.8232
   85MOL    H6235510   5.403   1.548   7.704  1.4203  0.5761 -2.0130
   85MOL    H6335511   5.846   1.685   0.253  0.1141  2.6616 -0.5299
   85MOL    H6435512   5.903   1.558   0.154 -0.2248 -0.3879 -0.8377
   85MOL    C6535513   6.002   1.744   0.125 -0.0982 -0.1459  0.1360
   85MOL    O6635514   5.979   1.881   0.163  0.3565  0.1641  1.3630
   85MOL    C6735515   5.996   1.982   0.068 -0.5582 -0.6732 -0.3720
   85MOL    O6835516   5.880   2.004   7.966 -0.0404  0.1633 -0.1955
   85MOL    C6935517   5.890   2.115   7.886  0.3657 -0.0631 -0.1334
   85MOL    C7035518   6.009   2.175   7.832  1.1433  0.6494 -0.3511
   85MOL    C7135519   5.993   2.288   7.745  0.1340  0.1472 -0.9725
   85MOL    C7235520   5.870   2.338   7.708  0.0396 -0.1198 -0.1493
   85MOL    C7335521   5.750   2.286   7.760 -1.0188 -0.3634  0.6663
   85MOL    C7435522   5.761   2.176   7.849  0.0632  0.5743 -0.7275
   85MOL    C7535523   6.130   1.677   0.197  0.3891 -0.6782 -0.4006
   85MOL    H7635524   6.029   1.749   0.020  0.4281  1.2052  0.3226
   85MOL    H7735525   6.070   1.935   0.004  0.0407 -0.0217 -0.1633
   85MOL    H7835526   6.035   2.073   0.114  0.5511 -1.2720 -0.1155
   85MOL    H7935527   6.108   2.136   7.852  0.8272  0.0721  0.1016
   85MOL    H8035528   6.086   2.326   7.707  0.1500  0.1401 -0.9408
   85MOL    H8135529   5.849   2.420   7.641  0.1391 -1.7688 -2.2641
   85MOL    H8235530   5.653   2.326   7.738 -0.2785  1.6226  0.9020
   85MOL    H8335531   5.673   2.128   7.889  0.3176  0.2954 -0.4962
   85MOL    H8435532   6.121   1.677   0.305  0.2723 -1.1723 -0.4102
   85MOL    H8535533   6.119   1.571   0.174 -0.1299 -0.5511 -0.7412
   85MOL    C8635534   6.262   1.735   0.139 -0.5663  0.1470 -0.2110
   85MOL    O8735535   6.258   1.875   0.145 -0.5168  0.0078  0.2430
   85MOL    C8835536   6.346   1.959   0.076 -0.2633  0.1340 -0.1301
   85MOL    O8935537   6.318   1.955   7.914  0.7647  0.0970 -0.1284
   85MOL    C9035538   6.421   1.921   7.827  0.7146 -0.5933 -0.6943
   85MOL    C9135539   6.517   1.819   7.848 -0.2141 -0.6715 -0.3445
   85MOL    C9235540   6.614   1.797   7.749 -0.0159  0.3217  0.0408
   85MOL    C9335541   6.612   1.868   7.627  0.7106 -0.3458  0.6387
   85MOL    C9435542   6.519   1.969   7.601  0.2327  0.0339 -0.4513
   85MOL    C9535543   6.424   1.991   7.705  0.1812 -0.3893  0.3817
   85MOL    C9635544   6.380   1.690   0.232  0.5521  0.3666 -0.8062
   85MOL    H9735545   6.282   1.698   0.038  1.6012 -0.8573  0.5542
   85MOL    H9835546   6.450   1.930   0.093 -1.5866 -4.6735  0.5820
   85MOL    H9935547   6.333   2.061   0.110  1.1070  0.6578 -1.1030
   85MOL   H10035548   6.531   1.752   7.931 -0.1118  0.2484  0.3993
   85MOL   H10135549   6.686   1.719   7.762 -0.5750 -0.5014 -1.6363
   85MOL   H10235550   6.686   1.826   7.560  0.4316 -0.1044  0.1774
   85MOL   H10335551   6.515   2.016   7.503 -1.8443 -0.7385 -0.7714
   85MOL   H10435552   6.347   2.066   7.694  0.6018 -0.1064 -0.7158
   85MOL   H10535553   6.469   1.754   0.231  0.2111  0.8295 -1.4076
   85MOL   H10635554   6.347   1.698   0.335  0.9807 -2.7264 -0.3791
   85MOL   C10735555   6.433   1.546   0.205 -0.0316  0.0978 -0.5723
   85MOL   O10835556   6.453   1.520   0.068 -0.4916 -0.0186 -0.3037
   85MOL   C10935557   6.357   1.448   0.002 -0.3953  0.2416  0.1680
   85MOL   O11035558   6.415   1.333   7.925  0.4380  1.0120  0.1880
   85MOL   C11135559   6.515   1.347   7.829 -0.5552 -0.7145  0.3302
   85MOL   C11235560   6.618   1.254   7.823  0.1127 -0.1250  0.2847
   85MOL   C11335561   6.731   1.266   7.738  0.5578  0.8067 -0.0572
   85MOL   C11435562   6.740   1.387   7.660 -0.3888 -1.2888 -0.6038
   85MOL   C11535563   6.627   1.474   7.658  0.0797 -0.2780  0.6059
   85MOL   C11635564   6.523   1.462   7.747 -0.1207 -0.5026  0.3563
   85MOL   C11735565   6.574   1.521   0.270  0.7249 -0.2397  0.3440
   85MOL   H11835566   6.364   1.470   0.240 -0.1877  0.0843 -0.9131
   85MOL   H11935567   6.307   1.509   7.902 -0.0851 -0.1680 -0.3713
   85MOL   H12035568   6.277   1.425   0.072  0.1937 -0.5757  0.5747
   85MOL   H12135569   6.606   1.166   7.885  0.7701 -0.0369  0.5383
   85MOL   H12235570   6.801   1.186   7.724  1.3808  1.5294 -0.0989
   85MOL   H12335571   6.824   1.414   7.598  0.5773 -1.4424  0.5975
   85MOL   H12435572   6.625   1.555   7.586  1.3304 -1.9129 -1.3516
   85MOL   H12535573   6.448   1.540   7.744 -1.4138 -1.7511 -0.6805
   85MOL   H12635574   6.641   1.605   0.256  0.2329  0.0375 -0.3534
   85MOL   H12735575   6.617   1.436   0.218 -1.5781 -0.5372 -1.1273
   85MOL   C12835576   6.573   1.501   0.421 -0.1302 -0.7444  0.4094
   85MOL   O12935577   6.705   1.492   0.459 -0.0735  0.6345  0.6332
   85MOL   C13035578   6.736   1.556   0.576  0.7269  0.2010 -0.1113
   85MOL   O13135579   6.679   1.501   0.697  0.6812  0.0828  0.4744
   85MOL   C13235580   6.751   1.400   0.760  0.2673  0.3191 -0.2221
   85MOL   C13335581   6.857   1.319   0.704  0.1433  0.8178  0.3210
   85MOL   C13435582   6.904   1.211   0.783 -0.3139  0.0265 -0.0657
   85MOL   C13535583   6.867   1.198   0.916 -0.5244 -0.1150  0.2279
   85MOL   C13635584   6.765   1.274   0.970 -0.0396  1.1693  0.2288
   85MOL   C13735585   6.707   1.370   0.893 -0.4615  0.1302 -0.1857
   85MOL   C13835586   6.492   1.374   0.467  0.1346 -0.4667  0.5775
   85MOL   H13935587   6.509   1.585   0.447  0.2699 -0.5652  0.8151
   85MOL   H14035588   6.708   1.662   0.572  0.3583  0.1165  0.1841
   85MOL   H14135589   6.842   1.552   0.599  0.7408  0.1719 -0.1778
   85MOL   H14235590   6.880   1.325   0.598  2.2622  2.8235  0.8639
   85MOL   H14335591   6.975   1.138   0.747 -0.2533 -0.3273  0.7453
   85MOL   H14435592   6.910   1.118   0.975 -0.3403  0.8097  1.3801
   85MOL   H14535593   6.723   1.251   1.067  1.5031 -2.1018  0.1916
   85MOL   H14635594   6.628   1.422   0.945 -1.9364  0.5773 -2.7755
   85MOL   H14735595   6.503   1.300   0.387 -0.7313  0.3037 -0.2765
   85MOL   H14835596   6.544   1.338   0.555 -0.2762 -0.3389  0.8750
   85MOL   C14935597   6.349   1.398   0.525  0.2945 -0.7834 -0.7565
   85MOL   O15035598   6.279   1.270   0.558  0.1202  0.8885  0.4247
   85MOL   C15135599   6.201   1.221   0.452 -0.3424  0.1678 -0.4510
   85MOL   O15235600   6.289   1.205   0.338 -0.1800 -0.0504 -0.4156
   85MOL   C15335601   6.247   1.129   0.234 -0.1418 -0.9437  0.0804
   85MOL   C15435602   6.338   1.104   0.132  0.3899 -0.1959 -0.3494
   85MOL   C15535603   6.297   1.038   0.012 -0.0469  0.1589 -0.2038
   85MOL   C15635604   6.170   0.978   0.007  0.5289  0.3430 -0.5342
   85MOL   C15735605   6.081   1.002   0.114  0.0984  0.4231  0.2802
   85MOL   C15835606   6.117   1.075   0.231 -0.2844  0.3289 -0.1252
   85MOL   C15935607   6.358   1.473   0.658  0.3585 -0.0032  0.0190
   85MOL   H16035608   6.291   1.454   0.451  0.3857  0.4713  0.1006
   85MOL   H16135609   6.165   1.123   0.484 -1.0250  0.5319 -0.0886
   85MOL   H16235610   6.111   1.280   0.436  0.0621  0.8163 -0.3621
   85MOL   H16335611   6.436   1.150   0.134  0.2052  0.2066 -0.5640
   85MOL   H16435612   6.371   1.044   7.909 -0.5476  0.8190 -0.6259
   85MOL   H16535613   6.125   0.928   7.898 -2.7240 -0.9541  1.8544
   85MOL   H16635614   5.983   0.956   0.115  0.9899 -1.5958 -1.4794
   85MOL   H16735615   6.041   1.107   0.302 -0.2680 -2.6028  1.2898
   85MOL   H16835616   6.434   1.551   0.654  0.4695 -0.0033  1.7119
   85MOL   H16935617   6.395   1.407   0.736 -1.2572 -0.7924  0.1284
   85MOL   C17035618   6.223   1.534   0.708 -0.3608  0.7529 -0.2677
   85MOL   O17135619   6.178   1.638   0.622  0.3424 -0.5601  0.4841
   85MOL   C17235620   6.220   1.768   0.638  0.5122  1.5365  0.3606
   85MOL   O17335621   6.132   1.845   0.715  0.0481  0.4331 -0.4208
   85MOL   C17435622   6.012   1.880   0.657  0.1329 -0.0731 -0.2282
   85MOL   C17535623   5.920   1.931   0.745  0.2844 -0.7375 -0.1680
   85MOL   C17635624   5.792   1.983   0.705  0.8068  0.3287  0.4364
   85MOL   C17735625   5.764   1.987   0.564 -0.2361 -0.0753 -0.1840
   85MOL   C17835626   5.860   1.935   0.476 -0.1118  0.0586 -0.0302
   85MOL   C17935627   5.976   1.873   0.522 -0.0154 -0.0265  0.3309
   85MOL   C18035628   6.107   1.441   0.725  1.1388 -0.0421 -0.7417
   85MOL   H18135629   6.241   1.582   0.804 -0.2462 -0.3814  0.2953
   85MOL   H18235630   6.233   1.792   0.533 -0.5993 -1.8931 -0.6159
   85MOL   H18335631   6.318   1.779   0.686  0.5050  0.4695  0.6324
   85MOL   H18435632   5.952   1.937   0.848 -2.9057 -0.1567  0.8347
   85MOL   H18535633   5.727   2.031   0.776  2.5305  1.2092  1.4508
   85MOL   H18635634   5.667   2.022   0.531 -0.7249 -1.0600  0.1560
   85MOL   H18735635   5.841   1.940   0.370 -0.6202 -0.5752  0.0304
   85MOL   H18835636   6.047   1.838   0.449  0.0019  0.1793  0.2494
   85MOL   H18935637   6.057   1.426   0.629 -0.6421  1.3098 -0.0355
   85MOL   H19035638   6.143   1.343   0.757  0.1071 -0.9236 -2.2188
   85MOL   C19135639   6.013   1.500   0.830 -0.4000  0.0024  0.0933
   85MOL   O19235640   6.078   1.505   0.952 -0.1943  0.2463  0.0203
   85MOL   C19335641   6.049   1.614   1.039  0.2865 -0.2092  0.4029
   85MOL   O19435642   6.124   1.726   1.003 -0.5359  0.9398  0.4656
   85MOL   C19535643   6.101   1.845   1.068  0.7604  0.0369  0.6088
   85MOL   C19635644   6.029   1.854   1.187  0.0232 -0.1771  0.0015
   85MOL   C19735645   6.026   1.971   1.263  0.0629 -0.3585 -0.2024
   85MOL   C19835646   6.102   2.075   1.225  0.0890  0.7219 -0.2605
   85MOL   C19935647   6.168   2.077   1.103 -0.1920 -0.2767  0.1391
   85MOL   C20035648   6.171   1.957   1.024 -0.1909  0.2711  0.3017
   85MOL   C20135649   5.874   1.422   0.838 -0.0962 -0.1357 -0.3042
   85MOL   H20235650   6.000   1.604   0.800  1.7447 -0.8278 -3.9636
   85MOL   H20335651   6.068   1.585   1.142 -0.2717 -0.8425  0.3325
   85MOL   H20435652   5.944   1.641   1.028 -0.4499 -2.9659  0.2677
   85MOL   H20535653   5.980   1.765   1.225  0.7560 -0.3086  0.6732
   85MOL   H20635654   5.967   1.964   1.354 -0.4126 -0.5263 -0.5215
   85MOL   H20735655   6.110   2.165   1.283  0.7901  1.0616 -0.8633
   85MOL   H20835656   6.225   2.166   1.080 -1.0206  0.6974  1.7777
   85MOL   H20935657   6.232   1.956   0.934  0.8639 -2.0867  0.9926
   85MOL   H21035658   5.882   1.314   0.834  0.3048 -0.1063 -0.2515
   85MOL   H21135659   5.849   1.438   0.943  0.2138 -0.4106 -0.1898
   85MOL   C21235660   5.771   1.489   0.750  0.6362 -0.5994 -0.1561
   85MOL   O21335661   5.805   1.442   0.620 -0.2795 -0.1204  0.1408
   85MOL   C21435662   5.759   1.516   0.509 -0.1325  0.5524 -0.1405
   85MOL   O21535663   5.792   1.451   0.392  0.1851  0.0636 -0.9923
   85MOL   C21635664   5.727   1.334   0.358 -0.2461  0.2193  0.3446
   85MOL   C21735665   5.646   1.260   0.450 -0.5002  0.1085  0.1093
   85MOL   C21835666   5.599   1.136   0.400  0.0285 -0.1239  0.0266
   85MOL   C21935667   5.624   1.088   0.269 -0.4737 -0.7443 -0.5239
   85MOL   C22035668   5.716   1.155   0.190  0.4394  0.0905  0.2884
   85MOL   C22135669   5.749   1.282   0.230  0.1762  0.2340  0.0614
   85MOL   C22235670   5.628   1.435   0.791  1.0647 -0.1362  0.1009
   85MOL   H22335671   5.777   1.597   0.763  1.8305 -0.6022 -0.5797
   85MOL   H22435672   5.811   1.612   0.511 -1.7058  1.3858  3.2402
   85MOL   H22535673   5.652   1.533   0.507 -0.7551 -2.7770  2.0055
   85MOL   H22635674   5.623   1.297   0.549  1.2228 -0.0874  0.5936
   85MOL   H22735675   5.531   1.080   0.463  1.1478  1.1860  2.4633
   85MOL   H22835676   5.589   0.992   0.234 -0.8513 -0.8254  0.0608
   85MOL   H22935677   5.748   1.120   0.093  0.6236  4.5169 -1.3723
   85MOL   H23035678   5.810   1.337   0.159  0.5336 -1.0304 -0.6275
   85MOL   H23135679   5.559   1.487   0.724  0.1073 -1.9395 -0.3554
   85MOL   H23235680   5.621   1.328   0.772 -0.5678 -0.2243  1.1001
   85MOL   C23335681   5.583   1.484   0.931  0.8728  0.3318  0.0947
   85MOL   O23435682   5.621   1.626   0.943 -0.0825 -0.3952 -0.3272
   85MOL   C23535683   5.636   1.665   1.075  0.4868 -0.0369  0.2046
   85MOL   O23635684   5.694   1.793   1.088  0.9171  0.3126  0.2966
   85MOL   C23735685   5.623   1.908   1.055  0.0881  0.6883 -0.1499
   85MOL   C23835686   5.671   2.032   1.101 -0.0873 -0.6472 -0.0051
   85MOL   C23935687   5.597   2.147   1.076 -0.9896  0.2688 -0.1178
   85MOL   C24035688   5.481   2.151   0.995  0.1334  0.0626  0.0248
   85MOL   C24135689   5.437   2.031   0.932 -0.3443  0.0583  0.0666
   85MOL   C24235690   5.510   1.913   0.965 -0.3126  0.3900 -0.4386
   85MOL   C24335691   5.430   1.477   0.947  0.6394 -0.4861 -0.1252
   85MOL   H24435692   5.629   1.421   1.007 -2.2245  0.0482  1.8369
   85MOL   H24535693   5.701   1.595   1.127  0.4392  0.3311  0.7720
   85MOL   H24635694   5.553   1.649   1.144 -0.3557  0.1433 -0.7590
   85MOL   H24735695   5.760   2.039   1.162 -0.4279  0.4510  0.3798
   85MOL   H24835696   5.628   2.240   1.122 -4.4496  1.1610  0.5786
   85MOL   H24935697   5.444   2.252   0.981 -0.9988 -0.3166  0.2443
   85MOL   H25035698   5.352   2.034   0.865  0.2818  2.1697 -0.6780
   85MOL   H25135699   5.482   1.817   0.926  1.8381 -0.3503 -0.2245
   85MOL   H25235700   5.389   1.567   0.993  1.0270 -1.0726  1.3939
   85MOL   H25335701   5.380   1.475   0.851 -2.4512  0.5191  1.3848
   85MOL   C25435702   5.386   1.356   1.035  0.2006  0.1034  0.2861
   85MOL   O25535703   5.452   1.370   1.162  0.0129 -0.8070  0.6650
   85MOL   C25635704   5.475   1.249   1.235 -0.1873 -0.0758 -0.1332
   85MOL   O25735705   5.605   1.202   1.211  0.4654  0.2257  0.6488
   85MOL   C25835706   5.712   1.284   1.248 -0.2158  0.4525  0.1173
   85MOL   C25935707   5.694   1.397   1.329 -0.4492 -0.4761 -0.3524
   85MOL   C26035708   5.809   1.475   1.355  0.7664 -0.9008 -0.3619
   85MOL   C26135709   5.936   1.443   1.315 -0.6792 -0.1256  0.3803
   85MOL   C26235710   5.958   1.321   1.245  0.3298 -0.7233 -0.0920
   85MOL   C26335711   5.844   1.247   1.205 -0.4415 -0.3136 -0.0165
   85MOL   C26435712   5.238   1.325   1.039 -0.3867  0.0693  0.3714
   85MOL   H26535713   5.430   1.271   0.984 -2.0717 -0.5526 -0.6220
   85MOL   H26635714   5.393   1.178   1.223 -1.2024  0.6441  2.3697
   85MOL   H26735715   5.466   1.270   1.341  1.7893  0.3610 -0.0301
   85MOL   H26835716   5.600   1.426   1.373 -0.8984 -2.5815  0.1317
   85MOL   H26935717   5.805   1.553   1.429  0.9886 -1.0345 -0.2080
   85MOL   H27035718   6.017   1.505   1.350 -1.4999  1.7109 -0.8748
   85MOL   H27135719   6.061   1.293   1.231  0.1631 -0.0980 -2.9598
   85MOL   H27235720   5.853   1.158   1.145 -0.5954 -0.8976  0.8138
   85MOL   H27335721   5.225   1.248   1.115  0.1859  1.3900  1.8172
   85MOL   H27435722   5.179   1.412   1.069 -0.8958 -0.6538  1.4949
   85MOL   C27535723   5.197   1.261   0.903 -0.3612 -0.0190  0.2576
   85MOL   O27635724   5.266   1.143   0.888  0.5398 -0.7244 -0.0024
   85MOL   C27735725   5.329   1.103   0.765  0.4316 -0.4032 -0.6046
   85MOL   O27835726   5.463   1.106   0.788  0.0722  0.0490  0.3944
   85MOL   C27935727   5.527   1.015   0.871  0.3358 -0.0472  0.5658
   85MOL   C28035728   5.665   1.027   0.888  0.3756 -0.2338 -0.0029
   85MOL   C28135729   5.734   0.932   0.964  0.1556  0.3647  0.1313
   85MOL   C28235730   5.672   0.823   1.023 -0.0236 -0.1229 -0.4146
   85MOL   C28335731   5.530   0.813   1.011 -0.0634 -0.2636 -0.2386
   85MOL   C28435732   5.457   0.910   0.941 -0.3135 -0.9574 -0.2326
   85MOL   C28535733   5.046   1.236   0.891  0.1152 -0.1120 -0.1436
   85MOL   H28635734   5.226   1.327   0.820 -1.1440 -0.6372 -0.5144
   85MOL   H28735735   5.301   1.166   0.680  0.1232 -1.0005 -0.9443
   85MOL   H28835736   5.299   1.004   0.731 -1.4550 -0.9496  2.4693
   85MOL   H28935737   5.702   1.113   0.834 -0.4310 -0.4528 -0.9407
   85MOL   H29035738   5.841   0.946   0.965  0.1663  0.2885  0.0112
   85MOL   H29135739   5.721   0.747   1.082 -1.3165  1.0637  2.2629
   85MOL   H29235740   5.475   0.740   1.070  1.9406 -0.4877  1.4271
   85MOL   H29335741   5.349   0.898   0.937 -0.4354  0.1685 -0.6000
   85MOL   H29435742   5.021   1.185   0.984  1.2181  2.1240  1.4182
   85MOL   H29535743   5.023   1.174   0.805  3.0848 -0.7350 -0.5422
   85MOL   C29635744   4.965   1.367   0.861 -0.6268  0.7597 -0.2282
   85MOL   O29735745   4.974   1.392   0.721 -0.2272  0.0413 -0.1212
   85MOL   C29835746   4.995   1.527   0.684 -0.7299 -0.8828  0.4973
   85MOL   O29935747   4.993   1.552   0.543 -0.1594  0.3368  0.1727
   85MOL   C30035748   5.086   1.488   0.460 -0.2260 -0.4610  0.5140
   85MOL   C30135749   5.075   1.510   0.323  0.2656  0.8682 -0.3038
   85MOL   C30235750   5.175   1.452   0.243 -0.2319 -0.6583  0.0869
   85MOL   C30335751   5.283   1.376   0.293 -0.1118  0.5016  0.1594
   85MOL   C30435752   5.304   1.358   0.429  0.5012  0.2799 -0.1481
   85MOL   C30535753   5.206   1.420   0.511 -0.0723 -0.4984 -0.1090
   85MOL   C30635754   4.818   1.338   0.895 -0.4608 -0.3664  0.0426
   85MOL   H30735755   5.013   1.454   0.905 -1.3210  0.6648  0.7274
   85MOL   H30835756   5.095   1.559   0.713 -0.6216  0.6004 -1.4139
   85MOL   H30935757   4.927   1.590   0.742 -0.9548 -0.4578 -0.2239
   85MOL   H31035758   4.994   1.564   0.277 -1.2245 -1.5603 -0.6655
   85MOL   H31135759   5.184   1.472   0.137  3.5807 -0.5758  0.3319
   85MOL   H31235760   5.358   1.348   0.221  0.2079 -1.0087  1.0468
   85MOL   H31335761   5.387   1.304   0.473  0.7305 -0.2135 -1.1923
   85MOL   H31435762   5.210   1.397   0.617 -0.0128 -1.4366 -0.3104
   85MOL   H31535763   4.805   1.232   0.873  1.9884 -0.6231 -0.3432
   85MOL   H31635764   4.752   1.392   0.827  1.4784 -0.1156 -1.6565
   85MOL   C31735765   4.783   1.386   1.041  0.5694  0.0672 -0.1644
   85MOL   O31835766   4.673   1.323   1.099 -0.4818  0.2292 -0.4345
   85MOL   C31935767   4.705   1.222   1.190 -0.0590  0.2803  0.1318
   85MOL   O32035768   4.770   1.116   1.127 -0.6934 -0.0757  0.4492
   85MOL   C32135769   4.700   1.019   1.053 -0.3521 -0.2058 -0.2345
   85MOL   C32235770   4.768   0.901   1.010 -0.6024  0.0223 -0.8546
   85MOL   C32335771   4.697   0.796   0.943  0.2046  0.3457 -0.2844
   85MOL   C32435772   4.560   0.810   0.909  0.0893 -0.0634 -0.3544
   85MOL   C32535773   4.497   0.933   0.936  0.1002  0.4786 -0.4672
   85MOL   C32635774   4.567   1.035   1.002 -0.4280  0.3358 -0.1131
   85MOL   C32735775   4.751   1.529   1.055  0.6865  0.5031  0.2982
   85MOL   H32835776   4.879   1.358   1.085  0.0011 -0.7342  0.5660
   85MOL   H32935777   4.608   1.190   1.229 -0.6577  0.7502 -0.9315
   85MOL   H33035778   4.755   1.271   1.274  0.2184  1.1049 -0.5006
   85MOL   H33135779   4.870   0.881   1.039 -0.8361  1.4030  0.9840
   85MOL   H33235780   4.760   0.710   0.927  0.7695  0.5308  0.8340
   85MOL   H33335781   4.521   0.741   0.837 -2.0739 -0.3014  1.0115
   85MOL   H33435782   4.405   0.964   0.889  0.2332  0.3103 -0.8357
   85MOL   H33535783   4.514   1.129   1.014 -1.1203 -0.1136  0.3879
   85MOL   H33635784   4.794   1.594   0.979  1.3530 -1.2169 -0.8385
   85MOL   H33735785   4.645   1.547   1.037  0.7931  0.3905 -0.4881
   85MOL   C33835786   4.782   1.584   1.195  0.0310 -0.6598  0.2293
   85MOL   O33935787   4.917   1.595   1.197  0.0488 -0.4543  0.0093
   85MOL   C34035788   4.981   1.542   1.309 -0.5055  0.4869 -0.5227
   85MOL   O34135789   4.982   1.405   1.308 -0.3485  0.4185  0.6370
   85MOL   C34235790   5.075   1.335   1.383  0.1008 -0.0625  0.4480
   85MOL   C34335791   5.159   1.395   1.484  0.3151 -0.2133  0.4870
   85MOL   C34435792   5.233   1.316   1.564  0.2813  0.1790 -0.0394
   85MOL   C34535793   5.246   1.183   1.534 -0.0480 -0.7171 -0.5378
   85MOL   C34635794   5.182   1.127   1.422 -0.1600  0.5114 -0.6960
   85MOL   C34735795   5.090   1.200   1.353  0.1778  0.1222  0.1529
   85MOL   C34835796   4.737   1.736   1.224  0.3341  0.5751  0.2242
   85MOL   H34935797   4.750   1.510   1.268 -1.7417 -1.9845 -1.8293
   85MOL   H35035798   4.934   1.583   1.399  0.0171 -1.3623  0.6122
   85MOL   H35135799   5.085   1.574   1.303 -0.3786 -0.0557 -1.2134
   85MOL   H35235800   5.167   1.501   1.505 -0.1394 -0.3975  1.6504
   85MOL   H35335801   5.303   1.350   1.639  0.4533  3.6868 -1.6927
   85MOL   H35435802   5.317   1.126   1.592  1.5108  0.8603 -0.8687
   85MOL   H35535803   5.203   1.023   1.401 -1.3419  0.0832  0.1855
   85MOL   H35635804   5.039   1.149   1.273 -0.0472 -1.4549  1.2885
   85MOL   H35735805   4.647   1.760   1.167 -0.7388  1.9380  2.4116
   85MOL   H35835806   4.824   1.790   1.188  0.9086  0.2278  1.0824
   85MOL   C35935807   4.717   1.770   1.379 -0.3475  0.2459  0.0158
   85MOL   O36035808   4.612   1.692   1.428 -0.4191  0.3399  0.1563
   85MOL   C36135809   4.625   1.645   1.559  0.2940 -0.6872 -0.2359
   85MOL   O36235810   4.706   1.534   1.561  0.1372  0.2140 -0.2271
   85MOL   C36335811   4.654   1.413   1.519  0.2352  0.1989  0.0451
   85MOL   C36435812   4.526   1.386   1.463  0.5665 -0.4204  0.3973
   85MOL   C36535813   4.478   1.255   1.447 -0.4625 -0.1711  0.5684
   85MOL   C36635814   4.551   1.146   1.490  0.1389  0.3000 -0.0140
   85MOL   C36735815   4.682   1.165   1.529 -0.1856 -0.1258 -0.5413
   85MOL   C36835816   4.734   1.298   1.546 -0.3630 -0.3691 -0.1199
   85MOL   C36935817   4.690   1.917   1.421 -0.5394  0.0188 -0.3875
   85MOL   H37035818   4.805   1.731   1.429 -0.6242 -0.9173 -0.4018
   85MOL   H37135819   4.529   1.615   1.600  0.7445  0.6280  1.8676
   85MOL   H37235820   4.668   1.721   1.624  0.4838  1.3830 -2.6679
   85MOL   H37335821   4.467   1.468   1.424 -0.0304 -1.4098 -0.8429
   85MOL   H37435822   4.377   1.251   1.411 -0.8365 -0.9365  1.6652
   85MOL   H37535823   4.513   1.045   1.479  1.8644 -0.3985  0.2195
   85MOL   H37635824   4.738   1.083   1.570 -0.3190  0.7522  1.4278
   85MOL   H37735825   4.836   1.319   1.574 -0.0820  0.8850 -1.9413
   85MOL   H37835826   4.661   1.915   1.526  0.7565 -0.4013 -0.0209
   85MOL   H37935827   4.607   1.947   1.357 -0.0297 -0.2109 -1.1657
   85MOL   C38035828   4.818   2.010   1.399  0.6203  0.5586 -0.7265
   85MOL   O38135829   4.838   2.014   1.264 -0.1725  0.5354 -0.4810
   85MOL   C38235830   4.910   2.119   1.204  0.1730  0.5182 -0.0913
   85MOL   O38335831   5.047   2.088   1.192 -0.1143 -0.0933  0.2576
   85MOL   C38435832   5.074   1.978   1.116  0.3207  0.2602  0.1067
   85MOL   C38535833   4.996   1.947   1.003 -0.0736  0.1962 -0.4903
   85MOL   C38635834   5.024   1.827   0.933  0.4853 -0.6944  0.3818
   85MOL   C38735835   5.123   1.736   0.975  0.4416 -0.3280  0.2110
   85MOL   C38835836   5.187   1.761   1.097  0.5079  1.0182 -0.1161
   85MOL   C38935837   5.163   1.884   1.166  0.1411 -0.2238  0.4033
   85MOL   C39035838   4.946   1.951   1.466 -0.4348  0.1429  0.6359
   85MOL   H39135839   4.811   2.114   1.432 -0.9044  0.9596 -2.2360
   85MOL   H39235840   4.864   2.152   1.111  3.1344 -1.8286 -2.5140
   85MOL   H39335841   4.895   2.205   1.269  0.3421 -1.3961  2.5814
   85MOL   H39435842   4.918   2.010   0.964 -2.5162 -0.5403  3.0351
   85MOL   H39535843   4.958   1.805   0.851  0.1901 -1.0305  0.7078
   85MOL   H39635844   5.146   1.646   0.919  1.5636 -0.6641  1.1916
   85MOL   H39735845   5.246   1.679   1.136 -1.7500 -1.4346 -1.7050
   85MOL   H39835846   5.205   1.911   1.261 -1.5492  0.9287  0.8410
   85MOL   H39935847   5.029   2.021   1.459  2.3149 -3.0480 -0.6325
   85MOL   H40035848   4.987   1.876   1.397  1.2187 -0.6282  2.4098
   85MOL   C40135849   4.936   1.915   1.615 -0.5922  0.2914 -0.4085
   85MOL   O40235850   5.058   1.863   1.662  0.2683  0.3672  0.2873
   85MOL   C40335851   5.068   1.728   1.657 -0.0728 -0.0386  0.6519
   85MOL   O40435852   5.189   1.677   1.692  0.0773 -0.0698 -0.8791
   85MOL   C40535853   5.299   1.694   1.615  0.4189  0.2130 -0.1203
   85MOL   C40635854   5.403   1.602   1.628 -0.1459  0.4270 -0.0350
   85MOL   C40735855   5.527   1.618   1.557 -0.6945  0.4200 -0.4485
   85MOL   C40835856   5.554   1.720   1.469 -0.2043 -0.6125  0.0343
   85MOL   C40935857   5.453   1.815   1.457 -0.2892 -0.0432  0.1479
   85MOL   C41035858   5.326   1.795   1.517  0.0628 -0.6594  0.2824
   85MOL   C41135859   4.923   2.035   1.702 -0.3818 -0.0656  0.6075
   85MOL   H41235860   4.855   1.847   1.641 -1.4562  1.0453 -1.1290
   85MOL   H41335861   5.047   1.696   1.555  1.3101 -0.4216  0.4837
   85MOL   H41435862   4.997   1.681   1.726 -0.0132  1.4399  1.7508
   85MOL   H41535863   5.401   1.521   1.699  2.2921  0.3075 -0.0395
   85MOL   H41635864   5.610   1.551   1.576 -0.4895  0.7340 -0.2387
   85MOL   H41735865   5.645   1.737   1.413 -0.7357 -3.1207 -1.6729
   85MOL   H41835866   5.475   1.897   1.391 -2.6211 -0.1507 -0.8316
   85MOL   H41935867   5.249   1.861   1.481 -1.0085 -1.9921  0.1010
   85MOL   H42035868   4.936   2.004   1.806 -0.2782  0.1809  0.6686
   85MOL   H42135869   4.828   2.086   1.690 -0.2191 -0.4730 -2.7838
   85MOL   H42235870   4.993   2.115   1.679 -1.0107 -0.0295 -1.2426
   86MOL     C135871   0.439   7.949   1.463 -0.1601 -0.1925  0.8680
   86MOL     O235872   0.366   0.087   1.499  0.3341  0.3282 -0.0612
   86MOL     C335873   0.421   0.204   1.441  0.7237 -0.1655 -0.4964
   86MOL     O435874   0.360   0.318   1.488 -0.0974  0.9583 -0.3276
   86MOL     C535875   0.222   0.340   1.459 -0.1142 -0.0899  0.0714
   86MOL     C635876   0.139   0.246   1.395 -0.2580 -0.2017 -0.2316
   86MOL     C735877   0.013   0.289   1.355  0.1239  0.7949 -0.5386
   86MOL     C835878   7.934   0.412   1.400  0.0342  0.6589  0.2837
   86MOL     C935879   0.039   0.498   1.477 -0.4222 -0.4052  0.1422
   86MOL    C1035880   0.174   0.459   1.503  1.0064 -0.1956 -0.1644
   86MOL    C1135881   0.395   7.819   1.545 -0.3301  0.3122 -0.3912
   86MOL    H1235882   0.426   7.922   1.358 -0.7942  2.1377  0.3251
   86MOL    H1335883   0.528   0.216   1.456  1.2204 -1.5546 -2.7417
   86MOL    H1435884   0.418   0.207   1.332 -0.2558  1.1651 -0.4352
   86MOL    H1535885   0.180   0.154   1.355  1.3142  0.2262  0.3625
   86MOL    H1635886   7.924   0.230   1.291  0.2720 -4.3194  3.7034
   86MOL    H1735887   7.834   0.448   1.380  0.0165  1.8517  2.3211
   86MOL    H1835888   0.008   0.599   1.502 -0.0585  0.3145 -2.2106
   86MOL    H1935889   0.247   0.528   1.543  0.2706  0.6525 -0.2887
   86MOL    H2035890   0.364   7.857   1.642  1.1593 -0.1702  0.2927
   86MOL    H2135891   0.489   7.764   1.558  0.8371  1.9804 -1.4408
   86MOL    H2235892   0.545   7.973   1.466 -0.1751  0.4523 -2.4522
   86MOL    C2335893   0.292   7.720   1.476 -0.5843 -0.1846  0.3825
   86MOL    O2435894   0.170   7.796   1.476 -0.2730  0.1715  0.0569
   86MOL    C2535895   0.115   7.826   1.347  0.1088  0.4253  0.1426
   86MOL    O2635896   0.090   7.701   1.275 -0.5726 -0.5477 -0.1724
   86MOL    C2735897   7.945   7.644   1.308 -0.9334 -0.3817  0.1295
   86MOL    C2835898   7.892   7.557   1.206  0.2140 -0.6598 -0.1355
   86MOL    C2935899   7.767   7.499   1.229  0.8946  0.3083 -0.7369
   86MOL    C3035900   7.700   7.513   1.350  0.1048 -0.0309 -0.3805
   86MOL    C3135901   7.758   7.590   1.452  0.2207 -0.3866  0.6242
   86MOL    C3235902   7.878   7.658   1.432 -0.3454 -0.2475  0.9297
   86MOL    C3335903   0.251   7.595   1.563  0.2814 -0.1982  0.8380
   86MOL    H3435904   0.331   7.696   1.377  1.9451  3.5970  0.3281
   86MOL    H3535905   0.208   7.868   1.308  1.2689 -1.0481  1.2381
   86MOL    H3635906   0.036   7.900   1.339  0.6355  1.0153  0.4071
   86MOL    H3735907   7.942   7.542   1.112 -2.3268  0.9199 -1.8231
   86MOL    H3835908   7.721   7.430   1.160  0.1470  0.5276 -0.4629
   86MOL    H3935909   7.610   7.459   1.375 -0.0401  0.4878  0.2145
   86MOL    H4035910   7.718   7.589   1.552 -1.5105 -1.3100 -0.0523
   86MOL    H4135911   7.918   7.714   1.515  0.2103 -0.6383  0.9195
   86MOL    H4235912   0.148   7.565   1.545 -0.2524  1.6530  0.7034
   86MOL    H4335913   0.239   7.627   1.667 -0.2101 -2.0653  1.3694
   86MOL    C4435914   0.354   7.477   1.545 -0.1198 -0.1045  0.2699
   86MOL    O4535915   0.348   7.446   1.412 -0.5910 -0.1789 -0.2384
   86MOL    C4635916   0.475   7.431   1.351  0.4937  0.1231  0.6140
   86MOL    O4735917   0.570   7.364   1.434 -0.0237 -0.7575 -0.6207
   86MOL    C4835918   0.702   7.387   1.419  0.0291 -0.5149  0.0591
   86MOL    C4935919   0.763   7.416   1.299  0.0018  0.5874 -0.3686
   86MOL    C5035920   0.900   7.444   1.287  0.4341  0.0451  0.1399
   86MOL    C5135921   0.978   7.448   1.405  0.5181 -0.3805  0.3434
   86MOL    C5235922   0.926   7.416   1.529  0.0165  0.0160  0.6940
   86MOL    C5335923   0.785   7.384   1.535 -0.3097  0.8661 -0.3637
   86MOL    C5435924   0.318   7.350   1.638 -0.4873  0.0109  0.0872
   86MOL    H5535925   0.447   7.515   1.587  0.9594 -1.3534 -0.9667
   86MOL    H5635926   0.508   7.531   1.325 -0.8725  0.2438 -0.7388
   86MOL    H5735927   0.455   7.378   1.258  2.8823  1.4777 -0.6848
   86MOL    H5835928   0.695   7.412   1.215 -0.3490 -0.7782 -0.0475
   86MOL    H5935929   0.933   7.481   1.191  0.5272  1.2634  0.6252
   86MOL    H6035930   1.080   7.483   1.395 -0.7165  3.1480 -0.6722
   86MOL    H6135931   0.983   7.415   1.621  1.0237  0.7195  0.0831
   86MOL    H6235932   0.752   7.357   1.634  0.0248  0.3450 -0.3937
   86MOL    H6335933   0.212   7.351   1.662 -0.5698 -1.7834 -0.1199
   86MOL    H6435934   0.333   7.264   1.573 -0.9096  0.4857 -0.6357
   86MOL    C6535935   0.394   7.321   1.770  0.5689 -1.1739 -0.7695
   86MOL    O6635936   0.391   7.444   1.839 -0.0662 -0.2817 -0.1536
   86MOL    C6735937   0.499   7.453   1.928  0.5789  0.0686 -0.2147
   86MOL    O6835938   0.620   7.466   1.860 -0.2866 -0.1152  0.1871
   86MOL    C6935939   0.671   7.596   1.841 -0.1130  0.0335 -0.4236
   86MOL    C7035940   0.811   7.609   1.836 -0.1194  0.1433  0.9230
   86MOL    C7135941   0.873   7.734   1.808 -0.1706  0.1917 -0.3726
   86MOL    C7235942   0.801   7.850   1.790 -0.0767  0.4327 -0.2136
   86MOL    C7335943   0.663   7.839   1.788 -0.2739 -0.7765  0.4106
   86MOL    C7435944   0.600   7.717   1.818  0.2730 -0.0134  0.0740
   86MOL    C7535945   0.327   7.215   1.853 -0.5982 -0.1671 -0.1870
   86MOL    H7635946   0.496   7.294   1.740  1.2575  1.2159 -0.7083
   86MOL    H7735947   0.502   7.376   2.006 -0.3500  1.3347  1.0946
   86MOL    H7835948   0.473   7.543   1.984  0.5112  1.3791 -2.2894
   86MOL    H7935949   0.871   7.521   1.850 -0.4447 -0.1390  0.5672
   86MOL    H8035950   0.980   7.727   1.800 -0.2790  0.2341 -1.8503
   86MOL    H8135951   0.851   7.943   1.766  0.2118  0.1266 -0.8013
   86MOL    H8235952   0.601   7.925   1.771 -1.0903 -1.4236  0.1135
   86MOL    H8335953   0.492   7.723   1.816  0.1763 -1.2911  0.8539
   86MOL    H8435954   0.381   7.200   1.946  1.3128 -3.4353 -1.7271
   86MOL    H8535955   0.229   7.259   1.869 -0.1451 -0.2166  2.9695
   86MOL    C8635956   0.305   7.061   1.812  0.1984 -0.0430  0.1133
   86MOL    O8735957   0.421   6.982   1.846 -0.7942 -0.4918  0.3322
   86MOL    C8835958   0.543   7.031   1.814  0.3206  0.3284  0.3335
   86MOL    O8935959   0.640   6.935   1.836  0.1556 -0.1845 -0.8644
   86MOL    C9035960   0.768   6.959   1.793  0.6142  0.3174 -0.3539
   86MOL    C9135961   0.811   7.076   1.727 -0.1363  1.2029 -0.0118
   86MOL    C9235962   0.951   7.072   1.696 -0.1266 -0.2338 -0.6299
   86MOL    C9335963   1.035   6.961   1.721  0.2412  0.0600 -0.0936
   86MOL    C9435964   0.982   6.844   1.764  0.5878 -0.3685 -0.3843
   86MOL    C9535965   0.849   6.845   1.806  1.1782 -0.1339 -0.5443
   86MOL    C9635966   0.179   6.994   1.877 -0.3593 -0.5628 -0.4554
   86MOL    H9735967   0.282   7.060   1.705 -0.1904 -1.2040  0.2046
   86MOL    H9835968   0.573   7.119   1.873  4.1402 -0.9604  0.4388
   86MOL    H9935969   0.542   7.061   1.709  0.4096  0.7150  0.4411
   86MOL   H10035970   0.750   7.160   1.699 -0.0401  1.0088 -0.8174
   86MOL   H10135971   0.995   7.159   1.650  0.9308 -0.2544  0.3167
   86MOL   H10235972   1.133   6.954   1.675  0.3352  0.7625 -0.0039
   86MOL   H10335973   1.043   6.754   1.763  0.6594 -0.3730  1.6700
   86MOL   H10435974   0.824   6.752   1.855 -0.0271  1.5031  1.9992
   86MOL   H10535975   0.197   7.002   1.984 -0.3289 -0.2269 -0.4831
   86MOL   H10635976   0.095   7.059   1.850  1.3216  2.3152  1.0359
   86MOL   C10735977   0.138   6.856   1.826  0.0625 -0.1802 -0.6862
   86MOL   O10835978   0.015   6.822   1.897 -0.8857 -0.3377 -0.1941
   86MOL   C10935979   0.035   6.753   2.012  0.3154 -0.2495 -0.1483
   86MOL   O11035980   0.052   6.619   1.993  0.0716  0.1107  0.7382
   86MOL   C11135981   7.922   6.548   1.944  0.1934  0.0326 -0.1303
   86MOL   C11235982   7.931   6.407   1.951  0.1057  0.2340  0.6200
   86MOL   C11335983   7.820   6.325   1.925  0.1235 -0.8169 -0.0312
   86MOL   C11435984   7.699   6.382   1.881  0.1819 -0.3986 -0.1239
   86MOL   C11535985   7.682   6.522   1.875  0.6089 -0.2396 -0.6950
   86MOL   C11635986   7.791   6.604   1.904 -0.0175 -0.3479 -0.2679
   86MOL   C11735987   0.102   6.840   1.676 -0.0311 -0.5482  0.7613
   86MOL   H11835988   0.218   6.784   1.842  0.2186  0.3468  1.0094
   86MOL   H11935989   7.931   6.783   2.081  0.2501 -0.7546  0.0016
   86MOL   H12035990   0.127   6.793   2.053 -1.2405  4.5309 -0.9634
   86MOL   H12135991   0.052   6.360   1.963  0.4285  0.9218  0.7029
   86MOL   H12235992   7.823   6.218   1.933  0.3470 -0.8123 -0.0640
   86MOL   H12335993   7.617   6.322   1.845  0.3304 -0.3814 -0.4892
   86MOL   H12435994   7.583   6.549   1.843  0.8787 -0.8155 -2.0471
   86MOL   H12535995   7.791   6.712   1.901  1.8772 -0.3132  0.5745
   86MOL   H12635996   0.182   6.875   1.611 -0.3904 -0.8809  0.1307
   86MOL   H12735997   0.018   6.905   1.653 -0.2848 -1.0937  0.1235
   86MOL   C12835998   0.080   6.687   1.627  0.5172  0.3649 -0.8800
   86MOL   O12935999   0.210   6.626   1.622  0.0207  0.5946 -0.0360
   86MOL   C13036000   0.232   6.487   1.614 -0.1087 -0.5644  0.1075
   86MOL   O13136001   0.202   6.425   1.490 -0.5122  0.6801 -1.0338
   86MOL   C13236002   0.284   6.441   1.379 -0.5801 -0.2282  0.4290
   86MOL   C13336003   0.267   6.355   1.275 -0.0153 -0.5979  0.5579
   86MOL   C13436004   0.323   6.374   1.149  0.0174 -0.4712  0.4562
   86MOL   C13536005   0.420   6.481   1.141  0.0166  0.4096  0.0031
   86MOL   C13636006   0.450   6.568   1.253 -0.2995  0.0336  0.1229
   86MOL   C13736007   0.381   6.542   1.371  0.2136 -0.0530 -0.7549
   86MOL   C13836008   0.018   6.695   1.482 -0.5900 -0.3928 -0.1665
   86MOL   H13936009   0.018   6.631   1.698  2.0838  0.6282  0.7521
   86MOL   H14036010   0.179   6.437   1.695 -0.0916 -0.1051  0.3985
   86MOL   H14136011   0.337   6.475   1.641  0.7475  2.9657 -1.3430
   86MOL   H14236012   0.192   6.278   1.286 -2.0454  1.3295  0.6488
   86MOL   H14336013   0.295   6.315   1.063 -1.2446  2.2068 -1.0303
   86MOL   H14436014   0.455   6.502   1.041  0.2094  0.4106  0.0694
   86MOL   H14536015   0.508   6.659   1.250 -1.1302  0.5646  0.1062
   86MOL   H14636016   0.390   6.608   1.456  1.6838  1.7566 -2.2839
   86MOL   H14736017   0.062   6.775   1.422 -0.8924  0.3696  0.5970
   86MOL   H14836018   0.031   6.598   1.435  1.7224 -0.4207  0.4702
   86MOL   C14936019   7.841   6.717   1.477 -0.2688 -0.2837  0.2930
   86MOL   O15036020   7.811   6.776   1.355 -0.5719  0.0817  0.5820
   86MOL   C15136021   7.693   6.849   1.339  0.6206 -0.2392 -0.2863
   86MOL   O15236022   7.673   6.957   1.424  0.2562 -0.1460 -0.2018
   86MOL   C15336023   7.776   7.050   1.434 -0.0711  0.5756 -0.7474
   86MOL   C15436024   7.866   7.078   1.326  0.1942 -0.2975 -0.3751
   86MOL   C15536025   7.973   7.172   1.344  1.0746  0.1892  0.1097
   86MOL   C15636026   0.022   7.230   1.468  1.0297 -0.5233  0.0413
   86MOL   C15736027   7.911   7.195   1.575 -0.0953 -0.2892  0.1458
   86MOL   C15836028   7.798   7.115   1.558 -0.4261  0.3540  0.1698
   86MOL   C15936029   7.768   6.583   1.509  0.5637 -0.2610  0.5818
   86MOL   H16036030   7.826   6.798   1.550 -1.8415  0.4153 -0.7921
   86MOL   H16136031   7.669   6.874   1.236  1.7906 -1.6774 -0.9365
   86MOL   H16236032   7.622   6.772   1.367  0.7733 -0.5467 -0.7562
   86MOL   H16336033   7.854   7.030   1.230 -0.3404 -1.5714  0.3297
   86MOL   H16436034   0.058   7.208   1.262  0.6297  0.1374 -0.2446
   86MOL   H16536035   0.092   7.312   1.482 -0.4897  0.6072  1.1007
   86MOL   H16636036   7.943   7.225   1.674 -2.9059  0.4108  0.8789
   86MOL   H16736037   7.735   7.087   1.642  0.1399  0.8296  0.7531
   86MOL   H16836038   7.666   6.592   1.546  0.1396  0.3155 -0.6692
   86MOL   H16936039   7.820   6.525   1.584  0.5453 -0.8750  0.1238
   86MOL   C17036040   7.753   6.497   1.381  0.6741 -0.2828 -0.1376
   86MOL   O17136041   7.874   6.434   1.336 -0.3641  0.7948 -0.4762
   86MOL   C17236042   7.893   6.435   1.194 -0.3525 -0.1751  0.9046
   86MOL   O17336043   7.912   6.567   1.151 -0.5651 -0.6290 -0.3695
   86MOL   C17436044   0.031   6.587   1.061  0.4200  0.2061 -0.4369
   86MOL   C17536045   0.033   6.521   0.936 -0.4216  0.0682  0.5477
   86MOL   C17636046   0.140   6.532   0.842  0.2009  0.0379 -0.1864
   86MOL   C17736047   0.239   6.625   0.870 -0.4875 -0.4674  0.0763
   86MOL   C17836048   0.235   6.703   0.989 -0.2441 -0.1167  0.6744
   86MOL   C17936049   0.134   6.687   1.086  0.7596  0.9909  0.4026
   86MOL   C18036050   7.660   6.373   1.398 -0.4163 -0.2521 -0.4439
   86MOL   H18136051   7.719   6.561   1.300  0.8653 -1.3364 -1.0534
   86MOL   H18236052   7.807   6.378   1.160 -1.5338  2.1052 -0.0020
   86MOL   H18336053   0.002   6.380   1.151 -0.2570 -0.5876  1.6189
   86MOL   H18436054   7.927   6.454   0.915  0.8079 -0.8911 -1.3780
   86MOL   H18536055   0.144   6.473   0.752 -0.8484 -1.4183  0.7029
   86MOL   H18636056   0.324   6.628   0.803 -0.2385 -2.0942  0.3002
   86MOL   H18736057   0.327   6.756   1.006  0.4853 -1.6121  1.3740
   86MOL   H18836058   0.136   6.734   1.183  1.0794  1.4118  0.1941
   86MOL   H18936059   7.693   6.286   1.341  0.6636 -0.2849  0.2185
   86MOL   H19036060   7.674   6.343   1.502 -1.4783  0.4637 -0.0864
   86MOL   C19136061   7.509   6.399   1.374 -0.1016  0.4992  0.2238
   86MOL   O19236062   7.445   6.270   1.396 -0.5559  0.6962  0.4724
   86MOL   C19336063   7.364   6.259   1.512  0.6458 -0.5499 -0.0192
   86MOL   O19436064   7.270   6.151   1.503 -0.2095 -0.5631 -0.2312
   86MOL   C19536065   7.308   6.022   1.486  0.3016  0.2549  0.7991
   86MOL   C19636066   7.208   5.921   1.483 -0.0486  0.2995 -0.0287
   86MOL   C19736067   7.244   5.788   1.463  0.1120  0.0680  0.0919
   86MOL   C19836068   7.378   5.752   1.433 -0.2215  0.1068 -0.1600
   86MOL   C19936069   7.478   5.845   1.454 -0.6368  0.0956  0.7025
   86MOL   C20036070   7.438   5.981   1.472  0.1680  0.4663  0.2595
   86MOL   C20136071   7.478   6.429   1.228 -0.0934  0.1889  0.3430
   86MOL   H20236072   7.464   6.477   1.436 -2.9965 -1.8625  1.2387
   86MOL   H20336073   7.295   6.343   1.520  0.3609 -0.8908  1.2149
   86MOL   H20436074   7.426   6.259   1.602 -1.5159  1.3008  1.5156
   86MOL   H20536075   7.106   5.949   1.504 -0.1098 -0.3811  0.6074
   86MOL   H20636076   7.168   5.711   1.460 -0.9614  1.1285 -0.2811
   86MOL   H20736077   7.396   5.652   1.399 -0.8923  0.5146 -1.7667
   86MOL   H20836078   7.582   5.821   1.438 -0.0617  1.1557  2.6471
   86MOL   H20936079   7.520   6.051   1.486  0.3745  0.3345 -0.2815
   86MOL   H21036080   7.540   6.507   1.184 -0.2797  1.7220  2.6940
   86MOL   H21136081   7.495   6.334   1.177  0.6433  0.5988 -0.1865
   86MOL   C21236082   7.330   6.475   1.215 -0.5258  0.3847  0.1691
   86MOL   O21336083   7.334   6.618   1.244 -0.2125  0.1629 -0.6104
   86MOL   C21436084   7.215   6.675   1.284  0.4971  0.4445 -0.0290
   86MOL   O21536085   7.180   6.626   1.412 -0.2861 -1.0652  0.4011
   86MOL   C21636086   7.244   6.663   1.522 -0.2906 -0.5812 -0.0600
   86MOL   C21736087   7.368   6.728   1.522 -0.8684  0.0426  0.7833
   86MOL   C21836088   7.438   6.760   1.642  0.4277  0.2546 -0.1749
   86MOL   C21936089   7.388   6.713   1.764 -0.4610  0.0072  0.3737
   86MOL   C22036090   7.266   6.639   1.765  0.2706 -0.0509 -0.0114
   86MOL   C22136091   7.196   6.613   1.640 -0.0229 -0.1600  0.0470
   86MOL   C22236092   7.264   6.442   1.084 -0.4072  0.4959 -0.4359
   86MOL   H22336093   7.270   6.420   1.288  0.5532 -1.4419 -0.2961
   86MOL   H22436094   7.130   6.656   1.218 -0.1936 -0.6801  1.1471
   86MOL   H22536095   7.231   6.782   1.280  0.3147  0.4551 -0.4939
   86MOL   H22636096   7.416   6.754   1.429  0.4682 -2.2303  0.8216
   86MOL   H22736097   7.529   6.819   1.636  0.3934  0.2319 -1.0479
   86MOL   H22836098   7.423   6.736   1.864  1.3429  1.6119 -0.5879
   86MOL   H22936099   7.226   6.595   1.855  2.2124  1.4505  1.6234
   86MOL   H23036100   7.103   6.559   1.645  0.3853 -0.9618 -1.0725
   86MOL   H23136101   7.158   6.466   1.084 -0.3918  0.5720 -0.7375
   86MOL   H23236102   7.306   6.506   1.006  4.7265 -0.0212  1.6784
   86MOL   C23336103   7.252   6.286   1.046  0.2495 -0.5249 -0.6471
   86MOL   O23436104   7.121   6.237   1.071 -0.4017 -0.1092  0.1738
   86MOL   C23536105   7.073   6.241   1.204 -0.6390  0.0096  0.4548
   86MOL   O23636106   7.001   6.353   1.233  0.3638 -0.2288 -0.2160
   86MOL   C23736107   6.896   6.383   1.153  0.7137 -0.8369 -0.1433
   86MOL   C23836108   6.855   6.516   1.138 -0.2724  0.7080  0.0127
   86MOL   C23936109   6.740   6.560   1.070 -0.2066 -0.3037  0.1671
   86MOL   C24036110   6.669   6.466   0.997  0.2579  0.0842 -0.6620
   86MOL   C24136111   6.707   6.330   1.001  0.2234  0.1395 -0.9838
   86MOL   C24236112   6.820   6.284   1.079  0.1195  0.4307  0.4268
   86MOL   C24336113   7.278   6.252   0.901  0.5987  0.2360 -0.1236
   86MOL   H24436114   7.313   6.223   1.111  0.0570 -0.4010 -0.3451
   86MOL   H24536115   7.151   6.224   1.278 -2.9076 -1.4509  2.5966
   86MOL   H24636116   7.013   6.151   1.217  0.4116 -0.7883 -0.1744
   86MOL   H24736117   6.905   6.584   1.205  1.7686 -0.1867 -0.5852
   86MOL   H24836118   6.720   6.665   1.084 -2.3161 -0.7834  0.9195
   86MOL   H24936119   6.592   6.509   0.934 -1.3094 -2.7339 -0.7694
   86MOL   H25036120   6.644   6.263   0.946 -1.9466  2.8527 -1.9172
   86MOL   H25136121   6.835   6.178   1.090  3.6744  1.1034  2.8607
   86MOL   H25236122   7.278   6.143   0.903 -0.9220  0.2255  1.1275
   86MOL   H25336123   7.198   6.291   0.838  0.9260  1.2271  0.0690
   86MOL   C25436124   7.412   6.303   0.845 -0.6934 -0.1606 -0.3876
   86MOL   O25536125   7.533   6.287   0.919 -0.2002  0.0695 -0.6839
   86MOL   C25636126   7.562   6.154   0.951  0.5320 -0.5220 -0.2238
   86MOL   O25736127   7.673   6.155   1.039 -0.1746 -0.2713  0.6353
   86MOL   C25836128   7.800   6.150   0.973  0.5094  0.1736  0.5095
   86MOL   C25936129   7.826   6.171   0.834  0.4717  0.5788 -0.6209
   86MOL   C26036130   7.955   6.181   0.782 -0.0840 -0.4397 -0.2683
   86MOL   C26136131   0.094   6.175   0.871 -0.1497 -0.3491  0.2122
   86MOL   C26236132   0.069   6.141   1.012  0.4222 -0.1478 -0.4131
   86MOL   C26336133   7.914   6.132   1.055  0.2464 -0.4757 -0.6321
   86MOL   C26436134   7.424   6.261   0.702  0.1902 -0.4148  0.1816
   86MOL   H26536135   7.406   6.412   0.853  2.0678 -0.1463  2.5188
   86MOL   H26636136   7.570   6.081   0.871 -2.0002 -1.0589 -0.0091
   86MOL   H26736137   7.485   6.117   1.018  2.1628  0.4719  2.3013
   86MOL   H26836138   7.750   6.195   0.760  0.7593  0.7937 -0.8494
   86MOL   H26936139   0.009   6.211   0.682 -0.5517 -0.4184 -0.4047
   86MOL   H27036140   0.197   6.185   0.843  0.0701 -0.9409  0.7907
   86MOL   H27136141   0.154   6.145   1.079 -0.2853  0.6219  0.4462
   86MOL   H27236142   7.902   6.128   1.162 -1.0129 -1.1227 -0.7864
   86MOL   H27336143   7.450   6.155   0.705 -0.6845 -0.6127  1.4766
   86MOL   H27436144   7.336   6.263   0.638 -1.8352 -1.7072  2.8117
   86MOL   C27536145   7.533   6.336   0.612  0.2192 -0.9894 -0.0144
   86MOL   O27636146   7.543   6.261   0.489  0.5666 -0.3911 -0.3511
   86MOL   C27736147   7.670   6.221   0.450  0.0232 -0.0280  0.6455
   86MOL   O27836148   7.654   6.134   0.337  0.2252  0.1360 -0.2158
   86MOL   C27936149   7.769   6.082   0.278  0.4968  0.3853  0.2527
   86MOL   C28036150   7.756   5.973   0.192 -0.4876  0.4422  0.6582
   86MOL   C28136151   7.867   5.909   0.136 -0.3165  0.4935 -0.1417
   86MOL   C28236152   0.023   5.959   0.175  0.5834  0.4401  0.4203
   86MOL   C28336153   0.038   6.076   0.253  0.1941  0.4147 -0.0138
   86MOL   C28436154   7.897   6.137   0.309 -0.1893 -0.3736  0.0021
   86MOL   C28536155   7.495   6.482   0.579 -0.0502 -0.2168  0.2451
   86MOL   H28636156   7.631   6.337   0.658 -1.1466  1.3864  3.0457
   86MOL   H28736157   7.720   6.179   0.537  0.1319 -1.4227 -0.0760
   86MOL   H28836158   7.724   6.313   0.428  2.3252 -0.8595  2.6323
   86MOL   H28936159   7.661   5.924   0.182  0.6198 -1.7565  0.5986
   86MOL   H29036160   7.857   5.822   0.072 -0.1018 -0.5965  1.2622
   86MOL   H29136161   0.113   5.910   0.140 -1.3356 -3.2155  0.2819
   86MOL   H29236162   0.137   6.117   0.269  1.4651 -1.9330 -1.4981
   86MOL   H29336163   7.903   6.216   0.382  0.9990  0.1907 -0.7041
   86MOL   H29436164   7.397   6.494   0.624  0.8359 -0.8134  2.4222
   86MOL   H29536165   7.478   6.501   0.473 -1.5101 -0.8327  0.3568
   86MOL   C29636166   7.608   6.588   0.624  0.0248 -0.6619  1.0668
   86MOL   O29736167   7.717   6.541   0.545  0.4846  0.7680  0.2687
   86MOL   C29836168   7.844   6.575   0.583  0.6224 -0.0382  0.0207
   86MOL   O29936169   7.934   6.469   0.545 -0.0100 -0.4599  0.5046
   86MOL   C30036170   0.083   6.513   0.508  1.0805  0.0561 -0.2936
   86MOL   C30136171   0.128   6.646   0.532  0.5091  0.2653 -0.2732
   86MOL   C30236172   0.253   6.684   0.476  0.3171 -0.2814 -0.4553
   86MOL   C30336173   0.334   6.600   0.394  0.0914  0.3229 -0.3319
   86MOL   C30436174   0.288   6.474   0.370 -0.1966 -0.6013 -0.3516
   86MOL   C30536175   0.164   6.425   0.430 -0.4407 -0.6093 -0.3062
   86MOL   C30636176   7.574   6.741   0.598 -0.1990 -0.0709 -0.0288
   86MOL   H30736177   7.610   6.572   0.732  2.2996 -1.9553  0.8617
   86MOL   H30836178   7.845   6.598   0.690 -0.0081  0.4264 -0.0737
   86MOL   H30936179   7.851   6.668   0.528 -0.2944  0.4429  0.6918
   86MOL   H31036180   0.076   6.710   0.601 -0.8483 -0.2942 -0.7648
   86MOL   H31136181   0.287   6.785   0.492  0.0937 -0.1140 -1.0084
   86MOL   H31236182   0.428   6.626   0.347  1.3047 -0.3660  1.6294
   86MOL   H31336183   0.353   6.404   0.319  1.8162 -0.0188  1.3652
   86MOL   H31436184   0.129   6.324   0.416  0.9823 -0.9926 -1.1187
   86MOL   H31536185   7.536   6.753   0.497  0.2717  1.9265  0.0106
   86MOL   H31636186   7.659   6.808   0.589  0.1319 -0.5984 -0.8958
   86MOL   C31736187   7.467   6.813   0.679  0.0961  0.0247 -0.6246
   86MOL   O31836188   7.456   6.951   0.636 -0.2865 -0.6765  0.5058
   86MOL   C31936189   7.376   6.976   0.525 -0.4769 -0.6729  1.4790
   86MOL   O32036190   7.240   6.976   0.553 -0.3020 -0.0846  0.2720
   86MOL   C32136191   7.192   7.098   0.614  0.4857  0.0242  0.0166
   86MOL   C32236192   7.062   7.124   0.574  0.1456  0.8309 -0.6059
   86MOL   C32336193   6.995   7.240   0.624  0.3274 -0.0054 -0.2447
   86MOL   C32436194   7.056   7.326   0.717 -0.2394 -0.5237 -0.5513
   86MOL   C32536195   7.187   7.297   0.762 -0.0115  0.1319 -1.0469
   86MOL   C32636196   7.256   7.182   0.709  0.5554 -0.0422 -0.4024
   86MOL   C32736197   7.496   6.826   0.834  0.9069  0.5530 -0.0733
   86MOL   H32836198   7.372   6.763   0.664  0.3517 -0.1250 -1.7942
   86MOL   H32936199   7.415   6.918   0.441 -0.5277 -0.6858  1.4643
   86MOL   H33036200   7.404   7.075   0.490 -0.3895 -0.8065  1.1703
   86MOL   H33136201   7.011   7.054   0.509  2.7178 -0.1322 -1.6347
   86MOL   H33236202   6.891   7.258   0.604 -0.2194 -1.9449  0.7414
   86MOL   H33336203   7.001   7.414   0.747  1.8768  0.5509  0.2504
   86MOL   H33436204   7.245   7.354   0.833  1.0427 -0.6257 -1.2884
   86MOL   H33536205   7.357   7.159   0.738  0.1889  0.7604  1.6114
   86MOL   H33636206   7.543   6.738   0.877  0.5777  0.8272  0.8640
   86MOL   H33736207   7.570   6.907   0.842  0.3187  1.0627  0.2279
   86MOL   C33836208   7.376   6.870   0.919  0.3786 -0.6349  0.2307
   86MOL   O33936209   7.295   6.750   0.930 -0.2198  0.0391 -0.0490
   86MOL   C34036210   7.161   6.770   0.900  0.2677 -0.0236  0.3490
   86MOL   O34136211   7.093   6.858   0.983 -0.7455 -0.8300 -0.0796
   86MOL   C34236212   6.968   6.905   0.943 -0.5341  0.4001 -0.2135
   86MOL   C34336213   6.906   6.988   1.033  0.2635 -1.2471  0.2433
   86MOL   C34436214   6.776   7.046   1.009 -0.3875  0.5400  1.2111
   86MOL   C34536215   6.703   7.009   0.891 -1.0169 -0.3761 -0.1943
   86MOL   C34636216   6.767   6.926   0.798 -0.3014  0.4636  0.2919
   86MOL   C34736217   6.901   6.880   0.824  0.6818 -0.3730 -0.2174
   86MOL   C34836218   7.414   6.915   1.061  0.0644  0.2294 -0.4181
   86MOL   H34936219   7.325   6.957   0.878 -1.5522  0.1219  4.0481
   86MOL   H35036220   7.113   6.673   0.891 -0.0902  0.4176 -3.0618
   86MOL   H35136221   7.153   6.804   0.797 -0.0243 -2.7022 -0.5413
   86MOL   H35236222   6.958   7.001   1.127 -0.2663 -0.1018  0.3813
   86MOL   H35336223   6.730   7.121   1.070 -1.6171  1.0026 -0.2409
   86MOL   H35436224   6.612   7.063   0.871  1.2372  3.4483 -0.6264
   86MOL   H35536225   6.708   6.899   0.711  0.3405  2.6821 -0.8492
   86MOL   H35636226   6.945   6.818   0.747  0.5264 -0.6993 -0.0442
   86MOL   H35736227   7.478   6.833   1.092 -1.6039 -0.8593  0.1898
   86MOL   H35836228   7.328   6.902   1.126  1.3100 -2.9356  0.7064
   86MOL   C35936229   7.473   7.056   1.068 -0.1488  0.3494  0.3346
   86MOL   O36036230   7.612   7.046   1.031 -0.3817  0.2145 -0.2248
   86MOL   C36136231   7.680   7.156   0.973  0.3350 -0.5835 -0.0492
   86MOL   O36236232   7.672   7.164   0.836  0.0942 -0.2465 -0.3120
   86MOL   C36336233   7.762   7.085   0.755  0.0732 -0.4821  0.1775
   86MOL   C36436234   7.788   7.132   0.622  0.0330 -0.1538 -1.2807
   86MOL   C36536235   7.884   7.075   0.542  0.4060 -0.3224 -0.0467
   86MOL   C36636236   7.951   6.959   0.583 -0.3733  0.8577  0.5816
   86MOL   C36736237   7.932   6.915   0.718 -0.1287  0.0426 -0.5432
   86MOL   C36836238   7.844   6.984   0.804 -0.3771  0.4186 -0.0937
   86MOL   C36936239   7.460   7.129   1.208 -0.0324 -0.1034  0.6596
   86MOL   H37036240   7.432   7.115   0.986 -1.7823 -1.0908  0.0782
   86MOL   H37136241   7.782   7.136   1.006  0.5998  0.4914 -0.1960
   86MOL   H37236242   7.645   7.251   1.013  3.8554  1.0302 -0.6187
   86MOL   H37336243   7.741   7.224   0.591 -1.2487 -0.3446  0.0392
   86MOL   H37436244   7.906   7.107   0.441 -2.2310  1.9086  0.0114
   86MOL   H37536245   0.058   6.920   0.525  0.3079  0.9586  1.4761
   86MOL   H37636246   0.022   6.841   0.762 -0.6940 -0.0403  0.1679
   86MOL   H37736247   7.833   6.941   0.903 -0.4060 -0.3996 -0.4454
   86MOL   H37836248   7.529   7.214   1.217 -0.2439  0.1912 -0.3921
   86MOL   H37936249   7.504   7.066   1.285  1.6200 -0.0079 -0.1634
   86MOL   C38036250   7.313   7.169   1.249  0.0822  0.5345  0.3287
   86MOL   O38136251   7.293   7.270   1.155 -0.8777 -0.0086  0.1693
   86MOL   C38236252   7.159   7.300   1.129  0.0448 -0.2799 -0.9333
   86MOL   O38336253   7.095   7.358   1.238 -0.4277  0.1518 -0.1044
   86MOL   C38436254   6.963   7.399   1.220 -0.3789 -0.0413  0.3919
   86MOL   C38536255   6.890   7.383   1.101  0.2146 -0.4577  0.3819
   86MOL   C38636256   6.761   7.441   1.085  0.1521 -0.4865  0.5663
   86MOL   C38736257   6.700   7.499   1.196 -0.2227 -0.3650 -0.1012
   86MOL   C38836258   6.766   7.507   1.317 -0.1840 -0.2247  0.5739
   86MOL   C38936259   6.901   7.471   1.326  0.3603  0.1558 -0.2687
   86MOL   C39036260   7.317   7.238   1.387  0.4291 -0.4407  0.2001
   86MOL   H39136261   7.244   7.087   1.231  1.4514 -0.3689 -0.8896
   86MOL   H39236262   7.169   7.384   1.060 -0.6414  0.7948  0.2469
   86MOL   H39336263   7.102   7.218   1.086 -2.7872  1.3650 -0.4347
   86MOL   H39436264   6.935   7.340   1.013  0.6850 -1.7202  1.2294
   86MOL   H39536265   6.706   7.428   0.993 -0.5556 -2.2807  1.2344
   86MOL   H39636266   6.599   7.536   1.188  0.7251  2.5105  0.4041
   86MOL   H39736267   6.711   7.555   1.396 -3.6901 -0.0846 -1.8357
   86MOL   H39836268   6.962   7.486   1.414  0.9480  0.8212 -0.7831
   86MOL   H39936269   7.323   7.347   1.377 -0.3454 -0.3089  1.1256
   86MOL   H40036270   7.411   7.214   1.436  0.3759 -0.6911  0.1764
   86MOL   C40136271   7.198   7.199   1.480 -0.5294 -0.1611  0.5981
   86MOL   O40236272   7.219   7.077   1.539 -0.0798  0.1374 -0.5436
   86MOL   C40336273   7.097   7.006   1.579 -0.6270  0.7177  0.2381
   86MOL   O40436274   7.034   6.944   1.467 -0.0235  0.0570 -0.3451
   86MOL   C40536275   6.930   6.856   1.484 -0.1312  0.7960  0.3492
   86MOL   C40636276   6.878   6.818   1.606  0.4286 -0.0974 -0.6958
   86MOL   C40736277   6.752   6.744   1.622 -0.1713  0.1678 -0.5492
   86MOL   C40836278   6.686   6.692   1.507 -0.4081 -0.3251  0.9793
   86MOL   C40936279   6.744   6.719   1.385 -0.0426 -0.3069  0.1633
   86MOL   C41036280   6.860   6.807   1.372  0.5278  0.4115 -0.0551
   86MOL   C41136281   7.155   7.311   1.582 -0.2478  0.7499  0.3869
   86MOL   H41236282   7.116   7.182   1.409 -0.6860  1.2273  0.4274
   86MOL   H41336283   7.036   7.078   1.634  0.5820 -0.0697  2.6908
   86MOL   H41436284   7.124   6.925   1.647 -0.7466  0.7823  0.3635
   86MOL   H41536285   6.920   6.840   1.703 -1.6480  0.4488  0.1215
   86MOL   H41636286   6.710   6.714   1.717  2.8507  1.3469  1.2261
   86MOL   H41736287   6.600   6.627   1.521 -0.7589 -0.1679 -0.3461
   86MOL   H41836288   6.688   6.679   1.302  1.8582 -1.2201 -0.6937
   86MOL   H41936289   6.908   6.826   1.277 -0.0195 -0.8754 -0.5938
   86MOL   H42036290   7.060   7.297   1.633  0.7486  1.5837  2.5386
   86MOL   H42136291   7.136   7.406   1.532 -1.5358 -1.3463 -3.2496
   86MOL   H42236292   7.237   7.326   1.653 -0.0732  3.2676 -0.2807
   87MOL     C136293   6.404   0.211   3.648  0.2979 -0.6377 -0.0379
   87MOL     O236294   6.311   0.320   3.613  0.5522 -0.2377  0.0644
   87MOL     C336295   6.326   0.449   3.674  0.0733 -0.0104 -0.3745
   87MOL     O436296   6.301   0.447   3.812  0.2741 -0.7260  0.6999
   87MOL     C536297   6.173   0.451   3.857  0.3123  0.4323 -0.8129
   87MOL     C636298   6.063   0.423   3.775  0.2009  0.7010  0.0999
   87MOL     C736299   5.932   0.418   3.827 -0.1111  0.0190  0.2645
   87MOL     C836300   5.913   0.462   3.963  0.4301 -0.0999  0.4629
   87MOL     C936301   6.028   0.498   4.041  0.5880  0.8106  0.5768
   87MOL    C1036302   6.157   0.491   3.990  0.5110 -0.1938 -0.2884
   87MOL    C1136303   6.374   0.076   3.573  1.1353 -0.5513 -0.2081
   87MOL    H1236304   6.510   0.236   3.653  1.0723 -3.7449  0.1799
   87MOL    H1336305   6.432   0.470   3.662  0.3055 -0.7863  0.2440
   87MOL    H1436306   6.278   0.527   3.616  0.9812 -0.1692 -1.3570
   87MOL    H1536307   6.069   0.391   3.672 -1.1590  2.3390 -0.5132
   87MOL    H1636308   5.849   0.390   3.764 -0.2856  2.3634 -0.6281
   87MOL    H1736309   5.813   0.467   4.003  0.3232 -0.2025  0.2068
   87MOL    H1836310   6.013   0.528   4.144 -0.8497 -1.8382  1.1708
   87MOL    H1936311   6.236   0.523   4.056  0.6613 -0.5310 -0.3033
   87MOL    H2036312   6.413   0.080   3.471  0.2790 -0.4262 -0.5371
   87MOL    H2136313   6.268   0.053   3.562  1.1854 -1.0509  0.3597
   87MOL    H2236314   6.385   0.210   3.755  1.8499 -1.3075  0.2378
   87MOL    C2336315   6.463   7.938   3.641  0.4699 -0.0857  0.0782
   87MOL    O2436316   6.602   0.000   3.649 -0.5119  0.1403  0.0333
   87MOL    C2536317   6.676   7.922   3.752 -0.0325 -0.7637  0.4863
   87MOL    O2636318   6.628   7.951   3.876  0.0094 -0.0595 -0.0975
   87MOL    C2736319   6.615   0.104   3.920 -0.1760 -0.4457 -0.0173
   87MOL    C2836320   6.530   0.130   4.029 -0.2245 -0.5942 -0.1334
   87MOL    C2936321   6.520   0.260   4.079  0.2201  0.4863 -0.0788
   87MOL    C3036322   6.587   0.365   4.009 -0.5565 -0.3816  0.3842
   87MOL    C3136323   6.684   0.338   3.906  0.0589 -0.0979 -0.2597
   87MOL    C3236324   6.694   0.204   3.857 -0.1035 -0.4684 -0.0101
   87MOL    C3336325   6.467   7.804   3.560 -0.7245  0.2255 -0.2092
   87MOL    H3436326   6.431   7.932   3.745 -1.2731  2.8127 -0.2374
   87MOL    H3536327   6.781   7.952   3.754  0.5067 -2.1573 -3.2556
   87MOL    H3636328   6.679   7.815   3.734 -0.8344 -0.8023  0.5656
   87MOL    H3736329   6.474   0.056   4.085  1.9035 -0.7363  1.9032
   87MOL    H3836330   6.465   0.279   4.170 -0.6827 -0.2588 -0.4661
   87MOL    H3936331   6.577   0.466   4.046 -0.6439  0.2285 -1.2760
   87MOL    H4036332   6.744   0.417   3.864  0.2012 -0.1707 -0.1955
   87MOL    H4136333   6.774   0.190   3.785 -1.0450  0.1027 -1.1759
   87MOL    H4236334   6.515   7.720   3.610 -0.7288  0.5530  0.3491
   87MOL    H4336335   6.525   7.832   3.472  0.8821 -2.4336 -0.0497
   87MOL    C4436336   6.333   7.742   3.511  0.6567 -0.1115 -0.6733
   87MOL    O4536337   6.274   7.683   3.629 -0.6465  0.0012  0.2634
   87MOL    C4636338   6.144   7.728   3.659  0.2033  1.1260  0.1109
   87MOL    O4736339   6.146   7.863   3.691  0.1400  0.2746  0.0659
   87MOL    C4836340   6.040   7.915   3.764  0.2267 -0.7471 -0.2194
   87MOL    C4936341   6.074   0.052   3.843  0.1010  1.2331 -0.6363
   87MOL    C5036342   5.974   0.112   3.919  0.4437  0.3522  0.6255
   87MOL    C5136343   5.839   0.067   3.918 -0.0201 -0.4375  0.0153
   87MOL    C5236344   5.819   7.932   3.834 -0.0622  0.9666  0.0248
   87MOL    C5336345   5.910   7.863   3.761 -0.1529 -0.4866  0.4821
   87MOL    C5436346   6.360   7.635   3.403  0.3802 -0.6653 -0.4843
   87MOL    H5536347   6.266   7.816   3.468  1.6140  0.5290 -1.1054
   87MOL    H5636348   6.109   7.672   3.745 -0.2679  0.7872 -0.2946
   87MOL    H5736349   6.070   7.710   3.580  0.3114 -1.2416  0.5249
   87MOL    H5836350   6.176   0.086   3.834  0.7118 -0.6079 -0.8012
   87MOL    H5936351   6.004   0.194   3.983  0.9217 -1.4275  2.7618
   87MOL    H6036352   5.763   0.117   3.976 -0.4703  0.7472 -1.5669
   87MOL    H6136353   5.718   7.893   3.843 -0.5903  1.5488 -2.9207
   87MOL    H6236354   5.880   7.778   3.702 -0.2147 -0.1686  0.0511
   87MOL    H6336355   6.424   7.681   3.328  0.4436  0.4455  0.2404
   87MOL    H6436356   6.427   7.559   3.441  1.6895  1.5331  1.8002
   87MOL    C6536357   6.246   7.563   3.333  0.1607  0.5397  0.4100
   87MOL    O6636358   6.200   7.643   3.220  0.2305 -0.0467 -0.1366
   87MOL    C6736359   6.102   7.740   3.259  0.4945  0.6175  0.4854
   87MOL    O6836360   6.156   7.870   3.252 -0.0210  0.4349 -0.4524
   87MOL    C6936361   6.082   7.970   3.305  0.0594  0.9438 -0.6438
   87MOL    C7036362   5.947   7.954   3.339  1.0955 -0.8373  0.0334
   87MOL    C7136363   5.874   0.080   3.406 -0.0957 -0.7424  0.3190
   87MOL    C7236364   5.942   0.199   3.433 -0.8667 -0.9317 -0.0762
   87MOL    C7336365   6.070   0.219   3.393  0.5161 -0.4591  0.2619
   87MOL    C7436366   6.140   0.120   3.330  0.1118 -0.7578  0.3238
   87MOL    C7536367   6.280   7.422   3.269 -0.4831  0.1491  0.2859
   87MOL    H7636368   6.176   7.542   3.414  0.5140 -0.4861  0.4579
   87MOL    H7736369   6.073   7.723   3.363  0.4222 -0.4862  0.2912
   87MOL    H7836370   6.015   7.730   3.193  0.6289 -0.0991  0.4107
   87MOL    H7936371   5.891   7.880   3.283  2.6554  0.2682 -3.1170
   87MOL    H8036372   5.768   0.071   3.422 -0.1621 -2.1084 -0.8332
   87MOL    H8136373   5.888   0.281   3.479  0.2972  0.3609 -0.9838
   87MOL    H8236374   6.116   0.315   3.411  0.5880 -0.1964 -1.2533
   87MOL    H8336375   6.243   0.134   3.302 -0.7069  1.5681 -1.7252
   87MOL    H8436376   6.359   7.428   3.193  0.2370  2.0352  1.1617
   87MOL    H8536377   6.323   7.355   3.343 -0.5912 -0.1190  0.1078
   87MOL    C8636378   6.164   7.344   3.208  0.0541 -0.0650  0.3317
   87MOL    O8736379   6.189   7.211   3.165 -0.1816 -0.3618 -0.6198
   87MOL    C8836380   6.268   7.191   3.051 -0.4019 -0.7721  0.6363
   87MOL    O8936381   6.202   7.205   2.928 -0.3887 -0.2988 -0.0949
   87MOL    C9036382   6.183   7.331   2.872 -0.4025 -0.3020 -0.0374
   87MOL    C9136383   6.263   7.444   2.897  0.0233 -0.4252 -0.2690
   87MOL    C9236384   6.220   7.574   2.863  0.3418  0.1745  0.2767
   87MOL    C9336385   6.099   7.589   2.793  0.2527  0.1854  0.2415
   87MOL    C9436386   6.026   7.475   2.749 -0.3320 -0.0226 -0.2404
   87MOL    C9536387   6.065   7.348   2.792 -0.2143  0.4408  0.4631
   87MOL    C9636388   6.050   7.327   3.320 -0.1514 -0.0921 -0.5138
   87MOL    H9736389   6.129   7.404   3.124 -0.9589  0.4381  1.1069
   87MOL    H9836390   6.305   7.089   3.042  1.2185  0.1987 -5.3525
   87MOL    H9936391   6.359   7.250   3.057 -0.5999 -0.2540 -1.0795
   87MOL   H10036392   6.362   7.440   2.938  0.2788 -0.1141 -0.8514
   87MOL   H10136393   6.276   7.652   2.911 -0.9055  1.2338  0.0338
   87MOL   H10236394   6.067   7.689   2.768 -1.8678 -0.4422  0.3409
   87MOL   H10336395   5.937   7.485   2.689  0.3007  0.8799 -1.0359
   87MOL   H10436396   6.009   7.258   2.771 -0.8177  0.8828  0.1581
   87MOL   H10536397   6.020   7.223   3.305  1.7860 -0.9276  1.2249
   87MOL   H10636398   6.098   7.345   3.416  2.3215  2.6210 -2.1880
   87MOL   C10736399   5.921   7.412   3.302  0.1599 -0.1560 -0.0745
   87MOL   O10836400   5.855   7.377   3.182 -0.4312 -0.2873 -0.8133
   87MOL   C10936401   5.842   7.488   3.099  0.2420 -0.1687  0.7869
   87MOL   O11036402   5.749   7.576   3.148 -0.4785 -0.2454  0.0389
   87MOL   C11136403   5.746   7.700   3.086 -0.4583  0.2957  0.2688
   87MOL   C11236404   5.687   7.807   3.166  0.4230 -0.4725  0.6747
   87MOL   C11336405   5.678   7.939   3.119 -0.2218  0.1850  0.3657
   87MOL   C11436406   5.698   7.960   2.982 -0.4052  0.7347  0.1480
   87MOL   C11536407   5.741   7.857   2.898  0.3033  0.7776  0.4755
   87MOL   C11636408   5.777   7.729   2.947  0.3040  1.0720 -1.1218
   87MOL   C11736409   5.810   7.368   3.405  0.2726 -0.5699  0.6788
   87MOL   H11836410   5.937   7.519   3.316  2.0095 -0.4644  0.2536
   87MOL   H11936411   5.823   7.443   3.001 -0.3718  0.6397  0.5343
   87MOL   H12036412   5.939   7.533   3.077  0.4637 -2.0292 -2.3125
   87MOL   H12136413   5.652   7.781   3.264  0.6673  3.0985  1.7744
   87MOL   H12236414   5.644   0.041   3.186  0.7285  0.8546  0.0862
   87MOL   H12336415   5.666   0.077   2.938 -0.2337  1.5599  1.7063
   87MOL   H12436416   5.767   7.884   2.797 -1.6832 -1.0463 -0.5603
   87MOL   H12536417   5.828   7.655   2.887  2.3127  2.3399 -1.0172
   87MOL   H12636418   5.813   7.260   3.412  1.8028 -0.6091 -0.2605
   87MOL   H12736419   5.713   7.381   3.358  1.5713  2.3622 -1.3666
   87MOL   C12836420   5.799   7.443   3.537  0.4902  0.1467  0.1903
   87MOL   O12936421   5.793   7.587   3.516 -0.3215 -0.1599 -0.1487
   87MOL   C13036422   5.672   7.642   3.547  0.3187 -0.1999  0.2292
   87MOL   O13136423   5.642   7.646   3.681 -0.3135  0.3070 -0.5598
   87MOL   C13236424   5.537   7.715   3.733  0.5255 -0.5222 -0.3682
   87MOL   C13336425   5.434   7.785   3.661 -0.3163  0.0338  0.5487
   87MOL   C13436426   5.337   7.865   3.727 -0.2896  0.2582  0.4635
   87MOL   C13536427   5.342   7.879   3.870 -0.5723 -0.5257 -0.2913
   87MOL   C13636428   5.441   7.812   3.940 -1.0100  0.3759 -0.5663
   87MOL   C13736429   5.529   7.728   3.875  0.8746  0.0965 -0.2592
   87MOL   C13836430   5.927   7.436   3.627  0.5397 -0.1017 -0.8940
   87MOL   H13936431   5.713   7.417   3.598  1.2702  1.6865  2.0094
   87MOL   H14036432   5.592   7.589   3.495 -0.2925  1.9441 -1.0378
   87MOL   H14136433   5.668   7.744   3.509 -1.2845 -0.2048  0.3735
   87MOL   H14236434   5.422   7.779   3.554 -1.2978  3.0862  0.4382
   87MOL   H14336435   5.282   7.938   3.669  1.8368  0.7723 -0.9210
   87MOL   H14436436   5.288   7.957   3.921  1.2375  0.2991  0.3791
   87MOL   H14536437   5.451   7.836   4.045 -0.0571 -0.2198 -0.5189
   87MOL   H14636438   5.598   7.673   3.937 -0.8050 -0.2648  1.3016
   87MOL   H14736439   6.019   7.466   3.576  0.8854  2.0401  0.8941
   87MOL   H14836440   5.920   7.514   3.703  2.9969 -0.0391 -0.6907
   87MOL   C14936441   5.939   7.310   3.712 -0.5918 -0.2652  0.6742
   87MOL   O15036442   5.949   7.198   3.625 -0.5117 -0.2712 -0.2079
   87MOL   C15136443   5.889   7.085   3.678 -0.0206  0.5380 -0.1510
   87MOL   O15236444   5.953   7.030   3.791 -0.4026 -0.2532 -0.0513
   87MOL   C15336445   5.883   6.931   3.859  1.3409 -0.0104 -0.2266
   87MOL   C15436446   5.918   6.912   3.994  0.0018  0.1603  0.2289
   87MOL   C15536447   5.850   6.805   4.067 -0.5356 -0.5396  0.4227
   87MOL   C15636448   5.754   6.722   4.004 -0.8051 -0.2455 -0.3291
   87MOL   C15736449   5.734   6.740   3.866  0.8739  0.3735 -0.1908
   87MOL   C15836450   5.794   6.846   3.795  0.0530  0.3086  0.3052
   87MOL   C15936451   6.049   7.314   3.812 -0.2896 -0.8832 -0.2037
   87MOL   H16036452   5.850   7.311   3.773 -0.5535  0.9025  0.7289
   87MOL   H16136453   5.788   7.114   3.707 -0.0497 -0.2106  0.5310
   87MOL   H16236454   5.872   7.014   3.597 -0.4013  0.8651 -0.3553
   87MOL   H16336455   5.995   6.966   4.047  0.2757 -0.2892  0.2936
   87MOL   H16436456   5.869   6.778   4.170 -0.6642 -0.7774  0.3855
   87MOL   H16536457   5.706   6.640   4.056  1.8061 -1.6955 -0.1186
   87MOL   H16636458   5.654   6.688   3.815 -0.0797  1.4216  0.2218
   87MOL   H16736459   5.770   6.852   3.690 -1.0592  0.7224  0.5845
   87MOL   H16836460   6.146   7.314   3.763  0.4093  1.7113  1.0987
   87MOL   H16936461   6.059   7.211   3.847 -1.5177 -0.8142  0.3734
   87MOL   C17036462   6.039   7.414   3.934 -1.3355  0.2148  0.1202
   87MOL   O17136463   5.946   7.361   4.026 -0.4364 -0.4859 -0.0613
   87MOL   C17236464   5.843   7.449   4.061 -0.7408  0.4517 -0.5288
   87MOL   O17336465   5.737   7.439   3.971 -0.5878  0.3120 -0.4334
   87MOL   C17436466   5.650   7.334   3.974  0.2161 -0.0483 -0.0310
   87MOL   C17536467   5.520   7.369   3.955 -0.6417  0.1124 -0.2306
   87MOL   C17636468   5.419   7.274   3.965  0.0148  0.2404 -0.6548
   87MOL   C17736469   5.443   7.143   4.011  0.8343  0.2817  0.9563
   87MOL   C17836470   5.576   7.110   4.043 -0.3608  0.5956 -0.3471
   87MOL   C17936471   5.680   7.211   4.027 -0.8740 -0.6746  0.0595
   87MOL   C18036472   6.174   7.440   3.993 -0.0714 -0.2527 -0.2232
   87MOL   H18136473   6.005   7.504   3.883 -1.4595  0.6276  0.9162
   87MOL   H18236474   5.886   7.548   4.059  1.6850 -0.5885 -1.6801
   87MOL   H18336475   5.800   7.432   4.160  0.4494  1.8280  0.2495
   87MOL   H18436476   5.506   7.471   3.922  3.3983  0.8674  0.0981
   87MOL   H18536477   5.318   7.304   3.943 -0.1950  0.3670  0.4313
   87MOL   H18636478   5.361   7.074   4.020  2.2249 -1.5748 -0.2518
   87MOL   H18736479   5.602   7.017   4.091  0.4229  0.6709 -0.6249
   87MOL   H18836480   5.785   7.192   4.048 -0.8517 -1.2765 -0.5926
   87MOL   H18936481   6.233   7.351   4.013  2.1373  1.2412 -0.0093
   87MOL   H19036482   6.243   7.479   3.918 -0.8634  1.0665 -0.2897
   87MOL   C19136483   6.180   7.551   4.101  0.4064  0.0149 -0.3364
   87MOL   O19236484   6.316   7.613   4.079  0.4033  0.5577  0.2389
   87MOL   C19336485   6.310   7.729   4.003 -1.0337 -0.8787  0.5613
   87MOL   O19436486   6.239   7.827   4.060 -0.1496  0.1493  0.5392
   87MOL   C19536487   6.289   7.883   4.176  0.4116 -0.2352  0.6563
   87MOL   C19636488   6.391   7.830   4.259 -0.0798 -0.4273 -0.4184
   87MOL   C19736489   6.440   7.913   4.358 -0.1379  0.1087  0.2087
   87MOL   C19836490   6.380   0.065   4.382 -0.1440  0.7025 -0.4514
   87MOL   C19936491   6.278   0.116   4.310  0.2273 -0.0925  0.6912
   87MOL   C20036492   6.237   0.035   4.203  0.4349  0.2065  0.3573
   87MOL   C20136493   6.169   7.501   4.242 -0.2823 -0.0067  0.2314
   87MOL   H20236494   6.099   7.619   4.075 -0.1005 -0.1390  0.8360
   87MOL   H20336495   6.280   7.702   3.902 -0.6312 -2.6351  0.8921
   87MOL   H20436496   6.415   7.757   3.996 -0.7563 -1.7424  1.2054
   87MOL   H20536497   6.437   7.733   4.247  0.3696 -0.6620  2.7777
   87MOL   H20636498   6.527   7.896   4.421 -0.1415  0.7070  0.3763
   87MOL   H20736499   6.421   0.117   4.468  1.0495 -1.3796  0.2960
   87MOL   H20836500   6.234   0.215   4.312 -1.5776 -0.8036 -1.0156
   87MOL   H20936501   6.151   0.069   4.147 -0.2174  0.5211  1.5392
   87MOL   H21036502   6.097   7.419   4.237 -0.4334  0.2136 -1.5330
   87MOL   H21136503   6.262   7.453   4.272 -0.4355 -0.3124  0.2245
   87MOL   C21236504   6.114   7.602   4.339  0.8204  0.2795  0.2004
   87MOL   O21336505   5.976   7.633   4.319  0.1255  0.0113 -0.2668
   87MOL   C21436506   5.952   7.766   4.302  1.0237 -0.1027  0.1977
   87MOL   O21536507   5.942   7.841   4.419  0.0270 -0.5835  0.2990
   87MOL   C21636508   5.921   7.975   4.417 -0.1715  0.0076 -0.8422
   87MOL   C21736509   5.912   0.077   4.304  0.7210  0.4069  0.0019
   87MOL   C21836510   5.880   0.211   4.305  0.0634  0.8234 -0.5748
   87MOL   C21936511   5.861   0.269   4.428  0.4377  0.4564 -0.9291
   87MOL   C22036512   5.877   0.196   4.550 -0.4308  0.3369 -0.1127
   87MOL   C22136513   5.909   0.063   4.543  0.6577 -0.1612  0.5107
   87MOL   C22236514   6.128   7.545   4.483  0.4125  0.1849  0.3841
   87MOL   H22336515   6.169   7.696   4.338 -0.2202  0.9027 -2.3348
   87MOL   H22436516   5.855   7.771   4.252  1.9556 -0.9920 -1.7445
   87MOL   H22536517   6.017   7.811   4.227  1.3115 -0.6967  0.0855
   87MOL   H22636518   5.910   0.026   4.209  0.1395  0.6003 -0.0905
   87MOL   H22736519   5.886   0.270   4.214  1.4092  1.3222 -0.1627
   87MOL   H22836520   5.813   0.366   4.434  0.5514  0.4479  0.1914
   87MOL   H22936521   5.863   0.231   4.651 -0.0676 -0.1533  0.1119
   87MOL   H23036522   5.918   7.973   4.628  0.1958 -1.1334 -0.1796
   87MOL   H23136523   6.041   7.482   4.499  0.8697  0.4345  4.2371
   87MOL   H23236524   6.212   7.477   4.469  0.1193  0.1789 -1.5483
   87MOL   C23336525   6.158   7.639   4.601  0.0094 -0.3866  0.0393
   87MOL   O23436526   6.152   7.560   4.720 -0.3658 -0.4777 -0.0427
   87MOL   C23536527   6.030   7.544   4.777  0.6718  0.5679  0.1226
   87MOL   O23636528   5.990   7.667   4.841 -0.0054 -0.1625  0.2528
   87MOL   C23736529   5.860   7.694   4.873 -0.2835  0.7914 -0.4753
   87MOL   C23836530   5.756   7.600   4.857  0.3221  0.5331  0.1822
   87MOL   C23936531   5.621   7.624   4.866 -0.1652 -0.6400  0.8330
   87MOL   C24036532   5.583   7.761   4.896 -0.9302 -0.6190  0.1536
   87MOL   C24136533   5.687   7.856   4.905  0.8755  0.1769  0.5786
   87MOL   C24236534   5.820   7.823   4.906 -0.2479 -0.2793 -0.4861
   87MOL   C24336535   6.301   7.702   4.601 -0.0471  0.2243  0.1506
   87MOL   H24436536   6.083   7.717   4.609 -0.7468 -0.9504 -1.3895
   87MOL   H24536537   6.048   7.466   4.851  0.2243 -0.0842 -0.4577
   87MOL   H24636538   5.950   7.512   4.710 -0.0219  0.1372  1.1358
   87MOL   H24736539   5.788   7.499   4.836 -1.4558 -0.4433  2.0082
   87MOL   H24836540   5.546   7.548   4.847 -0.9865  0.3711 -0.0324
   87MOL   H24936541   5.481   7.795   4.880 -0.8373 -0.8373 -0.9653
   87MOL   H25036542   5.665   7.962   4.906 -1.2310 -0.2414 -0.5612
   87MOL   H25136543   5.899   7.897   4.914 -1.9591  1.5749 -0.4654
   87MOL   H25236544   6.365   7.614   4.595 -2.2451 -1.3208 -1.1870
   87MOL   H25336545   6.304   7.750   4.503  0.6480 -1.4523 -0.6650
   87MOL   C25436546   6.339   7.798   4.715 -0.7435 -0.3952  0.4838
   87MOL   O25536547   6.466   7.855   4.699  0.9146 -0.1780 -0.0231
   87MOL   C25636548   6.570   7.782   4.761 -0.9449 -0.5998  0.2302
   87MOL   O25736549   6.606   7.851   4.882 -0.3769 -0.5591  0.3373
   87MOL   C25836550   6.637   0.009   4.870 -0.3290 -0.5728 -0.4550
   87MOL   C25936551   6.666   0.084   4.751 -0.2521  0.7125 -0.7558
   87MOL   C26036552   6.708   0.218   4.764  0.2481 -1.0356 -0.5196
   87MOL   C26136553   6.729   0.272   4.892  0.3939  0.0969  0.4416
   87MOL   C26236554   6.686   0.204   5.006 -0.1766  0.2616  0.8770
   87MOL   C26336555   6.643   0.074   4.993 -0.5761  0.5964 -0.2931
   87MOL   C26436556   6.236   7.922   4.716 -0.0730 -0.0803  0.0297
   87MOL   H26536557   6.339   7.749   4.813 -0.4989  0.5140  0.9425
   87MOL   H26636558   6.656   7.777   4.694  0.5017  2.9482  1.6644
   87MOL   H26736559   6.550   7.680   4.793 -4.6275  0.2079  0.7894
   87MOL   H26836560   6.649   0.036   4.656  0.8067  0.7887 -0.9981
   87MOL   H26936561   6.730   0.279   4.677 -0.3312  2.3973  1.6270
   87MOL   H27036562   6.766   0.373   4.898 -0.5946  0.4056  1.6228
   87MOL   H27136563   6.700   0.253   5.101 -1.4798  0.4566  0.9787
   87MOL   H27236564   6.621   0.020   5.084  2.4573  1.3616  0.9527
   87MOL   H27336565   6.251   0.006   4.626  1.3826 -0.7861 -0.2203
   87MOL   H27436566   6.133   7.889   4.712  0.0937 -1.2752  3.8462
   87MOL   C27536567   6.246   0.035   4.842 -0.6090 -0.2294  0.0648
   87MOL   O27636568   6.151   0.142   4.825  0.2527 -0.1684 -0.2400
   87MOL   C27736569   6.174   0.235   4.727 -0.1081  0.3305 -0.1924
   87MOL   O27836570   6.089   0.341   4.747  1.1651 -0.4655  0.1211
   87MOL   C27936571   6.076   0.433   4.644 -0.3065 -0.4321  0.5003
   87MOL   C28036572   6.164   0.442   4.533  0.0446 -0.0261  0.3602
   87MOL   C28136573   6.147   0.534   4.431 -0.2761  0.3792  0.2240
   87MOL   C28236574   6.034   0.615   4.439  0.4303  0.0775 -0.0191
   87MOL   C28336575   5.946   0.617   4.544  0.5102 -0.9427 -0.5878
   87MOL   C28436576   5.968   0.521   4.645 -0.6774 -0.5641  0.2207
   87MOL   C28536577   6.203   7.929   4.977  0.1827 -0.2369  0.2402
   87MOL   H28636578   6.346   0.077   4.857  0.0079 -2.7304  3.6314
   87MOL   H28736579   6.148   0.190   4.631 -1.5159  2.1294 -0.6928
   87MOL   H28836580   6.278   0.262   4.748 -0.2763  0.3112  0.7067
   87MOL   H28936581   6.253   0.381   4.539  1.9827  2.5571 -1.3902
   87MOL   H29036582   6.213   0.535   4.346 -2.0829  1.1705 -1.2217
   87MOL   H29136583   6.013   0.688   4.362 -2.0863  1.9573  2.3574
   87MOL   H29236584   5.853   0.671   4.542  0.4466 -1.0426 -0.3085
   87MOL   H29336585   5.895   0.508   4.723 -1.5105 -0.4411 -0.5320
   87MOL   H29436586   6.253   7.832   4.977  1.2089  0.2824  0.4897
   87MOL   H29536587   6.096   7.913   4.969  0.3346 -0.7879 -0.7790
   87MOL   C29636588   6.229   0.029   5.112  0.6531 -0.3798 -0.2731
   87MOL   O29736589   6.109   0.033   5.184 -0.3979  0.6555  0.2281
   87MOL   C29836590   6.024   0.132   5.137  0.4267 -0.2320  0.1668
   87MOL   O29936591   5.899   0.108   5.207 -0.4608 -0.2839 -0.0761
   87MOL   C30036592   5.897   0.107   5.344  0.6885  0.2468 -0.8050
   87MOL   C30136593   5.775   0.076   5.406  0.5709  0.5760  0.0321
   87MOL   C30236594   5.758   0.079   5.544  0.2736  0.0681 -0.4478
   87MOL   C30336595   5.860   0.131   5.624  0.7392 -0.0729 -0.5382
   87MOL   C30436596   5.985   0.161   5.563  0.3786  0.1999 -1.0179
   87MOL   C30536597   6.007   0.148   5.423  0.5843 -0.1860 -0.5180
   87MOL   C30636598   6.338   7.936   5.201 -0.4175 -0.4069  0.1344
   87MOL   H30736599   6.267   0.127   5.082  0.5717 -0.3191 -0.1747
   87MOL   H30836600   6.011   0.116   5.030 -0.4706 -0.3031  0.2813
   87MOL   H30936601   6.060   0.231   5.162  0.4334  0.1449 -1.3505
   87MOL   H31036602   5.690   0.051   5.344 -0.3566  0.9495  1.1549
   87MOL   H31136603   5.659   0.056   5.580  0.3976 -0.0572 -0.1908
   87MOL   H31236604   5.852   0.139   5.731 -1.2383  0.1699 -0.6855
   87MOL   H31336605   6.070   0.202   5.614 -1.0134  1.0185  0.6988
   87MOL   H31436606   6.106   0.176   5.389  0.3968  0.8227 -0.2342
   87MOL   H31536607   6.419   7.907   5.133 -0.9128  0.3541 -0.7997
   87MOL   H31636608   6.289   7.845   5.233  2.1160 -0.9949  2.4764
   87MOL   C31736609   6.377   0.053   5.317 -0.4745 -1.1493  0.3310
   87MOL   O31836610   6.446   0.165   5.265  0.1733 -0.3142  0.3498
   87MOL   C31936611   6.451   0.282   5.348  0.6042  0.3903  0.2567
   87MOL   O32036612   6.322   0.337   5.356 -0.5239  0.4550  0.6264
   87MOL   C32136613   6.270   0.394   5.247  0.7224 -0.3046 -0.0144
   87MOL   C32236614   6.154   0.469   5.266  0.5458  0.1545  0.7210
   87MOL   C32336615   6.097   0.527   5.152  0.5333 -0.5446  0.1657
   87MOL   C32436616   6.148   0.500   5.023  0.3735  0.0115  0.2658
   87MOL   C32536617   6.260   0.419   5.006  0.0047 -0.3017 -0.9591
   87MOL   C32636618   6.328   0.378   5.117 -0.1376 -0.4362  0.3884
   87MOL   C32736619   6.481   7.957   5.408  0.1648 -0.2506  0.4906
   87MOL   H32836620   6.288   0.080   5.373 -1.7243 -2.9719 -0.7240
   87MOL   H32936621   6.518   0.361   5.315 -0.2059  1.6227  1.5337
   87MOL   H33036622   6.477   0.268   5.453 -1.8544 -2.1898  0.6029
   87MOL   H33136623   6.099   0.480   5.358 -2.1153 -0.1739 -0.7649
   87MOL   H33236624   6.010   0.589   5.167  0.6744 -0.4392  0.5751
   87MOL   H33336625   6.095   0.543   4.939  1.1203  1.9374  0.7483
   87MOL   H33436626   6.303   0.401   4.908 -0.7510 -0.5246 -1.2610
   87MOL   H33536627   6.426   0.335   5.106  0.3797  0.4899  1.2591
   87MOL   H33636628   6.546   7.905   5.337  1.5603 -0.4469  1.8752
   87MOL   H33736629   6.555   0.044   5.459 -1.6166  0.7010  1.9359
   87MOL   C33836630   6.405   7.859   5.508 -0.6965 -0.2707  0.3962
   87MOL   O33936631   6.499   7.764   5.554  0.1486 -0.2494  0.0969
   87MOL   C34036632   6.512   7.653   5.466 -0.1001  0.1450  0.6577
   87MOL   O34136633   6.416   7.545   5.489  0.0741  0.0147 -0.4617
   87MOL   C34236634   6.460   7.442   5.573 -0.1847  0.2591 -0.2954
   87MOL   C34336635   6.573   7.451   5.661  0.3502 -0.1981 -0.0027
   87MOL   C34436636   6.610   7.344   5.744 -0.0843  0.2571  0.1655
   87MOL   C34536637   6.524   7.230   5.750  0.1913  0.0682 -0.0505
   87MOL   C34636638   6.418   7.218   5.659  0.5183  0.5567  0.3305
   87MOL   C34736639   6.393   7.319   5.570  0.4223  0.3821 -0.4794
   87MOL   C34836640   6.359   7.929   5.638  0.1896 -0.0583  0.1450
   87MOL   H34936641   6.332   7.803   5.449  2.6431 -1.1645 -3.1440
   87MOL   H35036642   6.615   7.621   5.479 -0.7232 -2.2039  0.1791
   87MOL   H35136643   6.503   7.677   5.360 -1.2541  0.6950  0.8740
   87MOL   H35236644   6.627   7.544   5.664 -1.7155  0.9634  3.4793
   87MOL   H35336645   6.695   7.354   5.810 -1.0255 -0.2594  1.4807
   87MOL   H35436646   6.542   7.157   5.827  1.2721  1.4390  1.0304
   87MOL   H35536647   6.357   7.129   5.656  1.4970 -0.0631 -1.2984
   87MOL   H35636648   6.307   7.301   5.507  0.3794  1.4455 -0.7519
   87MOL   H35736649   6.311   0.048   5.612  0.5024 -0.5540 -2.3273
   87MOL   H35836650   6.438   7.961   5.705  0.0761  0.3818  0.0651
   87MOL   C35936651   6.248   7.856   5.720  0.1115  0.6108  0.0683
   87MOL   O36036652   6.128   7.876   5.649  0.7017  0.0172  0.2250
   87MOL   C36136653   6.028   7.781   5.661  0.0941  0.1373 -0.0193
   87MOL   O36236654   6.066   7.656   5.616  0.2026  0.2786 -0.1586
   87MOL   C36336655   6.064   7.632   5.480 -0.4739 -0.7462 -0.7020
   87MOL   C36436656   6.040   7.732   5.383  0.6316  0.0870  0.0587
   87MOL   C36536657   6.033   7.707   5.245 -0.3425  0.4215  0.7456
   87MOL   C36636658   6.047   7.575   5.199 -0.3570 -0.9997 -0.3527
   87MOL   C36736659   6.052   7.472   5.297 -0.2493 -0.0708 -0.1115
   87MOL   C36836660   6.075   7.501   5.434 -0.1901  0.1475 -0.6889
   87MOL   C36936661   6.235   7.893   5.872 -0.1791 -0.1652 -0.5237
   87MOL   H37036662   6.266   7.749   5.727 -6.0487 -0.7191 -1.7844
   87MOL   H37136663   5.943   7.828   5.613 -0.0807 -0.1684 -0.0088
   87MOL   H37236664   6.000   7.754   5.763  0.0462  1.3665  0.3019
   87MOL   H37336665   6.047   7.835   5.414  2.3274  0.4745 -1.4956
   87MOL   H37436666   6.020   7.791   5.179 -2.1228  0.4959  1.1666
   87MOL   H37536667   6.059   7.555   5.094  0.4938  0.0121 -0.4531
   87MOL   H37636668   6.066   7.368   5.271  0.6646 -0.0154  0.1618
   87MOL   H37736669   6.084   7.425   5.511 -1.6417  1.2560  0.6123
   87MOL   H37836670   6.141   7.850   5.904  0.6511 -1.5865  0.0372
   87MOL   H37936671   6.232   0.024   5.894 -1.3049 -0.3171  0.1034
   87MOL   C38036672   6.344   7.830   5.966  0.2239 -0.5527 -0.2198
   87MOL   O38136673   6.322   7.690   5.958  0.3906 -0.1193  0.7222
   87MOL   C38236674   6.428   7.621   5.892  0.3516  0.4275  0.4392
   87MOL   O38336675   6.520   7.561   5.982 -0.0721 -0.2571 -0.0158
   87MOL   C38436676   6.474   7.466   6.070 -0.3762  0.3143 -0.4995
   87MOL   C38536677   6.353   7.395   6.053 -0.1513 -0.3211  0.9140
   87MOL   C38636678   6.326   7.287   6.141  0.1834  0.3761 -0.1935
   87MOL   C38736679   6.411   7.250   6.248 -0.4573 -0.0379 -0.4375
   87MOL   C38836680   6.529   7.328   6.265 -0.1870 -0.6501 -0.5379
   87MOL   C38936681   6.559   7.435   6.180 -0.0082  0.5661  0.2213
   87MOL   C39036682   6.326   7.853   6.118  0.0595  0.3583 -0.1927
   87MOL   H39136683   6.439   7.870   5.932 -1.5115  2.4466 -1.6460
   87MOL   H39236684   6.388   7.543   5.828  0.8997  1.0176 -0.6213
   87MOL   H39336685   6.491   7.679   5.825 -1.2141  2.6862  0.8586
   87MOL   H39436686   6.275   7.416   5.982  0.5199  0.2461  0.3314
   87MOL   H39536687   6.239   7.225   6.124 -0.9599  0.5833  4.2346
   87MOL   H39636688   6.390   7.168   6.315  1.0593 -0.6198 -0.6560
   87MOL   H39736689   6.596   7.304   6.346  0.9823 -0.7652 -1.5392
   87MOL   H39836690   6.651   7.489   6.187  0.2930  0.0192  0.5092
   87MOL   H39936691   6.255   7.783   6.162 -1.6256  2.1705  0.0614
   87MOL   H40036692   6.298   7.957   6.132 -0.4799  0.3414 -1.1019
   87MOL   C40136693   6.463   7.841   6.193 -0.1594 -1.2867  0.6147
   87MOL   O40236694   6.535   7.960   6.174 -0.1923 -0.7449 -0.3884
   87MOL   C40336695   6.668   7.972   6.212 -0.5637  0.1899  0.2514
   87MOL   O40436696   6.754   7.881   6.156  0.4247 -0.2909 -0.1886
   87MOL   C40536697   6.746   7.861   6.020 -0.5322  0.0333  0.6734
   87MOL   C40636698   6.703   7.963   5.935  0.3747  0.1666  0.5010
   87MOL   C40736699   6.709   7.942   5.795 -0.2789 -0.0544 -0.6812
   87MOL   C40836700   6.754   7.819   5.743  0.2578  0.4093  0.1904
   87MOL   C40936701   6.806   7.718   5.828  1.1905  0.0271  0.5426
   87MOL   C41036702   6.804   7.743   5.968 -0.3143  0.6365 -0.8289
   87MOL   C41136703   6.445   7.801   6.345  0.3878  0.2011  0.0908
   87MOL   H41236704   6.512   7.758   6.142  2.2294  0.2807  0.2759
   87MOL   H41336705   6.680   7.964   6.320  2.4221  1.2322  0.0401
   87MOL   H41436706   6.700   0.099   6.195 -0.4404 -0.1709 -1.8198
   87MOL   H41536707   6.676   0.084   5.974  0.5216  0.1187  0.7254
   87MOL   H41636708   6.688   0.046   5.725  1.5127  0.3816 -0.7461
   87MOL   H41736709   6.742   7.806   5.636  1.6751 -3.3164  0.3876
   87MOL   H41836710   6.837   7.622   5.791  2.2459 -0.0577  1.6417
   87MOL   H41936711   6.846   7.671   6.037 -2.3548  0.2960  0.0728
   87MOL   H42036712   6.546   7.767   6.371  0.4205 -1.0622 -1.5718
   87MOL   H42136713   6.388   7.708   6.351  2.2897 -0.9815  0.5363
   87MOL   H42236714   6.416   7.882   6.411  2.0546  0.9676 -0.0910
   88MOL     C136715   6.688   0.324   1.653 -0.6546 -0.0553 -0.0200
   88MOL     O236716   6.791   0.401   1.715 -0.1453  0.3780  0.0399
   88MOL     C336717   6.738   0.470   1.822 -0.3746  0.5941 -0.6481
   88MOL     O436718   6.634   0.552   1.794 -0.3149  0.0173  0.6652
   88MOL     C536719   6.605   0.652   1.887 -0.4496 -0.8566  0.6099
   88MOL     C636720   6.649   0.654   2.025 -0.1270 -0.0055 -0.0733
   88MOL     C736721   6.619   0.759   2.115  0.2382  0.0545 -0.1232
   88MOL     C836722   6.545   0.870   2.061  0.0399  0.0637 -0.0962
   88MOL     C936723   6.503   0.867   1.926 -0.5028 -0.1315 -0.4890
   88MOL    C1036724   6.522   0.756   1.850 -0.7122  0.4715 -0.3051
   88MOL    C1136725   6.755   0.200   1.593 -0.0152 -0.0679  0.3694
   88MOL    H1236726   6.612   0.289   1.722  0.0018 -2.5865 -0.5265
   88MOL    H1336727   6.694   0.392   1.885  2.0102  0.3386  0.7303
   88MOL    H1436728   6.820   0.524   1.869  0.7737  1.2318 -3.2841
   88MOL    H1536729   6.715   0.579   2.066  1.6289  0.9931 -1.0197
   88MOL    H1636730   6.653   0.746   2.217  2.9628  0.2634 -0.9846
   88MOL    H1736731   6.527   0.959   2.119 -0.0621  0.4595 -0.7414
   88MOL    H1836732   6.452   0.954   1.887 -0.9856  0.7972  2.1006
   88MOL    H1936733   6.481   0.755   1.751  2.6285  0.4765 -1.7480
   88MOL    H2036734   6.810   0.143   1.668 -0.6641 -0.2994  0.6704
   88MOL    H2136735   6.831   0.228   1.520 -1.6489  1.5933 -0.7425
   88MOL    H2236736   6.629   0.385   1.584 -1.8638  2.8009  3.3786
   88MOL    C2336737   6.655   0.095   1.529 -0.5003  0.0580 -0.6793
   88MOL    O2436738   6.543   0.052   1.609 -0.2483 -0.1771 -0.3021
   88MOL    C2536739   6.563   0.010   1.745  1.0272 -0.2214 -0.1881
   88MOL    O2636740   6.585   7.849   1.769  0.3180  0.5386 -0.3088
   88MOL    C2736741   6.615   7.804   1.898 -0.9142  0.3241  0.0163
   88MOL    C2836742   6.672   7.679   1.907 -0.9213 -0.0785 -0.0753
   88MOL    C2936743   6.714   7.629   2.037  0.1728  0.4476 -0.1915
   88MOL    C3036744   6.697   7.705   2.152 -0.1727 -0.5012 -0.0470
   88MOL    C3136745   6.637   7.834   2.148 -0.3134 -1.1505  0.7825
   88MOL    C3236746   6.609   7.888   2.015 -0.4687  0.4843 -0.4928
   88MOL    C3336747   6.730   7.946   1.484 -0.1632  0.7528 -0.4786
   88MOL    H3436748   6.608   0.140   1.441  0.9442 -0.0303 -1.5112
   88MOL    H3536749   6.484   0.043   1.811  0.7236 -2.7516  0.7758
   88MOL    H3636750   6.648   0.065   1.784 -0.1547  1.5418 -0.0571
   88MOL    H3736751   6.683   7.614   1.821 -0.6180 -0.8587  0.5490
   88MOL    H3836752   6.755   7.529   2.043 -1.6099 -0.3061 -0.0134
   88MOL    H3936753   6.725   7.660   2.246  2.4604  2.5778  0.7601
   88MOL    H4036754   6.621   7.892   2.238  1.3857  0.2397  0.2272
   88MOL    H4136755   6.564   0.011   2.014  0.9877  1.2058  2.3981
   88MOL    H4236756   6.656   7.882   1.437  0.6011 -0.2904 -0.2888
   88MOL    H4336757   6.752   7.880   1.568 -1.9364  1.6849  0.7533
   88MOL    C4436758   6.839   7.975   1.377  0.2307 -0.1592  0.5400
   88MOL    O4536759   6.765   0.046   1.262 -0.0844 -0.8061 -0.4098
   88MOL    C4636760   6.820   0.160   1.201  0.4304 -0.2574 -0.4386
   88MOL    O4736761   6.814   0.268   1.280  0.1432 -0.3625  0.1069
   88MOL    C4836762   6.695   0.338   1.293  0.1899 -0.5990 -0.7184
   88MOL    C4936763   6.696   0.465   1.359  0.3041 -0.8984  0.8420
   88MOL    C5036764   6.577   0.541   1.372 -0.1256 -0.2447  0.3717
   88MOL    C5136765   6.460   0.489   1.316  0.0191 -0.4831  0.2242
   88MOL    C5236766   6.464   0.367   1.244 -0.4869 -0.0671 -1.3807
   88MOL    C5336767   6.573   0.292   1.238 -0.1018  0.3381  0.3380
   88MOL    C5436768   6.911   7.848   1.330  0.7925  0.3839 -0.1080
   88MOL    H5536769   6.916   0.069   1.410 -0.7883  0.3062  1.9795
   88MOL    H5636770   6.761   0.169   1.110 -0.0457 -2.7964 -0.3976
   88MOL    H5736771   6.924   0.147   1.169 -0.0869  1.7180 -3.1430
   88MOL    H5836772   6.788   0.498   1.404 -1.3120  3.2547  1.2964
   88MOL    H5936773   6.573   0.638   1.419  2.2016 -0.5853  1.3300
   88MOL    H6036774   6.367   0.542   1.325  0.6426  0.7831 -0.6285
   88MOL    H6136775   6.372   0.330   1.202 -0.6024 -0.7727 -0.5266
   88MOL    H6236776   6.567   0.196   1.188  2.0742  0.3222  0.0596
   88MOL    H6336777   6.922   7.785   1.418 -0.5964 -0.0978 -0.2739
   88MOL    H6436778   6.849   7.798   1.256 -0.8293  0.8211  0.9248
   88MOL    C6536779   7.058   7.866   1.286  0.3963  0.2213 -0.1967
   88MOL    O6636780   7.139   7.886   1.403  0.7456  0.1309  0.0795
   88MOL    C6736781   7.198   0.038   1.425  0.0445 -0.5056  0.0996
   88MOL    O6836782   7.236   0.063   1.557  0.2140  0.5903  0.4201
   88MOL    C6936783   7.314   7.951   1.618  1.2106  0.0144 -0.5246
   88MOL    C7036784   7.391   7.848   1.559 -0.1040  0.7533  0.1218
   88MOL    C7136785   7.455   7.751   1.636  0.0517 -0.0202  0.2641
   88MOL    C7236786   7.455   7.764   1.775 -0.1707 -0.6630 -0.1017
   88MOL    C7336787   7.388   7.870   1.838 -0.1193 -0.1533  0.3244
   88MOL    C7436788   7.314   7.957   1.757  0.6112 -0.6693  0.5213
   88MOL    C7536789   7.104   7.747   1.197  0.2202  1.0174 -0.0698
   88MOL    H7636790   7.062   7.952   1.220  2.2775  0.1562 -0.1896
   88MOL    H7736791   7.130   0.122   1.414  0.0756 -0.5527 -0.4587
   88MOL    H7836792   7.289   0.046   1.367 -0.2642  2.2029 -0.0767
   88MOL    H7936793   7.401   7.841   1.451 -0.3835 -0.3943  0.1661
   88MOL    H8036794   7.503   7.669   1.584  0.7550  0.5309  0.0198
   88MOL    H8136795   7.505   7.689   1.835  1.9502 -0.4812 -1.5815
   88MOL    H8236796   7.384   7.889   1.944  0.8331  1.1903  0.1307
   88MOL    H8336797   7.253   0.059   1.801  1.1673  0.0591  0.0115
   88MOL    H8436798   7.125   7.662   1.262  3.3155  1.0114 -0.9760
   88MOL    H8536799   7.019   7.713   1.138 -0.6634  0.9208  1.2281
   88MOL    C8636800   7.239   7.769   1.111  0.1608  0.2586 -0.2152
   88MOL    O8736801   7.289   7.643   1.089  0.2900  0.5893  0.0426
   88MOL    C8836802   7.407   7.612   1.167  0.2748 -0.1080 -0.0715
   88MOL    O8936803   7.519   7.669   1.114  0.4258  0.7125  0.4901
   88MOL    C9036804   7.549   7.638   0.984 -0.3808  0.4292  0.1320
   88MOL    C9136805   7.677   7.694   0.947  0.1139  0.2295 -0.1390
   88MOL    C9236806   7.732   7.661   0.822 -0.4468  0.7586  0.1639
   88MOL    C9336807   7.667   7.564   0.741  0.3037 -0.7256 -0.2826
   88MOL    C9436808   7.556   7.495   0.791  0.3292  0.4206  0.2222
   88MOL    C9536809   7.485   7.534   0.907 -0.3812  0.1808 -0.3394
   88MOL    C9636810   7.208   7.844   0.988  0.2668  0.0642  0.8822
   88MOL    H9736811   7.306   7.833   1.168  0.3223  1.2081 -1.4366
   88MOL    H9836812   7.412   7.503   1.168 -0.5058 -0.1421  0.7747
   88MOL    H9936813   7.404   7.647   1.270  0.8046  1.4901 -0.5773
   88MOL   H10036814   7.722   7.762   1.017  1.0339 -1.4413  0.9341
   88MOL   H10136815   7.830   7.696   0.794 -0.3789  0.6642  0.2872
   88MOL   H10236816   7.728   7.542   0.654  1.6640  1.1138  0.1840
   88MOL   H10336817   7.519   7.416   0.728 -0.4551  1.3321 -0.4708
   88MOL   H10436818   7.402   7.473   0.938 -0.7140  0.2848 -1.0176
   88MOL   H10536819   7.164   7.779   0.913  0.6725  0.4954  0.2656
   88MOL   H10636820   7.133   7.919   1.012 -0.1923  0.0401 -0.4637
   88MOL   C10736821   7.322   7.918   0.916  0.2599 -0.0015 -0.8346
   88MOL   O10836822   7.300   7.928   0.778  0.3953 -0.2577  0.2596
   88MOL   C10936823   7.307   7.812   0.706 -0.8029  0.1125 -0.2426
   88MOL   O11036824   7.171   7.779   0.664  0.5946 -0.4874  0.4292
   88MOL   C11136825   7.151   7.688   0.568 -0.2764  0.2128 -1.0855
   88MOL   C11236826   7.256   7.613   0.508  0.4948 -0.0677 -0.5643
   88MOL   C11336827   7.215   7.503   0.437  0.0795  0.4664 -0.3842
   88MOL   C11436828   7.082   7.472   0.400  0.3245 -0.1534 -0.4692
   88MOL   C11536829   6.980   7.552   0.449 -0.2830  0.4545  1.0975
   88MOL   C11636830   7.013   7.659   0.534  0.4777 -0.3706 -0.2632
   88MOL   C11736831   7.367   0.078   0.984 -0.1218 -0.2634  0.1889
   88MOL   H11836832   7.413   7.862   0.935  0.3221  0.5977  0.7128
   88MOL   H11936833   7.336   7.733   0.775 -1.2639 -0.2417 -0.4470
   88MOL   H12036834   7.380   7.820   0.626 -0.6556 -1.5507 -0.2838
   88MOL   H12136835   7.359   7.632   0.534  0.9809 -1.0268 -1.7337
   88MOL   H12236836   7.292   7.446   0.388  0.8838  1.6978 -0.5918
   88MOL   H12336837   7.070   7.394   0.327  0.6483  1.4378 -2.2579
   88MOL   H12436838   6.874   7.537   0.432 -0.6948  2.8154  1.4119
   88MOL   H12536839   6.933   7.707   0.588 -0.5581 -0.7162 -1.4694
   88MOL   H12636840   7.459   0.119   0.945  0.8586 -0.8977  1.7765
   88MOL   H12736841   7.401   0.050   1.084 -0.4855 -1.0245  0.1070
   88MOL   C12836842   7.276   0.201   1.001  0.8353  0.5979 -0.5661
   88MOL   O12936843   7.176   0.183   1.098 -0.2881  0.1126  0.5649
   88MOL   C13036844   7.158   0.296   1.176  0.3481  0.0838 -0.3850
   88MOL   O13136845   7.260   0.322   1.264 -0.4116 -0.2342  0.2185
   88MOL   C13236846   7.227   0.390   1.379 -0.7755  0.1927  0.0319
   88MOL   C13336847   7.315   0.384   1.486 -0.0478  0.6841 -0.4905
   88MOL   C13436848   7.295   0.457   1.606 -0.1540 -0.6540  0.1276
   88MOL   C13536849   7.183   0.543   1.609  0.9532 -0.2149  0.2054
   88MOL   C13636850   7.087   0.544   1.506 -0.1235  0.6102 -0.0392
   88MOL   C13736851   7.116   0.468   1.391 -0.4062  0.0701  0.1304
   88MOL   C13836852   7.204   0.231   0.871  0.3493 -0.4140 -0.1318
   88MOL   H13936853   7.348   0.273   1.039 -1.9658  2.0646  2.2290
   88MOL   H14036854   7.068   0.282   1.236  1.6395 -1.9215  1.1503
   88MOL   H14136855   7.148   0.377   1.104 -0.6730  0.7944  0.5438
   88MOL   H14236856   7.407   0.328   1.483  0.1171  0.7617  1.9495
   88MOL   H14336857   7.354   0.466   1.696 -1.1861  2.3251  0.5640
   88MOL   H14436858   7.153   0.611   1.687  2.6190  0.0987  0.5703
   88MOL   H14536859   6.995   0.600   1.514 -0.6647 -0.1473 -0.9475
   88MOL   H14636860   7.055   0.498   1.307  1.3139  0.6461 -0.9397
   88MOL   H14736861   7.155   0.143   0.829 -0.4906  0.1696 -0.3694
   88MOL   H14836862   7.112   0.284   0.894 -0.2459 -1.2291 -0.6254
   88MOL   C14936863   7.292   0.313   0.764 -0.0065  0.1230 -0.0876
   88MOL   O15036864   7.221   0.318   0.644  0.0538  0.7290  0.2229
   88MOL   C15136865   7.251   0.208   0.561 -0.2105 -0.2336 -0.1475
   88MOL   O15236866   7.382   0.216   0.514  0.5939  0.6155  0.0732
   88MOL   C15336867   7.413   0.298   0.412  0.4865  0.1491  0.2785
   88MOL   C15436868   7.315   0.378   0.350  0.0004 -0.3716  0.6613
   88MOL   C15536869   7.361   0.467   0.246  0.2237 -0.3773 -0.5681
   88MOL   C15636870   7.491   0.468   0.197  0.8039  0.3405 -0.5120
   88MOL   C15736871   7.586   0.382   0.260  0.1658 -0.0487 -0.3334
   88MOL   C15836872   7.549   0.301   0.373  0.5190 -0.5951  0.1383
   88MOL   C15936873   7.289   0.460   0.816  0.5925  0.9058 -0.4907
   88MOL   H16036874   7.392   0.275   0.742 -0.2878 -0.0321 -1.0951
   88MOL   H16136875   7.243   0.103   0.590 -1.6177 -0.5955 -1.7755
   88MOL   H16236876   7.176   0.213   0.482 -0.4519 -0.4213  0.0673
   88MOL   H16336877   7.215   0.386   0.391 -0.2710  0.4071 -0.1503
   88MOL   H16436878   7.296   0.541   0.202 -0.0906 -0.0772  0.3663
   88MOL   H16536879   7.512   0.537   0.116 -0.2134  0.7062 -0.4712
   88MOL   H16636880   7.687   0.376   0.224 -0.4439 -1.4366 -1.9049
   88MOL   H16736881   7.630   0.250   0.422  0.3286 -0.0614  1.0301
   88MOL   H16836882   7.332   0.465   0.915  0.9550  0.0062 -0.6033
   88MOL   H16936883   7.186   0.494   0.828 -0.4096 -1.6839 -1.4929
   88MOL   C17036884   7.368   0.557   0.725  0.0909  0.6878  0.3281
   88MOL   O17136885   7.289   0.675   0.708  0.2479  0.0415  0.1765
   88MOL   C17236886   7.221   0.675   0.583  0.2698 -0.6286  0.2083
   88MOL   O17336887   7.311   0.694   0.475 -0.0519 -0.3421 -0.0796
   88MOL   C17436888   7.385   0.813   0.469 -0.0633  0.2118 -0.0704
   88MOL   C17536889   7.370   0.927   0.558  0.1981  0.0557 -0.0163
   88MOL   C17636890   7.434   1.046   0.532  1.0543 -0.0013 -0.2348
   88MOL   C17736891   7.513   1.059   0.412  0.0699  0.0548  0.1908
   88MOL   C17836892   7.538   0.951   0.325 -0.1684  0.2728 -0.8929
   88MOL   C17936893   7.463   0.833   0.353 -0.2430 -0.0145  0.1479
   88MOL   C18036894   7.497   0.603   0.793  0.1817  0.2687  0.2242
   88MOL   H18136895   7.395   0.506   0.633 -3.9458 -2.0605  0.4775
   88MOL   H18236896   7.133   0.740   0.582  1.9195  1.6927  0.9494
   88MOL   H18336897   7.183   0.575   0.565 -0.4811 -0.2568 -0.3166
   88MOL   H18436898   7.308   0.905   0.644  0.3597 -0.6453 -0.0778
   88MOL   H18536899   7.436   1.130   0.600 -0.2922 -1.2182  1.3653
   88MOL   H18636900   7.571   1.149   0.393 -1.7645  1.4883  1.2619
   88MOL   H18736901   7.610   0.961   0.245 -1.3886  1.4703 -1.8662
   88MOL   H18836902   7.476   0.748   0.287  0.0107 -1.2139  1.7020
   88MOL   H18936903   7.531   0.701   0.758  2.6060 -0.4551  0.4898
   88MOL   H19036904   7.470   0.617   0.898  0.5188 -0.6994  0.4388
   88MOL   C19136905   7.613   0.508   0.779 -0.1179  0.1215 -0.6978
   88MOL   O19236906   7.691   0.523   0.896 -0.0656  0.5268 -0.7407
   88MOL   C19336907   7.645   0.467   1.017 -0.0320  0.2791 -0.4871
   88MOL   O19436908   7.642   0.325   1.014 -0.1678  0.1212  0.3442
   88MOL   C19536909   7.641   0.257   1.133 -0.0295  0.4020  0.5783
   88MOL   C19636910   7.608   0.317   1.256 -0.0194  0.0763  0.2831
   88MOL   C19736911   7.635   0.239   1.373 -0.5410 -0.0681 -0.6979
   88MOL   C19836912   7.679   0.104   1.367 -0.0941 -0.4164 -0.5528
   88MOL   C19936913   7.704   0.045   1.237  0.1200  0.0969  0.8655
   88MOL   C20036914   7.691   0.124   1.123 -0.1225  0.2940  0.5035
   88MOL   C20136915   7.704   0.550   0.656  0.2199 -0.1642  0.2313
   88MOL   H20236916   7.571   0.408   0.771 -2.3488  0.8526  1.3890
   88MOL   H20336917   7.543   0.498   1.041  0.1465  0.1122  0.5136
   88MOL   H20436918   7.716   0.500   1.093 -1.5830 -0.7688  1.4711
   88MOL   H20536919   7.553   0.407   1.278 -0.3874  0.2686 -1.4121
   88MOL   H20636920   7.620   0.287   1.468  1.1430  1.0110 -0.9503
   88MOL   H20736921   7.693   0.052   1.460 -1.5372  0.8973  0.4198
   88MOL   H20836922   7.728   7.916   1.221  0.8436  0.4647 -0.4413
   88MOL   H20936923   7.714   0.084   1.025  0.1052  1.9723 -0.1319
   88MOL   H21036924   7.639   0.543   0.569 -0.8565 -0.0554  1.0073
   88MOL   H21136925   7.739   0.653   0.662  1.9273 -0.7779  0.8989
   88MOL   C21236926   7.816   0.451   0.649  0.2200  0.1901  0.2105
   88MOL   O21336927   7.772   0.319   0.642  0.0937 -0.1670 -0.3331
   88MOL   C21436928   7.828   0.222   0.728  0.8648 -0.5306  0.6997
   88MOL   O21536929   7.764   0.098   0.722  0.0925 -0.3501  0.7565
   88MOL   C21636930   7.756   0.030   0.601  0.6836  0.5073 -0.3952
   88MOL   C21736931   7.824   0.061   0.483 -0.1600 -0.5425  0.4661
   88MOL   C21836932   7.791   7.972   0.365  0.2471 -0.4546  0.1589
   88MOL   C21936933   7.681   7.881   0.370 -0.2563  0.2818  0.1340
   88MOL   C22036934   7.629   7.843   0.489  0.0686  0.8962 -0.1782
   88MOL   C22136935   7.665   7.905   0.609 -0.2994 -0.0378  0.5207
   88MOL   C22236936   7.901   0.492   0.529 -0.1308 -0.2822 -0.2810
   88MOL   H22336937   7.878   0.457   0.739  1.0894  0.0800 -0.3788
   88MOL   H22436938   7.825   0.260   0.830 -0.4964 -0.8215  0.7708
   88MOL   H22536939   7.933   0.202   0.707  1.1160  0.5906  0.8411
   88MOL   H22636940   7.884   0.149   0.472 -2.4835  0.8528 -1.5793
   88MOL   H22736941   7.837   0.029   0.273  1.1987 -2.6514 -0.1833
   88MOL   H22836942   7.646   7.826   0.283  0.0583  0.9400 -0.4144
   88MOL   H22936943   7.544   7.777   0.486 -1.6339  3.0387 -0.0133
   88MOL   H23036944   7.608   7.879   0.697 -0.8425 -2.8892 -0.6166
   88MOL   H23136945   7.838   0.489   0.440 -0.6940  0.6263  0.0752
   88MOL   H23236946   7.927   0.597   0.544  0.4187 -0.6310  1.3850
   88MOL   C23336947   0.058   0.423   0.509  0.3237  0.4740  0.1208
   88MOL   O23436948   0.109   0.452   0.377 -0.6374 -0.0601  0.4217
   88MOL   C23536949   0.047   0.383   0.270 -0.0105  0.0735 -0.3606
   88MOL   O23636950   0.047   0.242   0.279  0.5055 -0.5886  0.4696
   88MOL   C23736951   0.168   0.180   0.275  0.7938 -0.1653  0.5811
   88MOL   C23836952   0.291   0.247   0.275  0.1493 -0.4812  0.2309
   88MOL   C23936953   0.411   0.180   0.257  0.7513 -0.8627  0.0306
   88MOL   C24036954   0.409   0.040   0.240  0.1728 -0.0823 -0.2885
   88MOL   C24136955   0.289   7.944   0.242  0.3367 -0.2768 -0.6268
   88MOL   C24236956   0.169   0.039   0.263 -0.2939 -0.1718 -0.0327
   88MOL   C24336957   0.167   0.466   0.613  0.3201 -0.5476 -0.2239
   88MOL   H24436958   0.044   0.315   0.506 -0.3923  0.4989  2.0578
   88MOL   H24536959   0.099   0.395   0.175  0.4773 -0.2267 -0.1346
   88MOL   H24636960   7.924   0.427   0.254 -0.2479 -0.4247 -0.2994
   88MOL   H24736961   0.300   0.354   0.274 -0.1991 -0.4549 -0.5429
   88MOL   H24836962   0.503   0.236   0.251  0.5472 -0.6421 -1.1038
   88MOL   H24936963   0.502   7.963   0.225  1.0129  1.2552  0.1186
   88MOL   H25036964   0.281   7.838   0.224 -3.7142  0.2544 -2.4065
   88MOL   H25136965   0.074   7.962   0.265  0.8993 -2.4297 -0.3651
   88MOL   H25236966   0.200   0.562   0.574 -0.0592 -0.8408 -1.2781
   88MOL   H25336967   0.124   0.497   0.708  1.7487  2.3215 -0.4679
   88MOL   C25436968   0.288   0.376   0.638 -1.3527 -0.3186 -0.2976
   88MOL   O25536969   0.389   0.447   0.703  0.2015  0.1459 -0.2642
   88MOL   C25636970   0.482   0.509   0.620 -0.4167 -0.1776 -0.9557
   88MOL   O25736971   0.568   0.410   0.575 -0.2520  1.3930  0.2435
   88MOL   C25836972   0.665   0.448   0.489 -0.2244  0.2285  0.0142
   88MOL   C25936973   0.798   0.405   0.516  0.6535  0.4881  0.2295
   88MOL   C26036974   0.909   0.433   0.440  0.1178 -0.0248  0.5893
   88MOL   C26136975   0.885   0.505   0.321  0.2499 -0.1948  0.5037
   88MOL   C26236976   0.753   0.554   0.288 -0.2638 -0.6925  0.4790
   88MOL   C26336977   0.643   0.528   0.373 -0.1074  0.6339  0.3346
   88MOL   C26436978   0.258   0.247   0.723  0.3065  0.8334 -0.2676
   88MOL   H26536979   0.338   0.341   0.548  3.0579 -0.1550  1.9703
   88MOL   H26636980   0.534   0.577   0.687  0.1469 -1.5683  0.0564
   88MOL   H26736981   0.433   0.572   0.546  2.9194  0.8465 -2.3617
   88MOL   H26836982   0.814   0.336   0.598 -0.4707 -0.4667 -0.3462
   88MOL   H26936983   1.009   0.402   0.465  0.0458  0.4106  1.4307
   88MOL   H27036984   0.967   0.536   0.258  0.2226 -2.0007 -0.4742
   88MOL   H27136985   0.731   0.618   0.204  2.2621  1.1552  1.1949
   88MOL   H27236986   0.544   0.553   0.339 -0.2728 -0.7851 -0.2553
   88MOL   H27336987   0.177   0.191   0.676 -0.4242 -1.0022  3.0400
   88MOL   H27436988   0.347   0.183   0.722  0.3818  0.9006  1.2081
   88MOL   C27536989   0.213   0.257   0.874  0.1624  0.3997 -0.1621
   88MOL   O27636990   0.090   0.336   0.879 -0.4552 -0.4026 -0.0891
   88MOL   C27736991   0.093   0.425   0.982  0.6001  0.1918 -0.4539
   88MOL   O27836992   0.152   0.546   0.939 -0.1008  0.1261  0.4937
   88MOL   C27936993   0.242   0.598   1.024 -0.1019  0.0671  0.3303
   88MOL   C28036994   0.331   0.701   0.979  1.1206 -0.2254  0.5419
   88MOL   C28136995   0.410   0.786   1.054  0.0944  0.5439 -0.1899
   88MOL   C28236996   0.404   0.765   1.194 -0.6284  0.4035  0.1056
   88MOL   C28336997   0.320   0.667   1.248 -0.7120 -0.1422  0.5093
   88MOL   C28436998   0.241   0.581   1.166  0.3958 -0.5110 -1.1263
   88MOL   C28536999   0.184   0.116   0.944  0.0300 -0.3138  0.1052
   88MOL   H28637000   0.296   0.304   0.926 -0.0836  3.1727 -2.1229
   88MOL   H28737001   0.137   0.373   1.067  0.0506 -2.4612 -1.7225
   88MOL   H28837002   7.965   0.450   1.008  0.3022 -1.0895 -0.3598
   88MOL   H28937003   0.328   0.717   0.872 -0.2720  0.4763  0.6699
   88MOL   H29037004   0.478   0.861   1.018  2.4328 -1.5073 -0.1570
   88MOL   H29137005   0.470   0.824   1.256 -0.8326 -0.6294  1.3455
   88MOL   H29237006   0.320   0.660   1.356  1.0054  2.5399  0.7003
   88MOL   H29337007   0.181   0.509   1.220 -0.6251  1.6281  0.7213
   88MOL   H29437008   0.110   0.051   0.897 -0.9433 -0.0237  1.2246
   88MOL   H29537009   0.140   0.142   1.040  1.5455  1.1841  0.4071
   88MOL   C29637010   0.313   0.027   0.969 -0.7902 -0.5040 -0.4452
   88MOL   O29737011   0.372   0.090   1.083  0.3359 -0.0804 -0.6240
   88MOL   C29837012   0.514   0.068   1.086 -0.1076 -0.0706  0.1275
   88MOL   O29937013   0.554   7.928   1.150 -0.5412  0.1064  0.1395
   88MOL   C30037014   0.680   7.916   1.205  0.4993 -0.0075  0.2114
   88MOL   C30137015   0.707   7.798   1.266  0.0780 -0.2564  0.2225
   88MOL   C30237016   0.811   7.784   1.350 -0.1318  0.5827  0.2373
   88MOL   C30337017   0.914   7.876   1.362  0.5171  0.5048 -0.1406
   88MOL   C30437018   0.892   0.022   1.293 -0.1241 -0.5956 -0.1141
   88MOL   C30537019   0.772   0.041   1.218 -0.3578  0.0204 -1.0242
   88MOL   C30637020   0.279   7.857   1.000 -0.1779 -0.0419 -0.6199
   88MOL   H30737021   0.380   0.012   0.885 -0.7960 -2.9236 -0.0584
   88MOL   H30837022   0.533   0.156   1.147 -2.0702  0.1084  0.5199
   88MOL   H30937023   0.560   0.084   0.988 -2.3403  1.9374 -0.6421
   88MOL   H31037024   0.639   7.714   1.266 -0.4461  0.1549  1.6246
   88MOL   H31137025   0.823   7.697   1.414 -0.2312  0.1464 -0.3350
   88MOL   H31237026   0.992   7.858   1.434  0.2843 -2.3537 -0.5372
   88MOL   H31337027   0.968   0.098   1.297 -1.2189  0.4522  1.4529
   88MOL   H31437028   0.758   0.134   1.164 -0.4525  0.7198  0.1780
   88MOL   H31537029   0.208   7.852   1.083 -0.6202  1.7443 -0.8809
   88MOL   H31637030   0.366   7.805   1.040 -0.4013 -0.3443 -0.5276
   88MOL   C31737031   0.223   7.767   0.886 -0.1570 -0.2095  0.2090
   88MOL   O31837032   0.095   7.804   0.845  0.2973 -0.4413  0.1430
   88MOL   C31937033   0.070   7.799   0.710 -0.5251 -0.1490  1.0868
   88MOL   O32037034   0.070   7.664   0.673 -0.1627  0.8440  0.7388
   88MOL   C32137035   0.023   7.623   0.551 -0.6057  0.6983  0.4408
   88MOL   C32237036   0.003   7.486   0.538 -0.0419  0.0397  0.1161
   88MOL   C32337037   7.945   7.429   0.412 -0.0499 -0.5497  0.4884
   88MOL   C32437038   7.934   7.516   0.300 -0.0427  0.1241 -0.2330
   88MOL   C32537039   7.947   7.655   0.315 -0.3803  0.2770 -0.5044
   88MOL   C32637040   0.012   7.705   0.440  0.3893  0.0313  0.2932
   88MOL   C32737041   0.201   7.613   0.932 -0.4890  0.4328 -0.3003
   88MOL   H32837042   0.284   7.772   0.796 -0.5008  0.9596  0.0379
   88MOL   H32937043   0.150   7.859   0.666 -1.3844  1.0761  1.1597
   88MOL   H33037044   7.953   7.853   0.689  0.4999  1.1997 -0.0968
   88MOL   H33137045   0.027   7.434   0.630 -0.7214  0.2167  0.3950
   88MOL   H33237046   7.957   7.322   0.412  1.7731 -0.3638  0.2545
   88MOL   H33337047   7.906   7.475   0.205 -0.3347  1.2306 -0.6387
   88MOL   H33437048   7.957   7.722   0.231  0.2564  0.9020  0.0581
   88MOL   H33537049   0.026   7.807   0.471 -0.1750  0.2826 -0.2739
   88MOL   H33637050   0.154   7.608   1.030  0.2592  1.5646  0.1291
   88MOL   H33737051   0.117   7.569   0.877 -1.4960 -0.5962  1.9936
   88MOL   C33837052   0.320   7.514   0.923 -0.8145 -0.0353  0.1898
   88MOL   O33937053   0.419   7.559   1.010 -0.0671  0.4065  0.0841
   88MOL   C34037054   0.548   7.538   0.962  0.3792 -0.0591  0.0421
   88MOL   O34137055   0.595   7.405   0.971 -0.1557 -0.2473  0.1012
   88MOL   C34237056   0.730   7.386   0.949 -0.6275 -0.7347 -0.1441
   88MOL   C34337057   0.785   7.270   0.989 -0.9501 -0.2207 -0.1622
   88MOL   C34437058   0.922   7.238   0.973 -0.1789 -0.7728 -0.7310
   88MOL   C34537059   1.003   7.331   0.902 -0.2035  0.0373  0.4031
   88MOL   C34637060   0.951   7.451   0.844  0.1322  0.5370 -0.6187
   88MOL   C34737061   0.812   7.476   0.870  0.6530  0.6341  0.4556
   88MOL   C34837062   0.274   7.368   0.957  0.0955  0.1019 -0.3239
   88MOL   H34937063   0.358   7.517   0.821  0.3842  1.2593  0.6622
   88MOL   H35037064   0.614   7.604   1.017  1.0383 -0.2340 -0.5256
   88MOL   H35137065   0.559   7.564   0.856  2.0035 -0.0511  0.1920
   88MOL   H35237066   0.723   7.198   1.041 -0.2196 -1.7527 -1.3712
   88MOL   H35337067   0.963   7.144   1.006  0.3756 -0.0026  0.8260
   88MOL   H35437068   1.111   7.327   0.891 -0.3195  1.1585 -1.3754
   88MOL   H35537069   1.011   7.518   0.785  0.6806  0.9941  0.4279
   88MOL   H35637070   0.764   7.560   0.823 -2.0906 -1.0859  0.1150
   88MOL   H35737071   0.165   7.361   0.967  0.0344  1.7489  0.2548
   88MOL   H35837072   0.310   7.344   1.057 -1.0451 -2.9540 -0.5637
   88MOL   C35937073   0.328   7.266   0.862 -0.0503  0.3628  0.1215
   88MOL   O36037074   0.275   7.295   0.731  0.0742  0.3166  0.0402
   88MOL   C36137075   0.343   7.240   0.623  0.2851  0.7479  0.0423
   88MOL   O36237076   0.472   7.293   0.602  0.1090  0.0952 -0.2384
   88MOL   C36337077   0.478   7.430   0.561  0.4064  0.5076 -0.7230
   88MOL   C36437078   0.370   7.509   0.530  0.4760 -0.2001  0.6841
   88MOL   C36537079   0.384   7.638   0.478  0.1426  0.0512  0.5528
   88MOL   C36637080   0.514   7.691   0.464  0.6466 -0.4605 -0.4150
   88MOL   C36737081   0.629   7.611   0.493  0.6997  0.2566  0.2393
   88MOL   C36837082   0.607   7.477   0.533 -0.1411  0.2277 -0.2166
   88MOL   C36937083   0.288   7.126   0.909  0.1655 -0.3586 -0.1077
   88MOL   H37037084   0.434   7.288   0.847 -0.1437 -0.4638 -1.9567
   88MOL   H37137085   0.282   7.257   0.534  0.4341 -0.3783 -0.2857
   88MOL   H37237086   0.347   7.132   0.638 -1.6093  0.9655  2.5060
   88MOL   H37337087   0.267   7.482   0.553  0.7833  0.5087  2.9551
   88MOL   H37437088   0.302   7.700   0.443 -0.0159 -1.1358 -1.2667
   88MOL   H37537089   0.533   7.785   0.415  1.1228 -0.2943  0.0847
   88MOL   H37637090   0.728   7.650   0.480  1.0252 -0.1904  1.3401
   88MOL   H37737091   0.690   7.410   0.546 -0.0594  0.2120 -0.8378
   88MOL   H37837092   0.285   7.048   0.832 -0.5500  0.3532 -0.8172
   88MOL   H37937093   0.187   7.127   0.949 -0.1978 -2.0913 -0.9234
   88MOL   C38037094   0.395   7.076   1.021  0.0602 -0.4855  0.3851
   88MOL   O38137095   0.451   6.963   0.954  0.2467  0.2579 -0.4056
   88MOL   C38237096   0.562   7.001   0.872 -0.1786  0.3064 -0.0639
   88MOL   O38337097   0.591   6.908   0.774 -0.2750 -0.3669  0.4966
   88MOL   C38437098   0.638   6.791   0.822 -0.0006  0.0569 -0.1437
   88MOL   C38537099   0.679   6.702   0.721  0.5197 -0.1749 -0.3218
   88MOL   C38637100   0.721   6.572   0.759  0.4832  0.1918  0.2190
   88MOL   C38737101   0.741   6.541   0.891 -0.2697  0.2097 -0.5879
   88MOL   C38837102   0.697   6.623   0.995  0.3935 -0.4967 -0.0886
   88MOL   C38937103   0.647   6.752   0.959  0.2929  0.7264 -0.2352
   88MOL   C39037104   0.343   7.057   1.168 -0.2775 -0.2391  0.0760
   88MOL   H39137105   0.475   7.149   1.030 -0.9314  1.0008 -2.0786
   88MOL   H39237106   0.543   7.096   0.821  1.3334  0.0724 -1.1150
   88MOL   H39337107   0.649   7.019   0.936 -1.5144  1.1324  1.5524
   88MOL   H39437108   0.658   6.716   0.616 -0.5698 -3.1497 -0.5569
   88MOL   H39537109   0.732   6.503   0.677 -1.1256  0.0991  0.0715
   88MOL   H39637110   0.779   6.447   0.928 -1.6558 -0.5054 -0.9477
   88MOL   H39737111   0.710   6.590   1.097  1.4184 -0.6762 -0.2729
   88MOL   H39837112   0.599   6.809   1.038 -0.5635  1.0671 -0.9965
   88MOL   H39937113   0.258   6.989   1.159 -1.4125  1.1030  0.5512
   88MOL   H40037114   0.311   7.151   1.213  0.1150 -0.8718  1.7137
   88MOL   C40137115   0.450   6.995   1.252 -0.3242  0.5315  0.0890
   88MOL   O40237116   0.558   7.087   1.262  0.7364  0.0689 -0.1919
   88MOL   C40337117   0.679   7.033   1.309  0.0380 -0.2887  0.1206
   88MOL   O40437118   0.738   6.965   1.211  0.4921 -0.0556 -0.0269
   88MOL   C40537119   0.856   6.899   1.234 -0.1093  0.0742  0.0787
   88MOL   C40637120   0.932   6.846   1.124 -0.0644 -0.0311  0.4945
   88MOL   C40737121   1.052   6.771   1.143  0.0130  0.4922  0.7040
   88MOL   C40837122   1.090   6.747   1.274 -0.2982 -0.1852 -1.0222
   88MOL   C40937123   1.025   6.800   1.385  0.5437 -0.3524  0.3394
   88MOL   C41037124   0.911   6.882   1.362 -0.0110 -0.0795 -0.4904
   88MOL   C41137125   0.386   6.974   1.398 -0.2976  0.1460 -0.2897
   88MOL   H41237126   0.483   6.900   1.210  1.0760  0.5683  1.0706
   88MOL   H41337127   0.645   6.976   1.395  0.0052 -0.2766  0.1154
   88MOL   H41437128   0.743   7.119   1.330 -0.7867  0.4492 -0.3578
   88MOL   H41537129   0.895   6.860   1.024  0.8266  0.0922  0.1823
   88MOL   H41637130   1.104   6.736   1.055 -2.0516  1.4360 -0.9410
   88MOL   H41737131   1.186   6.700   1.291  1.0786  2.3034 -1.6614
   88MOL   H41837132   1.072   6.793   1.482  1.2223 -0.9529 -0.0191
   88MOL   H41937133   0.856   6.934   1.439  0.5703  0.3182 -0.3333
   88MOL   H42037134   0.309   6.898   1.397  2.0672 -2.3433 -0.2056
   88MOL   H42137135   0.359   7.074   1.432  0.7267  1.2564 -2.6329
   88MOL   H42237136   0.461   6.924   1.459 -1.3813 -0.5669  0.4748
   89MOL     C137137   0.584   6.177   6.694  0.2314  0.3468  0.0360
   89MOL     O237138   0.678   6.226   6.605 -0.1281  0.4290  0.0141
   89MOL     C337139   0.676   6.179   6.478  0.0552  1.2548  0.2497
   89MOL     O437140   0.544   6.161   6.425 -0.1852  0.7813  0.2872
   89MOL     C537141   0.539   6.136   6.294  0.1828  0.3245 -0.1906
   89MOL     C637142   0.645   6.120   6.205  0.0641 -0.5683 -0.0019
   89MOL     C737143   0.622   6.082   6.071  0.3116  0.2341 -0.1872
   89MOL     C837144   0.491   6.068   6.025  0.5975 -0.7334  0.3491
   89MOL     C937145   0.376   6.092   6.111 -0.4028 -0.2033  0.2220
   89MOL    C1037146   0.406   6.126   6.244 -0.2198  0.1161  0.1079
   89MOL    C1137147   0.607   6.252   6.830  0.0426 -0.5297  0.7131
   89MOL    H1237148   0.481   6.195   6.664 -0.4487 -3.0392  0.0590
   89MOL    H1337149   0.740   6.245   6.420  0.2054  1.4689  0.6552
   89MOL    H1437150   0.732   6.086   6.476 -0.8491  0.7343 -1.1839
   89MOL    H1537151   0.749   6.131   6.233  0.2537 -1.7479 -0.2246
   89MOL    H1637152   0.703   6.069   6.000  0.8847 -1.6576  0.7934
   89MOL    H1737153   0.473   6.042   5.922  0.8828 -1.3670  0.4587
   89MOL    H1837154   0.275   6.083   6.074  0.0906  0.4076 -1.3200
   89MOL    H1937155   0.328   6.143   6.317 -1.2523 -1.1074 -0.6909
   89MOL    H2037156   0.585   6.357   6.810  1.0279 -0.9648 -3.0517
   89MOL    H2137157   0.707   6.235   6.868 -0.2437 -1.8145  0.9145
   89MOL    H2237158   0.611   6.071   6.699  0.0392  0.2975  0.0178
   89MOL    C2337159   0.513   6.212   6.950 -0.1484 -0.3204  0.1124
   89MOL    O2437160   0.378   6.241   6.913  0.0234 -0.0787 -0.4674
   89MOL    C2537161   0.281   6.161   6.973  0.5575  0.2498 -0.4312
   89MOL    O2637162   0.261   6.049   6.893  0.4252  0.3114  0.2664
   89MOL    C2737163   0.208   6.066   6.763  0.5977 -0.7818  0.7235
   89MOL    C2837164   0.178   5.945   6.690  0.1951  0.4391  0.3091
   89MOL    C2937165   0.145   5.951   6.548 -0.0368 -0.1812  0.1395
   89MOL    C3037166   0.137   6.077   6.484 -0.1602 -0.0942  0.1807
   89MOL    C3137167   0.160   6.193   6.560 -0.5752 -0.0680 -0.1062
   89MOL    C3237168   0.205   6.192   6.696 -0.4378  0.0605  0.7481
   89MOL    C3337169   0.538   6.298   7.076 -0.5521 -0.4247  0.0985
   89MOL    H3437170   0.525   6.105   6.971 -2.6404 -1.0554 -1.9289
   89MOL    H3537171   0.182   6.205   6.982  1.3414  1.6842  1.6135
   89MOL    H3637172   0.306   6.136   7.076 -0.9829  0.6954  0.0710
   89MOL    H3737173   0.190   5.845   6.730  1.7022 -0.1691 -1.6276
   89MOL    H3837174   0.124   5.864   6.488 -1.8120  0.2402  0.1240
   89MOL    H3937175   0.110   6.079   6.380  1.3242 -0.9314 -0.2500
   89MOL    H4037176   0.147   6.287   6.509  0.8272  1.3356  2.0437
   89MOL    H4137177   0.233   6.289   6.735  0.0562  0.8178 -1.4010
   89MOL    H4237178   0.459   6.288   7.150 -1.2751 -1.4586 -0.7982
   89MOL    H4337179   0.525   6.401   7.042 -2.6064 -0.6679  0.1106
   89MOL    C4437180   0.675   6.278   7.147 -0.2498  0.0780  0.7526
   89MOL    O4537181   0.690   6.138   7.176  0.0528  0.1010 -0.2968
   89MOL    C4637182   0.820   6.102   7.173 -0.0538  0.3866 -0.4793
   89MOL    O4737183   0.863   6.090   7.042  0.2728 -0.4646 -0.3362
   89MOL    C4837184   0.848   5.973   6.971  0.4598 -0.4263 -0.9329
   89MOL    C4937185   0.767   5.862   7.021 -0.0445 -0.0137 -0.0516
   89MOL    C5037186   0.749   5.741   6.949  0.3136 -0.3634  0.0037
   89MOL    C5137187   0.834   5.723   6.835  1.1628 -0.1387  0.3114
   89MOL    C5237188   0.903   5.838   6.786  0.7620  0.2414 -0.1757
   89MOL    C5337189   0.915   5.962   6.847  0.4249 -0.1326 -0.6540
   89MOL    C5437190   0.683   6.358   7.282 -0.3442  0.9157 -0.9415
   89MOL    H5537191   0.751   6.311   7.076 -1.0812  0.1091 -0.1373
   89MOL    H5637192   0.825   6.009   7.230 -3.0880  2.5843  3.5653
   89MOL    H5737193   0.880   6.178   7.224 -1.5072  0.7564  0.7106
   89MOL    H5837194   0.704   5.873   7.108  1.0535  0.8173  0.6611
   89MOL    H5937195   0.686   5.664   6.992  1.6337 -0.1900  2.3157
   89MOL    H6037196   0.833   5.631   6.779  0.0592  0.8599 -1.3570
   89MOL    H6137197   0.956   5.820   6.693  3.6850 -2.1992  1.8486
   89MOL    H6237198   0.973   6.042   6.805  0.7830  0.9131  1.7704
   89MOL    H6337199   0.597   6.326   7.342  1.7111 -1.3073  0.9194
   89MOL    H6437200   0.760   6.317   7.347  0.3364  0.8436 -1.7812
   89MOL    C6537201   0.682   6.511   7.284 -0.1875 -0.1750 -0.5965
   89MOL    O6637202   0.599   6.555   7.396 -0.2652  0.2571  0.6297
   89MOL    C6737203   0.465   6.599   7.372 -0.0155 -0.1372 -0.5372
   89MOL    O6837204   0.462   6.713   7.285  0.2938  0.3116 -0.1416
   89MOL    C6937205   0.506   6.835   7.334 -0.6284 -0.5901  0.3367
   89MOL    C7037206   0.482   6.958   7.261 -0.1964 -0.3786 -0.7974
   89MOL    C7137207   0.519   7.083   7.315  0.5534  0.0724 -0.0479
   89MOL    C7237208   0.586   7.089   7.436  0.1170 -0.3539 -0.4677
   89MOL    C7337209   0.620   6.972   7.510 -0.0408  0.1500  0.1776
   89MOL    C7437210   0.571   6.847   7.461  0.2200 -0.6204  0.6014
   89MOL    C7537211   0.815   6.571   7.306  0.4882 -0.5966 -0.0299
   89MOL    H7637212   0.629   6.555   7.199  0.0308  0.3204 -0.4752
   89MOL    H7737213   0.422   6.624   7.469  0.7030 -0.7989 -0.0464
   89MOL    H7837214   0.393   6.527   7.331 -1.8767  1.1802  0.3436
   89MOL    H7937215   0.430   6.953   7.167 -0.9376 -0.3022 -0.3945
   89MOL    H8037216   0.495   7.169   7.255 -1.1378 -0.3798 -0.0360
   89MOL    H8137217   0.615   7.184   7.479 -2.4289  0.4732 -0.5447
   89MOL    H8237218   0.686   6.986   7.594 -1.4124 -0.2442  1.3387
   89MOL    H8337219   0.585   6.759   7.521 -0.9630 -0.6079  0.9062
   89MOL    H8437220   0.805   6.676   7.331 -2.2540 -1.2509  1.7809
   89MOL    H8537221   0.860   6.528   7.395  3.0006 -0.5882 -1.2426
   89MOL    C8637222   0.907   6.560   7.184 -0.7263  0.1912  0.2803
   89MOL    O8737223   0.957   6.431   7.170  0.0904  0.4568  0.0974
   89MOL    C8837224   1.085   6.417   7.208 -0.9215 -0.2201  0.1335
   89MOL    O8937225   1.178   6.461   7.113  0.0213  0.4379 -0.2808
   89MOL    C9037226   1.180   6.410   6.988  0.1566 -0.5965  0.4676
   89MOL    C9137227   1.085   6.337   6.921  0.2686 -0.0586 -0.3562
   89MOL    C9237228   1.100   6.298   6.786 -0.4889 -0.8928 -0.0756
   89MOL    C9337229   1.216   6.335   6.708  0.7408  0.5559 -0.1148
   89MOL    C9437230   1.325   6.397   6.781 -0.2628  0.5496  0.6066
   89MOL    C9537231   1.300   6.433   6.915 -0.1162 -0.5791  0.1370
   89MOL    C9637232   0.842   6.606   7.048  0.8924 -0.1473  0.3492
   89MOL    H9737233   0.984   6.636   7.192 -0.8303  0.2174  1.0019
   89MOL    H9837234   1.089   6.308   7.215 -0.3044 -0.2734 -0.9327
   89MOL    H9937235   1.094   6.448   7.312  0.7615  2.1701 -0.6711
   89MOL   H10037236   0.989   6.309   6.962 -0.3881  3.6370  0.8083
   89MOL   H10137237   1.020   6.242   6.740  0.9055 -4.1354  1.3552
   89MOL   H10237238   1.230   6.326   6.602 -0.4501 -0.5495 -0.1913
   89MOL   H10337239   1.414   6.431   6.731  0.6180 -1.3890  0.7745
   89MOL   H10437240   1.370   6.492   6.973  0.4184 -0.6386 -0.4496
   89MOL   H10537241   0.917   6.604   6.969 -0.6864  2.0661 -1.2920
   89MOL   H10637242   0.763   6.541   7.011  0.0513  1.2033 -0.3059
   89MOL   C10737243   0.777   6.744   7.046  0.0477 -0.6042 -0.0591
   89MOL   O10837244   0.881   6.843   7.085 -0.0940  0.2249  0.5099
   89MOL   C10937245   0.845   6.973   7.107 -0.3339 -0.1681 -0.6723
   89MOL   O11037246   0.838   7.046   6.988  0.5873 -0.2379 -0.5497
   89MOL   C11137247   0.786   7.177   6.987  0.0363 -0.1242 -0.2169
   89MOL   C11237248   0.767   7.254   6.868  0.0420  0.2303 -0.2706
   89MOL   C11337249   0.729   7.386   6.876 -0.0547  0.3275  0.1063
   89MOL   C11437250   0.696   7.450   6.997  0.2576 -0.9684 -0.1821
   89MOL   C11537251   0.697   7.369   7.112  0.5363 -0.2679 -0.2897
   89MOL   C11637252   0.741   7.237   7.109 -0.3008 -0.2535  0.2405
   89MOL   C11737253   0.729   6.775   6.907 -0.0350  0.6536  0.0660
   89MOL   H11837254   0.695   6.761   7.117 -1.2076 -3.3533 -0.8053
   89MOL   H11937255   0.925   7.012   7.169  0.1489 -1.4020 -0.5081
   89MOL   H12037256   0.743   6.979   7.146 -0.4530 -0.0467 -0.9982
   89MOL   H12137257   0.803   7.220   6.771  0.1690 -0.9667  0.1881
   89MOL   H12237258   0.724   7.444   6.785 -1.7361  0.0070 -0.0135
   89MOL   H12337259   0.671   7.555   7.004  1.0986 -0.8415  0.9847
   89MOL   H12437260   0.663   7.411   7.205  1.5942  1.4423 -0.6585
   89MOL   H12537261   0.754   7.180   7.200  0.5356  1.1200  0.9988
   89MOL   H12637262   0.738   6.690   6.839 -1.4177  1.6752 -1.4174
   89MOL   H12737263   0.787   6.855   6.863  0.8121 -0.4943 -0.9429
   89MOL   C12837264   0.581   6.822   6.893  0.3833 -0.3078 -0.3253
   89MOL   O12937265   0.557   6.947   6.964 -0.0254 -0.1384 -0.5371
   89MOL   C13037266   0.522   7.049   6.872  0.8432 -0.2092 -0.5868
   89MOL   O13137267   0.402   7.018   6.799 -0.0141 -0.2534 -0.5408
   89MOL   C13237268   0.358   7.104   6.701 -0.8411 -0.1017  0.2415
   89MOL   C13337269   0.300   7.037   6.593 -0.1752 -0.0044  0.5251
   89MOL   C13437270   0.261   7.115   6.481 -0.3408 -0.1919 -0.2977
   89MOL   C13537271   0.268   7.255   6.485 -0.2483  0.0223 -0.7927
   89MOL   C13637272   0.328   7.322   6.594 -0.1147  0.3511  0.5644
   89MOL   C13737273   0.378   7.241   6.697 -0.4799 -0.1890 -0.1048
   89MOL   C13837274   0.481   6.716   6.959  0.3352  0.2374  0.4768
   89MOL   H13937275   0.558   6.834   6.787  0.8897 -4.1382 -0.9389
   89MOL   H14037276   0.609   7.056   6.807  1.6182 -0.4524  0.4140
   89MOL   H14137277   0.503   7.140   6.928  0.3162  0.3755 -1.7173
   89MOL   H14237278   0.299   6.929   6.598  1.3983 -0.0883 -0.7368
   89MOL   H14337279   0.229   7.066   6.391  0.3839 -0.2716 -0.5156
   89MOL   H14437280   0.236   7.307   6.396 -2.3300 -0.0210 -0.0990
   89MOL   H14537281   0.335   7.429   6.587  1.5703  0.1357 -1.3084
   89MOL   H14637282   0.428   7.288   6.781 -0.3155 -0.6384  0.0531
   89MOL   H14737283   0.529   6.641   7.022 -0.5737  0.8056  1.8742
   89MOL   H14837284   0.411   6.767   7.024  0.9888  1.6470  0.0855
   89MOL   C14937285   0.391   6.648   6.857  0.2009 -0.6284 -0.2046
   89MOL   O15037286   0.481   6.563   6.795  0.2446  0.2049 -0.5557
   89MOL   C15137287   0.443   6.516   6.670  0.0964  0.2685 -0.3570
   89MOL   O15237288   0.424   6.623   6.583 -0.1582 -0.8579 -0.3524
   89MOL   C15337289   0.414   6.605   6.451 -0.6240 -0.3859 -0.0497
   89MOL   C15437290   0.394   6.487   6.384 -0.5197 -0.2502 -0.3493
   89MOL   C15537291   0.383   6.481   6.242  0.0752 -0.1575  0.0308
   89MOL   C15637292   0.384   6.597   6.164  0.3090  0.0954  0.3073
   89MOL   C15737293   0.404   6.722   6.229 -0.5139 -0.3586  0.5021
   89MOL   C15837294   0.423   6.723   6.374  0.5277 -0.5051  0.1063
   89MOL   C15937295   0.279   6.576   6.926  0.6851 -0.1458 -0.3186
   89MOL   H16037296   0.358   6.722   6.784 -1.2237 -1.5159 -0.4652
   89MOL   H16137297   0.523   6.456   6.627  0.6916 -1.4666  2.9957
   89MOL   H16237298   0.352   6.459   6.688 -0.1090  1.2878  2.0627
   89MOL   H16337299   0.380   6.400   6.447 -2.2378  1.9165  2.3151
   89MOL   H16437300   0.380   6.388   6.186 -0.0936 -1.3618  1.9929
   89MOL   H16537301   0.388   6.598   6.056  2.2259  1.0945  0.3750
   89MOL   H16637302   0.421   6.811   6.171  1.9856 -0.2959  1.2800
   89MOL   H16737303   0.446   6.814   6.428 -1.7247  0.6713 -0.8536
   89MOL   H16837304   0.322   6.512   7.003 -0.2718 -0.7829 -0.2981
   89MOL   H16937305   0.243   6.496   6.861  1.1498 -0.9410  0.3949
   89MOL   C17037306   0.164   6.645   7.000 -0.5055 -0.0174  0.6417
   89MOL   O17137307   0.123   6.750   6.913 -0.3402  0.4720 -0.2628
   89MOL   C17237308   0.132   6.877   6.973  1.1768  0.2421  0.3321
   89MOL   O17337309   0.072   6.897   7.094  0.2633  0.1157  0.1662
   89MOL   C17437310   0.100   7.010   7.161 -0.3655  0.0457  0.0687
   89MOL   C17537311   0.020   7.023   7.275 -0.4688 -0.6790 -0.0067
   89MOL   C17637312   0.029   7.131   7.367  0.6256  0.2609  0.3408
   89MOL   C17737313   0.122   7.229   7.346  0.3171  0.3338 -0.1875
   89MOL   C17837314   0.205   7.221   7.231  0.4072 -0.0755 -0.6100
   89MOL   C17937315   0.195   7.114   7.140 -0.6292  0.4224 -0.7237
   89MOL   C18037316   0.054   6.548   7.026  0.5453 -0.3823  0.4042
   89MOL   H18137317   0.204   6.692   7.090  1.2114  1.1689 -0.7288
   89MOL   H18237318   0.103   6.958   6.905  0.4214 -0.2290  0.0867
   89MOL   H18337319   0.235   6.901   6.999  0.7214  0.1228  2.3292
   89MOL   H18437320   7.926   6.942   7.292 -1.3391 -0.0795 -0.6543
   89MOL   H18537321   7.937   7.138   7.451 -0.4759  1.9785 -0.6486
   89MOL   H18637322   0.124   7.315   7.411 -0.9661  0.1356  0.1118
   89MOL   H18737323   0.274   7.304   7.220  0.1774  0.1890 -0.0573
   89MOL   H18837324   0.255   7.108   7.050  0.9569 -2.8875  0.4508
   89MOL   H18937325   7.932   6.597   7.030  0.8218  0.0982  1.4671
   89MOL   H19037326   0.039   6.488   6.936  0.7896 -0.0183  0.1152
   89MOL   C19137327   0.070   6.456   7.143  0.0711  0.7989 -0.4729
   89MOL   O19237328   0.014   6.328   7.106  0.7657 -0.8547 -0.8648
   89MOL   C19337329   7.848   6.312   7.117 -0.3966 -0.2333 -0.6351
   89MOL   O19437330   7.775   6.414   7.059 -0.0031  0.5177  0.0695
   89MOL   C19537331   7.638   6.409   7.062 -0.0691  0.5955  0.0951
   89MOL   C19637332   7.569   6.519   7.002  0.2848 -0.7983 -0.6319
   89MOL   C19737333   7.433   6.545   7.016 -0.2845  0.4160 -0.4887
   89MOL   C19837334   7.353   6.452   7.090 -0.6187  0.3084  0.7154
   89MOL   C19937335   7.416   6.340   7.146 -0.1097 -0.0437 -0.3885
   89MOL   C20037336   7.562   6.324   7.143 -0.1456  0.4762  0.9950
   89MOL   C20137337   0.020   6.506   7.282 -0.6401  0.1586  0.0975
   89MOL   H20237338   0.175   6.429   7.152 -0.0551  0.2922 -0.5217
   89MOL   H20337339   7.817   6.304   7.222  1.2014  0.3219 -0.1021
   89MOL   H20437340   7.816   6.218   7.072 -1.8624 -0.4373  0.7803
   89MOL   H20537341   7.636   6.585   6.950 -2.0269  2.2248  0.0556
   89MOL   H20637342   7.387   6.630   6.967 -0.8861  0.4468  0.1346
   89MOL   H20737343   7.248   6.476   7.102 -0.7427  2.0516 -3.1296
   89MOL   H20837344   7.358   6.278   7.213  0.5000  0.6522  0.8081
   89MOL   H20937345   7.609   6.244   7.198 -0.3259 -0.2300  0.1451
   89MOL   H21037346   0.054   6.609   7.284 -1.5545  0.4432  2.8933
   89MOL   H21137347   7.886   6.512   7.276 -0.4735  3.3106 -0.3465
   89MOL   C21237348   0.062   6.424   7.414  0.0301 -0.6892  0.3323
   89MOL   O21337349   0.193   6.454   7.457 -0.0541  0.4739 -0.2035
   89MOL   C21437350   0.255   6.361   7.540  0.3744 -0.4832  0.2170
   89MOL   O21537351   0.297   6.247   7.482  0.1812  0.3254  0.4702
   89MOL   C21637352   0.321   6.140   7.563 -0.7887  0.3302 -0.1810
   89MOL   C21737353   0.283   6.011   7.517  0.5445 -0.0826 -0.2090
   89MOL   C21837354   0.283   5.892   7.593 -0.0521  0.0314 -0.0393
   89MOL   C21937355   0.317   5.903   7.730 -0.1732  0.4806 -0.8644
   89MOL   C22037356   0.358   6.026   7.776 -0.0688 -0.2267  0.8833
   89MOL   C22137357   0.362   6.145   7.699 -0.4152  0.0342  0.4502
   89MOL   C22237358   7.950   6.458   7.535  0.0871  0.1885 -0.3642
   89MOL   H22337359   0.069   6.316   7.410  0.7116 -0.7754  2.8302
   89MOL   H22437360   0.202   6.345   7.634 -1.2033  2.1805 -0.1926
   89MOL   H22537361   0.345   6.410   7.578 -0.0343 -0.1061  0.6967
   89MOL   H22637362   0.245   6.006   7.416  0.6654 -0.3581 -0.2420
   89MOL   H22737363   0.253   5.800   7.546  0.1864  0.6667 -1.4690
   89MOL   H22837364   0.320   5.822   7.801  2.6323  3.5546  2.6748
   89MOL   H22937365   0.395   6.042   7.876  2.4390  0.8517 -0.1647
   89MOL   H23037366   0.402   6.240   7.732  1.6938 -0.1772 -1.3463
   89MOL   H23137367   0.029   6.459   7.630 -1.9710  0.1098  0.8449
   89MOL   H23237368   7.916   6.561   7.523  1.2691  0.4247 -1.8069
   89MOL   C23337369   7.823   6.365   7.542  0.2426  0.3319  0.4951
   89MOL   O23437370   7.869   6.239   7.564 -0.0527  0.1908 -0.0784
   89MOL   C23537371   7.781   6.127   7.519 -0.1769 -0.6342  0.1819
   89MOL   O23637372   7.841   6.009   7.530 -0.0911 -0.2410 -0.1329
   89MOL   C23737373   7.912   5.958   7.423 -0.4734 -0.1882 -0.1930
   89MOL   C23837374   0.003   6.037   7.323  0.2347  0.0429 -0.0146
   89MOL   C23937375   0.068   5.967   7.215 -0.4856  0.0436 -0.2685
   89MOL   C24037376   0.072   5.825   7.217  0.1612  0.5193  0.0120
   89MOL   C24137377   0.016   5.752   7.321 -0.2368  0.0636 -0.4778
   89MOL   C24237378   7.931   5.822   7.427 -0.3372  0.8950 -0.4055
   89MOL   C24337379   7.729   6.406   7.657  0.0678 -0.1805  0.0696
   89MOL   H24437380   7.764   6.364   7.451 -0.7476 -0.2181  1.1327
   89MOL   H24537381   7.746   6.142   7.417 -1.2421 -0.9736  0.4917
   89MOL   H24637382   7.692   6.136   7.582 -1.0199  2.2419 -1.3329
   89MOL   H24737383   7.965   6.144   7.319 -2.0131 -0.2208 -0.0144
   89MOL   H24837384   0.098   6.025   7.129 -1.1674 -2.2459 -2.1123
   89MOL   H24937385   0.123   5.775   7.136  0.2838  2.7079 -1.3049
   89MOL   H25037386   0.019   5.645   7.339 -0.8756  0.0283 -0.5792
   89MOL   H25137387   7.890   5.755   7.500 -0.6398  1.9791  0.4308
   89MOL   H25237388   7.651   6.331   7.666  0.4787 -1.2187 -3.9560
   89MOL   H25337389   7.772   6.401   7.757  2.0359 -1.2797 -0.7867
   89MOL   C25437390   7.658   6.537   7.623  0.4802  0.4553 -0.4554
   89MOL   O25537391   7.559   6.517   7.519 -0.8817 -0.5643 -0.2528
   89MOL   C25637392   7.520   6.635   7.448 -0.9085  0.3690  0.3017
   89MOL   O25737393   7.629   6.679   7.363  0.7214 -0.4666  0.2584
   89MOL   C25837394   7.597   6.763   7.255  0.1821 -0.3623  0.2544
   89MOL   C25937395   7.482   6.839   7.238 -0.1109  0.3883 -0.4767
   89MOL   C26037396   7.460   6.899   7.110  0.1539  1.3669 -0.2108
   89MOL   C26137397   7.561   6.895   7.014 -0.2711 -0.4336 -0.9213
   89MOL   C26237398   7.681   6.820   7.035  0.4256 -0.5059 -0.5708
   89MOL   C26337399   7.699   6.766   7.161  0.0241 -0.1208 -0.7434
   89MOL   C26437400   7.583   6.594   7.747 -0.1926 -0.2720 -1.1433
   89MOL   H26537401   7.734   6.607   7.587  1.1867  0.6750  1.4080
   89MOL   H26637402   7.497   6.707   7.526 -0.0479 -2.5835  3.3687
   89MOL   H26737403   7.429   6.613   7.392 -0.9787 -0.0956  0.5959
   89MOL   H26837404   7.406   6.832   7.314  0.4347 -0.8172 -0.0312
   89MOL   H26937405   7.365   6.948   7.096 -1.3729 -1.3366  0.3312
   89MOL   H27037406   7.544   6.945   6.919  0.0234 -0.1652 -0.8349
   89MOL   H27137407   7.765   6.821   6.968  0.8422  0.4683 -0.0331
   89MOL   H27237408   7.788   6.708   7.181  0.4291 -0.2163 -2.7323
   89MOL   H27337409   7.490   6.646   7.723 -0.6035 -1.6794 -2.7562
   89MOL   H27437410   7.551   6.515   7.816 -0.2368  0.7146 -0.0300
   89MOL   C27537411   7.667   6.691   7.834 -0.5937 -0.5064 -0.1836
   89MOL   O27637412   7.717   6.788   7.736  0.0443  0.3120  0.1435
   89MOL   C27737413   7.802   6.886   7.784 -0.0531  0.5178  0.5342
   89MOL   O27837414   7.725   6.998   7.812 -0.3478  0.1914 -0.4020
   89MOL   C27937415   7.653   7.055   7.704 -0.3259  0.1296  0.1706
   89MOL   C28037416   7.668   7.009   7.568  0.2736 -0.4732  0.0014
   89MOL   C28137417   7.597   7.071   7.466  0.2114  0.7612  1.3864
   89MOL   C28237418   7.515   7.180   7.493  1.0089  0.1079  0.1437
   89MOL   C28337419   7.497   7.226   7.625  0.6749  0.5256  0.0710
   89MOL   C28437420   7.572   7.167   7.729 -0.3470 -0.4051  0.7158
   89MOL   C28537421   7.584   6.758   7.947  0.8388  0.6442 -0.0469
   89MOL   H28637422   7.757   6.654   7.884 -0.0897  1.6871  0.5709
   89MOL   H28737423   7.870   6.910   7.702 -0.4595  3.5542  1.0318
   89MOL   H28837424   7.868   6.849   7.862  0.9707 -0.2042 -0.6581
   89MOL   H28937425   7.730   6.925   7.541 -0.2317 -1.0601  0.6586
   89MOL   H29037426   7.603   7.036   7.364  0.0793 -1.0595  1.9728
   89MOL   H29137427   7.466   7.218   7.405  2.3014  0.2655 -0.5206
   89MOL   H29237428   7.422   7.302   7.644 -0.3775 -0.6525  0.7439
   89MOL   H29337429   7.560   7.207   7.828  0.0179  0.7024  0.3206
   89MOL   H29437430   7.490   6.800   7.911  0.9290  0.9237  0.0475
   89MOL   H29537431   7.644   6.837   0.017 -1.5653  2.1003  0.6866
   89MOL   C29637432   7.565   6.658   0.088  0.2135 -0.6289  0.5091
   89MOL   O29737433   7.692   6.635   0.146 -0.0038 -0.3055 -0.0011
   89MOL   C29837434   7.712   6.499   0.188 -0.1725  0.8780  0.6008
   89MOL   O29937435   7.745   6.412   0.075 -0.1353 -0.0538 -0.6890
   89MOL   C30037436   7.882   6.404   0.052  0.2014 -0.4748 -0.2500
   89MOL   C30137437   7.937   6.297   7.955 -0.3761  0.6000  0.1113
   89MOL   C30237438   0.099   6.300   7.914  0.3666  0.0685  0.4893
   89MOL   C30337439   0.181   6.407   7.947  0.0145  0.5494  0.0738
   89MOL   C30437440   0.125   6.514   0.047  0.1007  0.1528 -0.6360
   89MOL   C30537441   7.967   6.516   0.094  0.3178  0.0169  0.0865
   89MOL   C30637442   7.484   6.731   0.197  0.4202 -0.0088 -0.2169
   89MOL   H30737443   7.525   6.562   0.055  1.7740 -0.8012 -0.8995
   89MOL   H30837444   7.625   6.457   0.238  0.0346  0.1672  0.3633
   89MOL   H30937445   7.791   6.488   0.262  0.7492 -0.9682 -0.6410
   89MOL   H31037446   7.872   6.221   7.914  1.3831  0.1542 -1.9886
   89MOL   H31137447   0.134   6.218   7.852 -0.2713 -0.1930  0.4648
   89MOL   H31237448   0.288   6.411   7.931 -0.0853  1.0144 -0.5171
   89MOL   H31337449   0.189   6.592   0.083 -0.1897 -0.3409  0.9710
   89MOL   H31437450   7.932   6.601   0.149  2.7431  1.4915 -0.5660
   89MOL   H31537451   7.523   6.831   0.216 -2.6346  1.8271 -3.1097
   89MOL   H31637452   7.510   6.681   0.291  0.4111 -1.0334 -0.7480
   89MOL   C31737453   7.331   6.738   0.174  0.8764 -0.1444 -0.2906
   89MOL   O31837454   7.259   6.851   0.214 -0.6723  0.3551 -0.0165
   89MOL   C31937455   7.300   6.974   0.158 -0.3695 -0.1444  0.0703
   89MOL   O32037456   7.417   7.022   0.222  0.8410 -1.0798  0.4206
   89MOL   C32137457   7.472   7.146   0.189  0.3485 -0.0125 -0.0028
   89MOL   C32237458   7.579   7.188   0.274  0.0361  0.4302 -0.2653
   89MOL   C32337459   7.642   7.315   0.256  0.4897 -0.3857  0.2886
   89MOL   C32437460   7.590   7.402   0.151 -0.2001  1.0165  0.8387
   89MOL   C32537461   7.483   7.362   0.074  1.0483 -0.5839 -0.4754
   89MOL   C32637462   7.429   7.235   0.089 -0.3629 -0.7884 -0.2510
   89MOL   C32737463   7.249   6.624   0.232  0.2205  0.3254 -0.5694
   89MOL   H32837464   7.310   6.727   0.068  0.9958  1.3131 -0.4712
   89MOL   H32937465   7.221   7.048   0.172  0.0716  0.7379 -1.8510
   89MOL   H33037466   7.316   6.965   0.050 -1.8974  1.2952 -0.2987
   89MOL   H33137467   7.614   7.125   0.354 -0.1162  0.3181 -0.2881
   89MOL   H33237468   7.728   7.345   0.313 -0.3371 -0.2751  1.4964
   89MOL   H33337469   7.644   7.494   0.132  1.6701 -0.2877 -0.4018
   89MOL   H33437470   7.442   7.424   7.971  0.0720  0.0814  0.5467
   89MOL   H33537471   7.349   7.204   0.023 -0.6095 -3.2360  1.1241
   89MOL   H33637472   7.274   6.618   0.338  0.7499  2.1405 -0.5853
   89MOL   H33737473   7.147   6.651   0.205  0.2690 -0.4252 -1.5425
   89MOL   C33837474   7.268   6.484   0.175  0.0545  0.6110  0.5993
   89MOL   O33937475   7.171   6.414   0.257  0.3862  0.0039 -0.7094
   89MOL   C34037476   7.222   6.359   0.376  0.3750 -0.2862 -0.4490
   89MOL   O34137477   7.204   6.437   0.491 -0.0078 -0.2096  0.0941
   89MOL   C34237478   7.077   6.451   0.545  0.4107  0.6654  0.1080
   89MOL   C34337479   6.956   6.448   0.468 -0.0831 -0.4351  1.2136
   89MOL   C34437480   6.833   6.468   0.536  0.3638 -0.0907 -0.1869
   89MOL   C34537481   6.830   6.505   0.672  0.3553 -0.3627 -0.1560
   89MOL   C34637482   6.947   6.516   0.743 -0.4601 -0.0882 -0.4714
   89MOL   C34737483   7.070   6.490   0.678 -0.6710  0.3682 -0.3238
   89MOL   C34837484   7.217   6.466   0.029 -0.5440 -0.3169 -0.0971
   89MOL   H34937485   7.366   6.444   0.203  0.8181 -0.3513 -3.1406
   89MOL   H35037486   7.321   6.315   0.373  1.5313  2.2738 -1.1217
   89MOL   H35137487   7.153   6.275   0.377  0.9041 -0.8194 -3.1226
   89MOL   H35237488   6.951   6.439   0.361 -1.9573 -0.8515  1.3163
   89MOL   H35337489   6.746   6.471   0.473  0.2557  0.4615 -0.0160
   89MOL   H35437490   6.737   6.539   0.714  0.7129  0.3920  0.0276
   89MOL   H35537491   6.940   6.530   0.850 -0.6750  2.0308 -0.7340
   89MOL   H35637492   7.160   6.495   0.736  0.3700  1.0122 -1.9512
   89MOL   H35737493   7.250   6.547   7.941  1.7517 -1.7999 -0.8548
   89MOL   H35837494   7.108   6.463   0.019 -0.6540  2.2075  0.2254
   89MOL   C35937495   7.248   6.321   7.941 -0.2842 -0.0156 -0.0347
   89MOL   O36037496   7.387   6.310   7.949  0.6746 -0.5890 -0.3760
   89MOL   C36137497   7.450   6.211   0.050 -0.4461 -0.3775  0.1928
   89MOL   O36237498   7.415   6.082   0.017  0.6197 -0.1063  0.2621
   89MOL   C36337499   7.507   5.995   7.938 -0.0172 -0.0041 -0.0009
   89MOL   C36437500   7.474   5.861   7.933  0.0657  0.2810  0.7256
   89MOL   C36537501   7.562   5.771   7.868  0.3603  0.1324 -0.2888
   89MOL   C36637502   7.683   5.818   7.811  0.0168 -0.1278 -0.5054
   89MOL   C36737503   7.726   5.945   7.839 -0.6826 -0.0283 -0.0474
   89MOL   C36837504   7.634   6.043   7.889  0.4844  0.6235 -0.0257
   89MOL   C36937505   7.204   6.297   7.791  0.5686  0.2482  0.2522
   89MOL   H37037506   7.198   6.251   0.033  1.2466 -1.0980 -0.0118
   89MOL   H37137507   7.416   6.233   0.152 -0.1333  1.2655 -0.0438
   89MOL   H37237508   7.557   6.230   0.059 -0.7142  1.1168  0.3095
   89MOL   H37337509   7.384   5.824   0.005  1.6457 -1.3553  2.5551
   89MOL   H37437510   7.547   5.664   7.861  1.2714  0.0212 -0.5620
   89MOL   H37537511   7.742   5.749   7.754  1.6593 -0.0521  1.0660
   89MOL   H37637512   7.825   5.976   7.810 -0.5424 -0.6579 -0.2437
   89MOL   H37737513   7.675   6.142   7.904 -2.5448  2.1372 -1.2314
   89MOL   H37837514   7.247   6.374   7.726 -2.4238 -0.6857 -3.0185
   89MOL   H37937515   7.098   6.321   7.782  0.2891 -1.1619 -0.4277
   89MOL   C38037516   7.209   6.160   7.720 -0.5341 -0.3685 -0.1357
   89MOL   O38137517   7.234   6.178   7.581 -0.0767  0.0093  0.1613
   89MOL   C38237518   7.373   6.196   7.547  0.3378  0.0756 -0.0054
   89MOL   O38337519   7.449   6.080   7.557 -0.3430 -0.2262 -0.0155
   89MOL   C38437520   7.446   5.985   7.450  0.2185 -0.3010 -0.4166
   89MOL   C38537521   7.344   5.976   7.347  0.1958 -0.1789  0.2175
   89MOL   C38637522   7.344   5.879   7.252 -1.1051 -0.1455 -0.4933
   89MOL   C38737523   7.453   5.785   7.260  0.1802 -0.7202 -1.2397
   89MOL   C38837524   7.554   5.791   7.351 -1.3382 -0.0124 -0.6725
   89MOL   C38937525   7.542   5.885   7.456  0.4135  0.2859 -0.4351
   89MOL   C39037526   7.074   6.074   7.725 -0.4012  0.1763 -0.0696
   89MOL   H39137527   7.293   6.101   7.757 -1.1032 -0.1860  1.5060
   89MOL   H39237528   7.392   6.238   7.448  0.9503  0.6571  0.3505
   89MOL   H39337529   7.424   6.269   7.610  0.2009  0.7008 -0.6100
   89MOL   H39437530   7.261   6.044   7.363 -0.9819 -1.9188  1.6255
   89MOL   H39537531   7.259   5.864   7.187 -1.1499 -0.3418 -0.3903
   89MOL   H39637532   7.461   5.701   7.193  0.1919 -0.7228 -1.2352
   89MOL   H39737533   7.641   5.728   7.338 -2.7284 -2.3331  0.8826
   89MOL   H39837534   7.616   5.874   7.534  0.8535 -0.6644 -0.9795
   89MOL   H39937535   7.060   5.992   7.655 -2.1152 -1.8532  2.5507
   89MOL   H40037536   6.989   6.137   7.699 -1.0026  0.1983  1.8622
   89MOL   C40137537   7.040   6.002   7.859 -0.2441  0.1016  0.3365
   89MOL   O40237538   7.003   6.103   7.952 -0.2834  0.5600  1.1868
   89MOL   C40337539   7.001   6.080   0.111  0.0587 -0.2114 -0.5151
   89MOL   O40437540   7.133   6.031   0.150 -0.2061  0.0486 -0.0954
   89MOL   C40537541   7.166   6.010   0.284  0.1426 -0.6697  0.2357
   89MOL   C40637542   7.083   6.025   0.391 -0.1061 -0.2570 -0.4521
   89MOL   C40737543   7.125   6.003   0.522 -0.2058  0.3874 -0.0256
   89MOL   C40837544   7.260   5.976   0.550  0.3806 -0.2961 -0.1848
   89MOL   C40937545   7.344   5.965   0.438  0.3825 -0.2298  0.5191
   89MOL   C41037546   7.296   5.980   0.302  0.5229 -0.3978 -0.3469
   89MOL   C41137547   6.920   5.909   7.837 -0.2993  0.4216  0.0081
   89MOL   H41237548   7.128   5.941   7.882  0.3002  0.6630 -0.2258
   89MOL   H41337549   6.931   6.005   0.149  0.7106  0.8975  3.0556
   89MOL   H41437550   6.978   6.173   0.164 -3.4965 -2.0963  1.5043
   89MOL   H41537551   6.980   6.055   0.379 -0.1334  1.2529  3.1081
   89MOL   H41637552   7.050   6.009   0.600  2.2672 -1.8322  2.6300
   89MOL   H41737553   7.292   5.960   0.652 -2.1195  1.4188  0.9285
   89MOL   H41837554   7.448   5.938   0.455  1.3682  4.1189  2.0601
   89MOL   H41937555   7.355   5.963   0.213 -1.9103  0.3523 -2.1701
   89MOL   H42037556   6.894   5.859   7.930 -1.8910 -1.0644 -1.1868
   89MOL   H42137557   6.930   5.830   7.762  1.3827 -0.6569  1.3566
   89MOL   H42237558   6.831   5.966   7.808 -0.5267 -1.3193 -2.9001
   90MOL     C137559   1.039   4.042   3.817 -0.2719  0.1069  0.2116
   90MOL     O237560   1.142   4.085   3.731  0.2872 -0.1197  1.1209
   90MOL     C337561   1.140   4.065   3.595  0.2194 -0.0582 -0.6398
   90MOL     O437562   1.252   4.130   3.541 -0.4466 -0.1577  0.0411
   90MOL     C537563   1.349   4.052   3.487 -0.1703 -0.0393 -0.9686
   90MOL     C637564   1.383   3.917   3.532 -1.1641  0.0731 -0.4530
   90MOL     C737565   1.483   3.843   3.465 -0.2385  0.5346 -0.1669
   90MOL     C837566   1.550   3.903   3.359  0.2231  0.1786 -0.3212
   90MOL     C937567   1.532   4.039   3.321 -0.5463  0.1488 -0.0166
   90MOL    C1037568   1.431   4.108   3.387  0.3035 -0.8663 -0.2631
   90MOL    C1137569   0.907   4.118   3.785 -0.5459  0.0579  0.1039
   90MOL    H1237570   1.028   3.936   3.792  0.6763  0.3458 -1.2740
   90MOL    H1337571   1.129   3.960   3.569 -1.3644  0.0058 -0.2800
   90MOL    H1437572   1.059   4.105   3.534  0.7178  1.4098 -0.3691
   90MOL    H1537573   1.339   3.879   3.623 -0.1501  1.7187  0.7779
   90MOL    H1637574   1.505   3.741   3.495 -0.4064  1.0902  1.9277
   90MOL    H1737575   1.631   3.850   3.310 -1.5388 -2.1327 -0.7837
   90MOL    H1837576   1.586   4.076   3.235 -0.9499  0.8440  0.0197
   90MOL    H1937577   1.402   4.206   3.354 -1.6532 -1.6190 -0.8565
   90MOL    H2037578   0.861   4.085   3.692 -1.0995  1.7410 -0.2218
   90MOL    H2137579   0.933   4.223   3.779  1.8841 -0.5101 -0.0820
   90MOL    H2237580   1.073   4.058   3.919 -1.1976  2.8605  0.1348
   90MOL    C2337581   0.793   4.106   3.893  0.3550 -0.1286 -0.0560
   90MOL    O2437582   0.750   3.978   3.906  0.0161  0.1798 -0.1783
   90MOL    C2537583   0.778   3.915   4.032  0.8727  0.2784  0.2484
   90MOL    O2637584   0.707   3.976   4.133  0.2829  0.3741 -0.2101
   90MOL    C2737585   0.569   3.961   4.131  0.8259  0.2535  0.0874
   90MOL    C2837586   0.498   4.036   4.230  0.2461  0.0829  0.1303
   90MOL    C2937587   0.361   4.021   4.246  0.5890 -0.1883  0.7184
   90MOL    C3037588   0.287   3.940   4.162 -0.4436 -0.4634 -0.3364
   90MOL    C3137589   0.353   3.866   4.063 -0.1501  0.7198  0.4793
   90MOL    C3237590   0.493   3.873   4.048 -0.0976  0.3699  0.1715
   90MOL    C3337591   0.676   4.186   3.846  0.0705 -0.1864  0.3101
   90MOL    H3437592   0.833   4.148   3.984 -1.0438 -2.1831  1.5640
   90MOL    H3537593   0.886   3.909   4.046  1.1585 -0.6720 -2.1128
   90MOL    H3637594   0.761   3.808   4.031  0.0219  0.4155 -1.0065
   90MOL    H3737595   0.539   4.094   4.312 -1.6892  1.8850 -0.1140
   90MOL    H3837596   0.314   4.078   4.325 -1.2803  1.1027 -1.2319
   90MOL    H3937597   0.180   3.931   4.171 -0.3868  0.2490  1.2096
   90MOL    H4037598   0.301   3.797   3.999 -1.2621  1.3363  0.7142
   90MOL    H4137599   0.544   3.807   3.979 -1.3501 -0.7435  0.2740
   90MOL    H4237600   0.587   4.141   3.890  0.4122  0.5447  1.8102
   90MOL    H4337601   0.673   4.178   3.738 -0.1525  0.6311  0.2495
   90MOL    C4437602   0.680   4.344   3.872 -0.1267 -0.7649 -0.1321
   90MOL    O4537603   0.703   4.388   4.008  0.3210 -0.5540 -0.2857
   90MOL    C4637604   0.600   4.372   4.102  0.5431  0.2780  0.0598
   90MOL    O4737605   0.508   4.472   4.093  0.2641 -0.1758 -0.2782
   90MOL    C4837606   0.410   4.479   4.188 -0.4644  0.7597 -0.4627
   90MOL    C4937607   0.411   4.407   4.303  0.1660 -1.1967 -0.2855
   90MOL    C5037608   0.296   4.407   4.393  0.0634  0.3875  0.1658
   90MOL    C5137609   0.187   4.487   4.362  0.7576 -0.2443  0.2749
   90MOL    C5237610   0.198   4.570   4.252 -0.5314 -0.1080  0.4789
   90MOL    C5337611   0.305   4.568   4.167  0.4268  0.5826  0.7622
   90MOL    C5437612   0.566   4.411   3.800 -0.2715 -0.1803  0.5431
   90MOL    H5537613   0.770   4.362   3.813 -0.4350 -1.4010 -0.8227
   90MOL    H5637614   0.652   4.393   4.196 -0.2872  0.9652  0.3748
   90MOL    H5737615   0.565   4.269   4.097 -0.6895  0.7347 -0.7444
   90MOL    H5837616   0.493   4.347   4.339  0.3141 -0.3600  0.8039
   90MOL    H5937617   0.299   4.343   4.480 -0.5739  1.5561  1.0551
   90MOL    H6037618   0.111   4.513   4.434 -2.1366 -0.6161 -2.5227
   90MOL    H6137619   0.122   4.642   4.223 -0.6332 -0.0537  0.8756
   90MOL    H6237620   0.307   4.630   4.078 -0.8253 -1.1611 -0.5015
   90MOL    H6337621   0.573   4.387   3.693 -0.6526  0.6078  0.3369
   90MOL    H6437622   0.468   4.382   3.837  0.3355 -1.3180  1.2927
   90MOL    C6537623   0.570   4.562   3.797  0.0654  0.4745 -0.3198
   90MOL    O6637624   0.685   4.606   3.724 -0.3960 -0.1568  0.6416
   90MOL    C6737625   0.724   4.734   3.738  0.5135 -0.2263  0.3579
   90MOL    O6837626   0.793   4.758   3.854 -0.5992 -0.4347 -0.3853
   90MOL    C6937627   0.759   4.870   3.928  0.8601 -0.8607 -0.5113
   90MOL    C7037628   0.859   4.950   3.974  0.1083  0.1366  0.6707
   90MOL    C7137629   0.823   5.072   4.041  0.3453 -0.1131  0.3112
   90MOL    C7237630   0.691   5.096   4.075  0.0324  0.6911  0.3629
   90MOL    C7337631   0.590   5.013   4.032  0.6766  0.1972  0.9661
   90MOL    C7437632   0.621   4.907   3.948  0.2596 -0.2746 -0.3511
   90MOL    C7537633   0.436   4.617   3.742 -0.4294  0.9926 -0.2537
   90MOL    H7637634   0.585   4.592   3.900  0.6182 -0.8439 -0.0080
   90MOL    H7737635   0.643   4.805   3.718  0.1244 -0.1048  2.3309
   90MOL    H7837636   0.788   4.751   3.651  0.7896 -1.0460  0.4051
   90MOL    H7937637   0.964   4.929   3.968  0.4383  1.4374  1.6724
   90MOL    H8037638   0.903   5.132   4.083  0.6968 -1.4216  1.5448
   90MOL    H8137639   0.652   5.185   4.123  2.1938  2.1079 -0.4276
   90MOL    H8237640   0.483   5.026   4.044  0.5897  0.5951 -0.2102
   90MOL    H8337641   0.544   4.850   3.900 -1.1639  1.3226 -0.0183
   90MOL    H8437642   0.366   4.599   3.823 -0.2213  0.0018 -0.2963
   90MOL    H8537643   0.445   4.725   3.725 -1.2285  0.7763 -2.2450
   90MOL    C8637644   0.385   4.569   3.600  0.5352  0.1243 -0.3754
   90MOL    O8737645   0.265   4.641   3.554 -0.5241 -0.1005 -0.0846
   90MOL    C8837646   0.153   4.638   3.641  0.1550  0.0853 -0.4726
   90MOL    O8937647   0.049   4.711   3.600  0.2142  0.0470 -0.2589
   90MOL    C9037648   7.945   4.661   3.499  0.9648 -0.1876  0.0175
   90MOL    C9137649   7.836   4.740   3.469 -0.4198 -0.3576  0.6180
   90MOL    C9237650   7.742   4.699   3.373  0.0345  0.0847  0.0372
   90MOL    C9337651   7.758   4.569   3.318  0.6874 -0.0056 -0.9233
   90MOL    C9437652   7.860   4.486   3.358 -0.1756  0.5322 -0.4106
   90MOL    C9537653   7.958   4.535   3.442 -0.0574 -0.5574 -0.5590
   90MOL    C9637654   0.481   4.600   3.479 -0.3772 -0.4209  0.1340
   90MOL    H9737655   0.350   4.466   3.601  0.1307  0.2558  1.7978
   90MOL    H9837656   0.176   4.679   3.740  0.7846 -0.2312 -0.4812
   90MOL    H9937657   0.127   4.535   3.665  1.9099 -0.6797 -1.7045
   90MOL   H10037658   7.821   4.842   3.502 -0.6521 -0.2853  0.2943
   90MOL   H10137659   7.650   4.751   3.351  1.7158  2.5303 -1.4887
   90MOL   H10237660   7.682   4.528   3.253 -0.7146  2.7332 -1.1007
   90MOL   H10337661   7.871   4.391   3.307  1.3100 -0.6852  2.0597
   90MOL   H10437662   0.071   4.476   3.463 -0.8184 -1.3491  0.4475
   90MOL   H10537663   0.507   4.706   3.481  2.5445 -1.0023 -2.7492
   90MOL   H10637664   0.571   4.546   3.507 -0.1027 -0.1855 -0.2970
   90MOL   C10737665   0.449   4.558   3.337 -0.2079 -0.4159 -0.6491
   90MOL   O10837666   0.567   4.593   3.267  0.4562 -0.5382  0.1161
   90MOL   C10937667   0.553   4.661   3.146 -0.4260 -0.8628  0.3686
   90MOL   O11037668   0.504   4.791   3.170 -0.1644 -0.2710  0.3424
   90MOL   C11137669   0.494   4.883   3.072 -0.5176  0.2015 -0.1448
   90MOL   C11237670   0.403   4.989   3.096  0.2870  0.2868 -0.3092
   90MOL   C11337671   0.386   5.083   2.994 -0.1034  0.1954  0.2108
   90MOL   C11437672   0.447   5.070   2.868 -0.3636 -0.1118 -0.3854
   90MOL   C11537673   0.542   4.971   2.854 -0.0115 -0.4613 -0.4903
   90MOL   C11637674   0.564   4.876   2.952 -0.5350  0.2457 -0.2283
   90MOL   C11737675   0.423   4.408   3.339  0.3823 -0.0889  0.7213
   90MOL   H11837676   0.362   4.612   3.299 -0.4125  0.9572  1.6259
   90MOL   H11937677   0.504   4.611   3.063  2.7122 -2.1427 -0.7760
   90MOL   H12037678   0.653   4.681   3.107 -1.0391  2.4231  0.3447
   90MOL   H12137679   0.346   5.000   3.187  1.3467 -1.6774  0.6222
   90MOL   H12237680   0.314   5.160   3.014  3.1160  2.4685  3.8115
   90MOL   H12337681   0.413   5.141   2.794  1.3131  2.3364  1.1357
   90MOL   H12437682   0.598   4.972   2.762  1.1461  1.4454  0.2143
   90MOL   H12537683   0.637   4.799   2.933  0.3802  1.4175 -1.5808
   90MOL   H12637684   0.335   4.382   3.398 -0.8092  1.6342 -0.2437
   90MOL   H12737685   0.502   4.363   3.397  1.7367  1.8090  0.3834
   90MOL   C12837686   0.411   4.350   3.200  0.3003 -0.7197 -0.0432
   90MOL   O12937687   0.286   4.399   3.151  0.2141  0.7905  0.4507
   90MOL   C13037688   0.259   4.355   3.018 -0.1082 -0.6784  0.3950
   90MOL   O13137689   0.177   4.243   3.014 -0.4887  0.2837  0.0886
   90MOL   C13237690   0.125   4.209   2.889 -0.0590  0.0160 -0.3981
   90MOL   C13337691   0.017   4.122   2.886 -0.7164  0.3471 -0.0978
   90MOL   C13437692   7.923   4.097   2.769  0.1070 -0.3174 -0.3278
   90MOL   C13537693   7.964   4.149   2.647  0.1595  0.2670 -0.3657
   90MOL   C13637694   0.096   4.240   2.642 -0.1060  0.6998 -0.3549
   90MOL   C13737695   0.170   4.270   2.763  0.6652 -0.2827 -0.4462
   90MOL   C13837696   0.423   4.192   3.209 -0.4227  0.2999  0.5721
   90MOL   H13937697   0.495   4.384   3.138  0.2311  0.8082  0.6788
   90MOL   H14037698   0.359   4.356   2.974 -1.8170 -2.2689 -3.7454
   90MOL   H14137699   0.207   4.442   2.979 -0.0615 -0.3563  1.0368
   90MOL   H14237700   7.938   4.088   2.973 -0.1801  2.7497  1.2081
   90MOL   H14337701   7.832   4.038   2.767  0.0179 -0.1840 -0.2493
   90MOL   H14437702   7.909   4.133   2.555  0.5870  0.5315 -0.6689
   90MOL   H14537703   0.127   4.283   2.548  0.2611  0.4562 -0.3453
   90MOL   H14637704   0.246   4.347   2.756 -1.2743  1.6732 -0.6210
   90MOL   H14737705   0.360   4.147   3.286  0.7240 -2.5087 -0.0716
   90MOL   H14837706   0.379   4.147   3.121  0.2792 -0.5840  0.6662
   90MOL   C14937707   0.562   4.129   3.214  0.1619 -0.6612  0.3413
   90MOL   O15037708   0.565   4.081   3.349  0.0921  0.0801 -0.0136
   90MOL   C15137709   0.683   4.020   3.395  0.3186 -0.7370  0.8306
   90MOL   O15237710   0.796   4.075   3.333  0.1464 -0.3997 -0.0065
   90MOL   C15337711   0.850   4.191   3.378 -0.2958 -0.4155 -0.2301
   90MOL   C15437712   0.968   4.227   3.312  0.1135 -0.2662  0.2080
   90MOL   C15537713   1.025   4.348   3.347 -0.3706 -0.5103 -0.2321
   90MOL   C15637714   0.968   4.436   3.440 -0.2001 -0.7306  0.2569
   90MOL   C15737715   0.852   4.404   3.508  0.2241  0.2292 -0.0219
   90MOL   C15837716   0.796   4.276   3.483 -0.2991 -0.0853 -0.1941
   90MOL   C15937717   0.601   4.018   3.116  0.5918  0.0686  0.5691
   90MOL   H16037718   0.637   4.208   3.202  1.7958 -1.9847  1.6945
   90MOL   H16137719   0.696   4.018   3.503 -0.4361  1.1256  0.9759
   90MOL   H16237720   0.681   3.917   3.358 -1.4290 -0.6563  0.6285
   90MOL   H16337721   1.003   4.169   3.228 -0.6503 -0.9993  0.3873
   90MOL   H16437722   1.112   4.383   3.294 -0.7988  0.7262 -0.1364
   90MOL   H16537723   1.008   4.536   3.445  0.7691 -1.0526 -0.7977
   90MOL   H16637724   0.812   4.470   3.584 -1.6291  0.3736 -1.0773
   90MOL   H16737725   0.704   4.244   3.530 -0.9194 -1.3222 -2.1955
   90MOL   H16837726   0.534   3.933   3.127  2.6311 -1.6394  0.0400
   90MOL   H16937727   0.693   3.965   3.137 -0.3807 -1.0325  2.1424
   90MOL   C17037728   0.602   4.049   2.968 -0.0659 -0.5081  0.3837
   90MOL   O17137729   0.733   4.071   2.920 -0.2485  0.2390 -0.2209
   90MOL   C17237730   0.802   4.185   2.964 -0.5327  0.6620  0.1534
   90MOL   O17337731   0.747   4.304   2.913  0.1835  0.2954 -0.7285
   90MOL   C17437732   0.815   4.416   2.936  0.2253  0.3459 -0.7872
   90MOL   C17537733   0.818   4.505   2.825  0.2924  0.3160  0.0322
   90MOL   C17637734   0.877   4.628   2.847  0.6672  0.1132 -0.0543
   90MOL   C17737735   0.930   4.667   2.967 -0.5190  0.2341  1.1529
   90MOL   C17837736   0.921   4.584   3.082 -0.5998 -0.8761  0.6659
   90MOL   C17937737   0.868   4.452   3.065 -0.5457 -0.5877  0.2509
   90MOL   C18037738   0.542   3.927   2.888  0.0392  0.0108 -0.4534
   90MOL   H18137739   0.537   4.135   2.957 -0.9131 -0.9633  1.7426
   90MOL   H18237740   0.904   4.171   2.929 -0.8912 -2.1204  0.0391
   90MOL   H18337741   0.814   4.179   3.072  1.2652  0.2591 -0.0567
   90MOL   H18437742   0.768   4.483   2.732 -0.3542 -1.8942  0.8596
   90MOL   H18537743   0.866   4.708   2.775  0.1777 -0.1545 -0.2829
   90MOL   H18637744   0.981   4.761   2.983 -0.6633  0.4354  0.4544
   90MOL   H18737745   0.949   4.620   3.180  1.0169  0.2406 -0.1739
   90MOL   H18837746   0.852   4.392   3.154 -0.3941 -2.3742 -0.9068
   90MOL   H18937747   0.440   3.918   2.925 -0.3534  1.7058 -1.0729
   90MOL   H19037748   0.516   3.955   2.786 -2.4330  0.7774  0.3486
   90MOL   C19137749   0.619   3.791   2.892  0.2676 -0.5360  0.3928
   90MOL   O19237750   0.733   3.806   2.809 -0.2306 -0.6673  0.1879
   90MOL   C19337751   0.868   3.773   2.859 -0.1589 -0.0258  0.3020
   90MOL   O19437752   0.903   3.854   2.971  0.4329  0.5188 -0.1507
   90MOL   C19537753   1.013   3.822   3.045  0.3783  0.4797 -0.3027
   90MOL   C19637754   1.104   3.717   3.005  0.2898  0.1819 -0.5261
   90MOL   C19737755   1.210   3.684   3.091  0.2358 -0.1937 -0.5062
   90MOL   C19837756   1.229   3.752   3.212 -0.0898  0.2286 -0.4594
   90MOL   C19937757   1.143   3.854   3.248  0.0242 -0.4766  0.8595
   90MOL   C20037758   1.032   3.889   3.169  0.3229 -0.0198 -0.4744
   90MOL   C20137759   0.535   3.687   2.813 -0.8954  0.7014  0.6171
   90MOL   H20237760   0.629   3.741   2.988 -0.0756  1.1123  1.2950
   90MOL   H20337761   0.939   3.778   2.778 -0.7380  0.1465 -0.1996
   90MOL   H20437762   0.867   3.668   2.889 -0.9272 -0.7796 -2.2407
   90MOL   H20537763   1.093   3.664   2.911 -1.9409 -0.5737  0.1173
   90MOL   H20637764   1.275   3.600   3.073  0.4867  0.0860 -0.9132
   90MOL   H20737765   1.312   3.719   3.274 -0.2770  1.9686  0.7268
   90MOL   H20837766   1.167   3.913   3.335  0.0299  0.4907  0.2090
   90MOL   H20937767   0.957   3.961   3.199 -0.4672 -0.6134 -0.9949
   90MOL   H21037768   0.434   3.680   2.852 -1.1971  0.6172 -0.1598
   90MOL   H21137769   0.524   3.718   2.709 -0.0113 -1.5090 -0.1694
   90MOL   C21237770   0.586   3.541   2.814  0.2801 -0.7757  0.4118
   90MOL   O21337771   0.582   3.505   2.953  0.3754 -0.2162 -0.0628
   90MOL   C21437772   0.664   3.400   2.993  0.0959  0.3051 -0.1693
   90MOL   O21537773   0.791   3.447   2.985 -0.1806  0.3220 -0.1153
   90MOL   C21637774   0.891   3.350   3.002 -0.7722  0.4879 -0.4475
   90MOL   C21737775   1.016   3.367   2.944 -0.4979 -0.4097 -1.0489
   90MOL   C21837776   1.120   3.280   2.973 -0.0969  0.3946 -0.4249
   90MOL   C21937777   1.118   3.172   3.063  0.9001  0.2949  0.1076
   90MOL   C22037778   0.992   3.154   3.115 -0.7128 -0.3952 -0.4009
   90MOL   C22137779   0.877   3.234   3.087  0.5367  0.0948 -0.1510
   90MOL   C22237780   0.486   3.450   2.736  1.1208  0.0737 -0.3863
   90MOL   H22337781   0.689   3.528   2.782  0.1391 -0.8013 -0.0472
   90MOL   H22437782   0.663   3.319   2.920  0.5311 -0.1654  0.3459
   90MOL   H22537783   0.644   3.381   3.098  0.0249  0.8686 -0.0754
   90MOL   H22637784   1.043   3.451   2.882 -0.5904  1.0077  0.7980
   90MOL   H22737785   1.220   3.298   2.936 -0.3740 -0.7240 -1.7584
   90MOL   H22837786   1.205   3.113   3.087  0.2194 -1.8202 -2.3622
   90MOL   H22937787   0.983   3.068   3.179  2.3990 -1.1163 -0.8569
   90MOL   H23037788   0.786   3.202   3.136  0.4034 -0.3824 -0.7075
   90MOL   H23137789   0.437   3.383   2.807  1.6881  0.0302 -0.0259
   90MOL   H23237790   0.411   3.524   2.707  0.3531 -0.2747  0.6581
   90MOL   C23337791   0.538   3.370   2.614  0.1514 -0.4812  0.0729
   90MOL   O23437792   0.436   3.272   2.588  0.2230  0.0122  0.1440
   90MOL   C23537793   0.479   3.146   2.609  0.3318  0.0058 -0.6123
   90MOL   O23637794   0.530   3.118   2.736  0.1753  0.4564  0.5404
   90MOL   C23737795   0.612   3.006   2.743 -0.6027  0.1413 -0.0982
   90MOL   C23837796   0.602   2.894   2.661  0.5667  1.1842 -0.0109
   90MOL   C23937797   0.690   2.786   2.685  0.3138  0.3027  0.4284
   90MOL   C24037798   0.790   2.799   2.783  0.8869  1.3159  0.3347
   90MOL   C24137799   0.802   2.914   2.865  0.3633  0.5887  0.5113
   90MOL   C24237800   0.710   3.012   2.844  0.2068 -0.5259 -0.0543
   90MOL   C24337801   0.567   3.447   2.490 -0.2150 -1.0699  0.2641
   90MOL   H24437802   0.632   3.319   2.637 -1.7270 -3.0803  2.3580
   90MOL   H24537803   0.561   3.126   2.540 -0.7335 -0.7851 -1.6648
   90MOL   H24637804   0.393   3.083   2.588 -0.4915  0.0529  2.3107
   90MOL   H24737805   0.532   2.894   2.579  0.5267  0.5024  0.0173
   90MOL   H24837806   0.698   2.698   2.622  0.5786 -1.0741  2.3578
   90MOL   H24937807   0.855   2.718   2.813  0.0768 -0.5193 -2.6656
   90MOL   H25037808   0.878   2.925   2.940  1.5121 -2.0974 -0.2113
   90MOL   H25137809   0.712   3.099   2.908  1.0516  0.0814 -0.8852
   90MOL   H25237810   0.560   3.385   2.401 -1.2789  1.2489 -1.3379
   90MOL   H25337811   0.482   3.513   2.470  1.9745  1.1281 -2.1190
   90MOL   C25437812   0.702   3.525   2.476  0.0189 -0.1961  0.1846
   90MOL   O25537813   0.801   3.434   2.500  0.3969 -0.0634  0.3547
   90MOL   C25637814   0.892   3.462   2.596  0.0802 -0.3808 -0.4322
   90MOL   O25737815   1.020   3.425   2.553  0.0599  0.2967  0.1783
   90MOL   C25837816   1.051   3.294   2.558  0.0264  0.9553  0.0001
   90MOL   C25937817   0.989   3.199   2.639 -0.1096 -0.2551 -0.2590
   90MOL   C26037818   1.021   3.064   2.623 -0.3634  0.4358 -0.2980
   90MOL   C26137819   1.128   3.027   2.546 -0.7851  0.3981  0.3052
   90MOL   C26237820   1.197   3.120   2.468  0.3986 -0.3345  0.7351
   90MOL   C26337821   1.156   3.255   2.477 -0.1377 -0.0752 -0.2641
   90MOL   C26437822   0.733   3.591   2.340  0.0710  0.6727 -0.8748
   90MOL   H26537823   0.692   3.602   2.553  0.9664  0.5700 -0.4526
   90MOL   H26637824   0.873   3.414   2.692 -0.3353 -2.3511 -1.4696
   90MOL   H26737825   0.891   3.567   2.626  0.7007 -0.4153 -0.2873
   90MOL   H26837826   0.907   3.222   2.706  0.8602  1.4504  0.3897
   90MOL   H26937827   0.976   2.984   2.679  3.4362 -1.5812  0.0588
   90MOL   H27037828   1.156   2.924   2.533 -2.8903 -0.2227  0.4335
   90MOL   H27137829   1.272   3.088   2.398 -0.7329 -1.3396 -0.0419
   90MOL   H27237830   1.233   3.320   2.438  0.4214  1.8871  3.7989
   90MOL   H27337831   0.838   3.622   2.337  0.6026 -0.8464  1.3055
   90MOL   H27437832   0.725   3.518   2.259 -0.4975 -2.2672  1.7497
   90MOL   C27537833   0.639   3.707   2.313  0.5758 -0.2769 -0.2158
   90MOL   O27637834   0.689   3.819   2.392  0.2234 -0.0886  0.0223
   90MOL   C27737835   0.593   3.926   2.414 -0.0544 -0.7492  1.0403
   90MOL   O27837836   0.647   4.045   2.367 -0.2603 -0.2469 -0.1263
   90MOL   C27937837   0.739   4.104   2.451 -0.0818 -0.2667  0.1387
   90MOL   C28037838   0.805   4.041   2.559 -0.0962  0.6666 -0.2263
   90MOL   C28137839   0.889   4.114   2.645  0.2391  0.2559  0.0588
   90MOL   C28237840   0.915   4.251   2.616 -0.3229  0.5478 -0.4013
   90MOL   C28337841   0.862   4.307   2.499  0.0289 -0.2704 -0.3864
   90MOL   C28437842   0.780   4.235   2.413 -0.1633  0.0134 -0.2089
   90MOL   C28537843   0.658   3.744   2.163 -0.0642 -0.3970 -0.1648
   90MOL   H28637844   0.532   3.687   2.325  0.9942 -1.4937  1.7252
   90MOL   H28737845   0.561   3.929   2.518  0.4945 -0.4238  1.2021
   90MOL   H28837846   0.507   3.923   2.347  0.6302 -0.3001  0.1222
   90MOL   H28937847   0.797   3.936   2.583  0.0422  0.9493  1.0950
   90MOL   H29037848   0.939   4.067   2.728  1.6503 -1.8393 -1.9166
   90MOL   H29137849   0.980   4.308   2.681  0.1226 -0.6566  0.2190
   90MOL   H29237850   0.886   4.411   2.482 -3.0412  0.6719  0.6694
   90MOL   H29337851   0.737   4.278   2.324 -0.2876 -1.9534 -1.1065
   90MOL   H29437852   0.737   3.681   2.121 -0.7418 -0.1080 -1.9341
   90MOL   H29537853   0.699   3.844   2.164  3.0907 -1.6275  1.6100
   90MOL   C29637854   0.528   3.732   2.075 -0.5905  0.3695 -0.1791
   90MOL   O29737855   0.576   3.798   1.956  0.5517 -0.1522  0.3688
   90MOL   C29837856   0.488   3.826   1.852 -0.3490  0.3694 -0.3826
   90MOL   O29937857   0.482   3.722   1.761 -0.2737 -0.1424 -0.5218
   90MOL   C30037858   0.594   3.690   1.687  0.5192  0.1493  0.3529
   90MOL   C30137859   0.584   3.571   1.616  0.1626 -0.0413  0.3964
   90MOL   C30237860   0.687   3.527   1.530 -0.0020 -0.8562  0.2694
   90MOL   C30337861   0.808   3.606   1.524  0.3916 -0.2549  0.1679
   90MOL   C30437862   0.820   3.722   1.601  0.1719 -0.4616 -0.3424
   90MOL   C30537863   0.715   3.759   1.685 -0.3035 -0.2844  0.1319
   90MOL   C30637864   0.487   3.582   2.061  0.3007 -0.5661  0.4226
   90MOL   H30737865   0.444   3.776   2.129 -1.3961  0.6369 -1.6329
   90MOL   H30837866   0.525   3.910   1.793  0.1180 -0.1010 -0.7564
   90MOL   H30937867   0.387   3.851   1.884  0.4258  0.7037  1.8620
   90MOL   H31037868   0.497   3.507   1.613 -0.1792  0.4541 -0.5046
   90MOL   H31137869   0.676   3.430   1.485  1.5101 -0.2686 -1.4429
   90MOL   H31237870   0.890   3.575   1.461  0.1549  1.2539 -0.9170
   90MOL   H31337871   0.911   3.779   1.595 -0.9010  1.4477  0.9012
   90MOL   H31437872   0.724   3.840   1.756 -1.5868 -1.2843  1.4918
   90MOL   H31537873   0.507   3.519   2.148 -1.4826 -0.2452  1.0957
   90MOL   H31637874   0.545   3.546   1.976 -0.6234 -2.0262  0.3887
   90MOL   C31737875   0.336   3.566   2.041  0.1111  0.6142 -0.7132
   90MOL   O31837876   0.266   3.607   2.155 -0.5258 -0.0405  0.0327
   90MOL   C31937877   0.174   3.716   2.136 -0.1294  0.8656 -0.1640
   90MOL   O32037878   0.225   3.834   2.187  0.3081 -0.1934 -0.1573
   90MOL   C32137879   0.227   3.851   2.322 -0.1256  0.0707  0.8485
   90MOL   C32237880   0.259   3.981   2.369 -0.9417  0.7023  0.1547
   90MOL   C32337881   0.271   4.001   2.505  0.4326 -0.8508  0.1672
   90MOL   C32437882   0.254   3.900   2.601  0.3587 -0.1382  0.6089
   90MOL   C32537883   0.233   3.768   2.556 -0.0907  0.0227  0.5272
   90MOL   C32637884   0.215   3.749   2.416 -0.2444 -0.2793 -0.4457
   90MOL   C32737885   0.313   3.417   2.010 -0.4600  0.7292  0.0771
   90MOL   H32837886   0.306   3.623   1.953  0.9460  2.0931 -0.0634
   90MOL   H32937887   0.085   3.695   2.195  0.6752  0.0059  0.7727
   90MOL   H33037888   0.131   3.739   2.039 -0.9000  0.8707  0.1745
   90MOL   H33137889   0.271   4.068   2.306  2.0291  1.3812  1.5627
   90MOL   H33237890   0.282   4.107   2.525 -0.4704 -0.9058  0.9845
   90MOL   H33337891   0.275   3.915   2.706  1.4993 -2.4063  0.7457
   90MOL   H33437892   0.229   3.681   2.620  2.3985  0.4827  1.3672
   90MOL   H33537893   0.195   3.651   2.376  1.2023 -0.8940  0.2726
   90MOL   H33637894   0.359   3.390   1.915 -0.5836 -0.3047  0.3018
   90MOL   H33737895   0.371   3.356   2.080 -0.8474  0.1371 -0.1130
   90MOL   C33837896   0.169   3.368   2.007  0.2166 -0.1748  0.4660
   90MOL   O33937897   0.095   3.453   1.918 -0.0212  0.1589 -0.1144
   90MOL   C34037898   7.930   3.458   1.954  0.1473  0.2888  0.4335
   90MOL   O34137899   7.909   3.571   2.038  0.0025 -0.3131  0.6786
   90MOL   C34237900   7.784   3.580   2.083  0.5122 -0.0559 -0.3927
   90MOL   C34337901   7.673   3.514   2.024 -0.4182 -0.1637 -0.0408
   90MOL   C34437902   7.544   3.514   2.086  0.3762  0.1668 -0.0818
   90MOL   C34537903   7.520   3.592   2.205 -0.4082  0.0313  0.3816
   90MOL   C34637904   7.628   3.664   2.258 -0.8233 -0.2321  0.8615
   90MOL   C34737905   7.763   3.654   2.202  0.1757 -0.5263 -0.6837
   90MOL   C34837906   0.161   3.217   1.983  0.1495 -0.4833 -0.2617
   90MOL   H34937907   0.134   3.375   2.110 -0.5781  1.5015  0.0872
   90MOL   H35037908   7.888   3.367   1.997 -1.8686 -0.1752 -2.3916
   90MOL   H35137909   7.875   3.477   1.863  0.2273  1.0277  0.5366
   90MOL   H35237910   7.690   3.454   1.935 -0.4533 -0.3030  0.0451
   90MOL   H35337911   7.456   3.461   2.051 -1.4584 -1.3320  6.1065
   90MOL   H35437912   7.428   3.592   2.262 -0.6786  3.2592  0.0712
   90MOL   H35537913   7.603   3.722   2.346 -0.4253 -0.0737  0.8742
   90MOL   H35637914   7.847   3.698   2.253  0.4100 -0.0390 -1.4734
   90MOL   H35737915   0.232   3.185   1.908  3.6271  1.3124  2.1447
   90MOL   H35837916   0.066   3.191   1.936  0.5329  0.9058 -1.8137
   90MOL   C35937917   0.174   3.135   2.108 -0.6816  0.3368 -0.0987
   90MOL   O36037918   0.317   3.102   2.132  0.0989  0.3746 -0.2838
   90MOL   C36137919   0.348   3.045   2.258 -0.6937  0.2726 -0.6666
   90MOL   O36237920   0.452   2.952   2.253 -0.3219 -0.3046 -1.1900
   90MOL   C36337921   0.577   2.998   2.272 -0.5144  0.1877  0.1431
   90MOL   C36437922   0.661   2.907   2.339 -0.0052  0.4250  1.1185
   90MOL   C36537923   0.796   2.939   2.355 -0.7602  0.1776 -0.2793
   90MOL   C36637924   0.845   3.068   2.329 -0.5100  0.5563  0.2922
   90MOL   C36737925   0.755   3.161   2.276  0.2411 -0.1583 -0.7358
   90MOL   C36837926   0.617   3.129   2.248 -0.0511  0.6817  0.6029
   90MOL   C36937927   0.104   3.008   2.094  0.0670  0.2117  0.4073
   90MOL   H37037928   0.141   3.187   2.198  1.0410  0.1688  0.6491
   90MOL   H37137929   0.259   3.003   2.303 -0.4057 -0.2232 -0.5546
   90MOL   H37237930   0.363   3.122   2.335 -0.5507 -1.4820  1.1078
   90MOL   H37337931   0.616   2.815   2.371 -0.9484  0.7704  0.8015
   90MOL   H37437932   0.862   2.861   2.391 -1.4661 -1.6517 -2.8246
   90MOL   H37537933   0.945   3.107   2.347 -0.7473  2.2361 -1.8753
   90MOL   H37637934   0.780   3.265   2.269  0.1701 -0.0996 -0.0941
   90MOL   H37737935   0.547   3.206   2.220 -0.2076  1.9721  4.2752
   90MOL   H37837936   0.147   2.917   2.137 -2.3367 -1.2823 -0.2613
   90MOL   H37937937   0.102   2.982   1.988  0.7987 -0.2389  0.5000
   90MOL   C38037938   7.938   3.011   2.137  0.7765 -0.0904 -0.7959
   90MOL   O38137939   7.864   3.114   2.073 -0.6790 -0.1038 -0.3722
   90MOL   C38237940   7.747   3.083   2.004 -0.0424 -0.0313 -0.6856
   90MOL   O38337941   7.767   2.990   1.902 -0.3292 -0.4918 -0.0661
   90MOL   C38437942   7.846   3.018   1.792  0.4861  0.0294 -0.8354
   90MOL   C38537943   7.876   3.145   1.746  0.5245  0.0645  0.2764
   90MOL   C38637944   7.960   3.157   1.638  0.3950  0.3625  0.7623
   90MOL   C38737945   0.035   3.047   1.565  0.6152  0.5067  0.6994
   90MOL   C38837946   0.004   2.917   1.613 -0.4182  0.5913 -0.1766
   90MOL   C38937947   7.904   2.908   1.734 -0.0643 -0.2327  0.1189
   90MOL   C39037948   7.919   3.007   2.294  0.0519  0.3022 -0.0394
   90MOL   H39137949   7.891   2.915   2.116  1.3690 -1.2193  2.7328
   90MOL   H39237950   7.671   3.032   2.063  1.3672 -0.8106  0.4871
   90MOL   H39337951   7.706   3.179   1.972 -2.7526 -0.2626  1.8880
   90MOL   H39437952   7.819   3.231   1.777 -2.5597 -2.0275  0.7538
   90MOL   H39537953   7.970   3.257   1.597  1.1986 -0.3089 -0.7318
   90MOL   H39637954   0.087   3.073   1.475 -1.2740 -2.5718 -1.3674
   90MOL   H39737955   0.031   2.826   1.561 -1.6790 -0.0678  0.2949
   90MOL   H39837956   7.879   2.808   1.769 -1.9792  0.4516  0.7941
   90MOL   H39937957   7.936   3.104   2.339 -0.1113  0.0998  0.4567
   90MOL   H40037958   0.024   2.938   2.318 -1.7049 -1.8385 -0.1301
   90MOL   C40137959   7.785   2.952   2.348  0.4534  0.1912 -0.0098
   90MOL   O40237960   7.811   2.820   2.396 -0.1016  0.1080 -0.3767
   90MOL   C40337961   7.736   2.714   2.344  0.5996 -0.6846  0.5938
   90MOL   O40437962   7.741   2.708   2.205  0.7648  0.4272 -0.5172
   90MOL   C40537963   7.858   2.666   2.150  0.2563 -0.2638 -0.1676
   90MOL   C40637964   7.866   2.677   2.012  0.2347  0.0177  0.5752
   90MOL   C40737965   0.013   2.643   1.948 -0.2476 -0.3482  0.2040
   90MOL   C40837966   0.112   2.582   2.020  0.5170 -0.2123 -0.3931
   90MOL   C40937967   0.095   2.570   2.157  1.0424  0.7101  0.1277
   90MOL   C41037968   7.958   2.613   2.220  0.0820 -0.0036 -0.3877
   90MOL   C41137969   7.734   3.044   2.469  0.1526  0.8429  0.3989
   90MOL   H41237970   7.702   2.938   2.278  1.1488 -0.5520 -0.6860
   90MOL   H41337971   7.633   2.737   2.371  0.9582 -0.8620  2.1720
   90MOL   H41437972   7.768   2.621   2.392  0.6696 -1.0512 -0.1483
   90MOL   H41537973   7.789   2.734   1.963  0.4220 -1.0104 -0.9835
   90MOL   H41637974   0.026   2.645   1.841  0.3145 -2.6967  0.1929
   90MOL   H41737975   0.201   2.548   1.970  0.2705  0.6686 -1.4784
   90MOL   H41837976   0.181   2.530   2.210  1.2228  0.6377 -0.2152
   90MOL   H41937977   7.956   2.601   2.327  0.0247 -2.2251 -0.6139
   90MOL   H42037978   7.720   3.147   2.436  0.5656  0.6277 -0.4527
   90MOL   H42137979   7.812   3.038   2.545 -1.2437 -0.1418  1.7916
   90MOL   H42237980   7.637   3.017   2.511  0.1695 -1.1257 -0.7670
   91MOL     C137981   7.023   1.043   2.469 -0.2946 -0.6098  0.4182
   91MOL     O237982   6.926   1.124   2.528  0.0942 -0.0121  0.4490
   91MOL     C337983   6.868   1.226   2.448  0.3646  1.0375 -0.5309
   91MOL     O437984   6.814   1.184   2.329  0.0011  0.2828  0.4308
   91MOL     C537985   6.826   1.263   2.215 -0.6271 -0.3854  0.1128
   91MOL     C637986   6.827   1.406   2.222 -0.3195 -0.4057 -0.7686
   91MOL     C737987   6.840   1.478   2.102 -1.0510 -0.4197  0.3351
   91MOL     C837988   6.851   1.414   1.980  0.2105  0.1004  0.2847
   91MOL     C937989   6.847   1.277   1.972  0.1514 -0.7925  0.5857
   91MOL    C1037990   6.825   1.204   2.088 -0.1438  0.5783 -0.2598
   91MOL    C1137991   7.057   0.925   2.561  0.6956  0.0384 -0.4640
   91MOL    H1237992   6.987   1.011   2.372 -1.4532 -0.3073  0.7342
   91MOL    H1337993   6.783   1.272   2.500 -0.6848 -1.5924  0.1336
   91MOL    H1437994   6.952   1.293   2.429  3.4062 -2.4126  0.2624
   91MOL    H1537995   6.831   1.456   2.318 -0.4136 -1.0711 -0.4093
   91MOL    H1637996   6.841   1.585   2.117 -0.5858 -0.3566 -0.1412
   91MOL    H1737997   6.866   1.471   1.890 -0.4429  2.0343  1.3724
   91MOL    H1837998   6.877   1.233   1.878  0.9298  1.0827 -0.0704
   91MOL    H1937999   6.831   1.096   2.083 -0.5195  0.6076 -1.5372
   91MOL    H2038000   6.968   0.862   2.568  1.1591 -0.4696  1.2490
   91MOL    H2138001   7.073   0.952   2.666 -1.2192  0.4716 -0.2465
   91MOL    H2238002   7.110   1.107   2.459  0.0850 -1.0465  0.8703
   91MOL    C2338003   7.167   0.829   2.503  0.4429 -0.7037 -0.0212
   91MOL    O2438004   7.175   0.711   2.579 -0.4900  0.3336  0.1098
   91MOL    C2538005   7.156   0.585   2.521  0.1602 -0.0372  0.1439
   91MOL    O2638006   7.029   0.554   2.489  0.2269  0.0144 -0.4105
   91MOL    C2738007   6.945   0.504   2.591  0.2951 -0.3120  0.5626
   91MOL    C2838008   6.812   0.478   2.549 -0.5205  0.3796  1.3864
   91MOL    C2938009   6.725   0.417   2.646  0.1390 -0.1934  0.4543
   91MOL    C3038010   6.775   0.376   2.772 -0.5560 -0.4297 -0.0950
   91MOL    C3138011   6.906   0.400   2.809  0.1025 -0.2441 -0.7355
   91MOL    C3238012   6.992   0.473   2.725 -0.5690  0.1214  0.4768
   91MOL    C3338013   7.304   0.900   2.519  0.2284 -0.6942 -0.7117
   91MOL    H3438014   7.155   0.815   2.396 -0.9443  0.2837  0.0025
   91MOL    H3538015   7.210   0.509   2.577  1.4092  1.3112  0.8153
   91MOL    H3638016   7.199   0.586   2.421  1.7092  2.5479  0.7922
   91MOL    H3738017   6.769   0.492   2.452 -2.7687 -0.7668  2.1988
   91MOL    H3838018   6.624   0.387   2.624 -0.7994  1.6597  1.9839
   91MOL    H3938019   6.710   0.325   2.842 -0.7471  0.6059  0.5027
   91MOL    H4038020   6.943   0.369   2.906  2.5734  1.6323 -1.0138
   91MOL    H4138021   7.093   0.496   2.755 -0.3187  1.8844 -1.5617
   91MOL    H4238022   7.303   0.918   2.627  2.6392 -0.6793 -0.6664
   91MOL    H4338023   7.305   0.997   2.470  1.0755 -0.9972 -1.3188
   91MOL    C4438024   7.434   0.835   2.476  0.6364  0.3768  0.0488
   91MOL    O4538025   7.527   0.856   2.576 -0.4033 -0.1840  0.1755
   91MOL    C4638026   7.568   0.750   2.647 -0.3820 -0.5595 -0.6166
   91MOL    O4738027   7.654   0.667   2.576  0.0554  0.2852 -1.0331
   91MOL    C4838028   7.713   0.553   2.629 -0.2876  0.0435  0.8598
   91MOL    C4938029   7.785   0.469   2.544 -0.8971  0.8569 -0.1065
   91MOL    C5038030   7.864   0.366   2.597 -0.1448 -0.3238  0.2922
   91MOL    C5138031   7.872   0.345   2.737 -0.5587 -0.1271  0.3943
   91MOL    C5238032   7.801   0.429   2.818 -0.2410 -0.2127  0.4960
   91MOL    C5338033   7.718   0.527   2.767  0.2521 -0.3135 -0.2067
   91MOL    C5438034   7.499   0.897   2.348 -0.0424  0.2702  0.4739
   91MOL    H5538035   7.422   0.729   2.457 -0.1672  0.1329  1.8212
   91MOL    H5638036   7.483   0.692   2.683 -1.2785  1.1207 -0.0137
   91MOL    H5738037   7.616   0.790   2.736 -1.6965  0.1826 -0.2445
   91MOL    H5838038   7.776   0.488   2.438 -2.0221  1.1088  0.0279
   91MOL    H5938039   7.916   0.299   2.529  0.2367  0.4493 -0.1834
   91MOL    H6038040   7.930   0.267   2.783  1.2923  1.3497  0.6180
   91MOL    H6138041   7.812   0.399   2.921 -0.8858 -0.2659  0.5494
   91MOL    H6238042   7.654   0.587   2.829 -1.4386 -1.5473 -0.7213
   91MOL    H6338043   7.525   1.001   2.368 -0.8185  0.0958  2.5888
   91MOL    H6438044   7.590   0.841   2.326 -1.0548 -1.5654  0.7979
   91MOL    C6538045   7.433   0.876   2.210  0.2785 -0.7705 -0.3403
   91MOL    O6638046   7.305   0.937   2.214  0.0418  0.1463  0.9749
   91MOL    C6738047   7.276   1.066   2.175  0.1505 -0.1488  0.0184
   91MOL    O6838048   7.312   1.156   2.273 -0.3945 -0.1079 -0.0246
   91MOL    C6938049   7.263   1.282   2.254 -0.6051  0.5792  0.3438
   91MOL    C7038050   7.237   1.355   2.366 -0.7245  0.9567  0.6698
   91MOL    C7138051   7.184   1.482   2.343 -0.0854 -0.6923 -0.3484
   91MOL    C7238052   7.152   1.539   2.218 -0.0826  0.3225  0.3764
   91MOL    C7338053   7.170   1.450   2.109 -0.2270 -0.2646  0.9767
   91MOL    C7438054   7.240   1.330   2.125 -0.4007 -0.5336 -0.7633
   91MOL    C7538055   7.522   0.916   2.091  0.3688  0.1803 -0.7928
   91MOL    H7638056   7.418   0.768   2.203 -1.1680 -0.9004  3.6080
   91MOL    H7738057   7.168   1.072   2.161 -0.0742 -0.9380  1.3767
   91MOL    H7838058   7.321   1.091   2.079  0.7801  0.2559  0.4098
   91MOL    H7938059   7.244   1.315   2.466 -1.4700  1.3834  0.8959
   91MOL    H8038060   7.147   1.541   2.426 -0.0091 -0.3735 -0.5419
   91MOL    H8138061   7.130   1.644   2.208 -0.3238  0.0344 -2.6433
   91MOL    H8238062   7.144   1.489   2.011 -0.7496  0.0288  1.2299
   91MOL    H8338063   7.264   1.277   2.034  1.6649 -1.8795  0.5075
   91MOL    H8438064   7.529   1.025   2.090  0.6267  0.1554 -1.8103
   91MOL    H8538065   7.625   0.885   2.109  0.6571  1.7833  0.4061
   91MOL    C8638066   7.469   0.845   1.963  0.6487  0.0019 -0.0503
   91MOL    O8738067   7.453   0.948   1.859 -0.3206  0.1460 -0.4306
   91MOL    C8838068   7.345   0.943   1.778  0.3706 -0.2494 -0.1214
   91MOL    O8938069   7.232   0.972   1.857  0.1560 -0.2805  0.2890
   91MOL    C9038070   7.115   0.950   1.796  0.5524  0.8673  0.6953
   91MOL    C9138071   7.104   0.948   1.649 -0.3856  0.3041  0.2163
   91MOL    C9238072   6.980   0.899   1.594  0.5189 -1.0026 -0.2835
   91MOL    C9338073   6.876   0.859   1.676  0.4397 -0.1643  0.3958
   91MOL    C9438074   6.889   0.881   1.820 -0.3540  0.5824  0.1713
   91MOL    C9538075   7.004   0.914   1.881  0.0267 -0.6796 -0.4112
   91MOL    C9638076   7.569   0.736   1.907 -0.7081 -0.0123 -0.1812
   91MOL    H9738077   7.374   0.792   1.969  0.7858 -0.1949  0.4376
   91MOL    H9838078   7.344   0.848   1.723 -1.8101  0.0021 -0.5414
   91MOL    H9938079   7.358   1.020   1.701 -2.0195  3.7874  3.3313
   91MOL   H10038080   7.182   0.979   1.581  0.5775 -3.2016 -0.3997
   91MOL   H10138081   6.954   0.900   1.489  0.8060  2.8771 -0.4062
   91MOL   H10238082   6.785   0.822   1.632 -0.1852  1.6429  0.1435
   91MOL   H10338083   6.812   0.852   1.889  0.1112 -1.1328 -0.0111
   91MOL   H10438084   7.023   0.908   1.987 -0.5232  1.3454 -0.1744
   91MOL   H10538085   7.532   0.725   1.805  0.8162  0.2416 -0.7797
   91MOL   H10638086   7.669   0.777   1.894 -0.6793 -0.2077 -0.5828
   91MOL   C10738087   7.577   0.601   1.990  0.7302  0.4640  0.0532
   91MOL   O10838088   7.642   0.617   2.114  0.5126  0.1235 -0.0350
   91MOL   C10938089   7.776   0.575   2.109  0.3669  0.0714 -0.4135
   91MOL   O11038090   7.853   0.665   2.042  0.0855 -0.0228 -0.1641
   91MOL   C11138091   7.975   0.622   2.012  0.3352 -0.3920 -0.1570
   91MOL   C11238092   0.038   0.641   1.875  0.4312 -0.2791 -0.6011
   91MOL   C11338093   0.173   0.610   1.846 -0.4936 -0.4737  0.7204
   91MOL   C11438094   0.264   0.560   1.935  0.1298 -0.2303 -0.7456
   91MOL   C11538095   0.220   0.536   2.069  0.3847  0.0405  0.3397
   91MOL   C11638096   0.089   0.567   2.106 -0.3802 -0.2126 -0.2749
   91MOL   C11738097   7.443   0.527   2.012  0.4959 -0.6593  0.1266
   91MOL   H11838098   7.640   0.537   1.928  0.4481 -0.1525  0.4018
   91MOL   H11938099   7.784   0.471   2.078 -0.8126 -0.1260 -0.0586
   91MOL   H12038100   7.802   0.592   2.214 -2.0682  0.2383  0.1732
   91MOL   H12138101   7.956   0.694   1.801  0.1391  1.3569  0.7519
   91MOL   H12238102   0.198   0.623   1.742 -0.5663  1.7044  0.9449
   91MOL   H12338103   0.369   0.544   1.914  0.6930  2.6132 -0.2300
   91MOL   H12438104   0.285   0.478   2.133 -1.3912 -0.1657  1.9963
   91MOL   H12538105   0.065   0.559   2.211  1.1731  1.4367  0.2314
   91MOL   H12638106   7.397   0.521   1.913  2.8380  0.1740 -1.0490
   91MOL   H12738107   7.370   0.590   2.063  1.1602  0.0986  0.1528
   91MOL   C12838108   7.455   0.386   2.074  0.0918  0.0630 -0.1918
   91MOL   O12938109   7.432   0.292   1.966 -0.7084 -0.9060 -0.1056
   91MOL   C13038110   7.541   0.221   1.910  0.0215 -0.0543  0.0913
   91MOL   O13138111   7.614   0.297   1.819  0.1704  0.4795 -0.0384
   91MOL   C13238112   7.737   0.249   1.784 -0.4050 -0.1238 -0.1781
   91MOL   C13338113   7.852   0.333   1.772  0.4490  0.1963  0.1564
   91MOL   C13438114   0.004   0.293   1.737  0.0339 -0.7650 -0.0442
   91MOL   C13538115   0.017   0.160   1.701  0.1568 -0.7645  0.4087
   91MOL   C13638116   7.881   0.076   1.694  0.1714 -0.6939 -0.2460
   91MOL   C13738117   7.755   0.115   1.744 -0.1149  0.6355  0.6610
   91MOL   C13838118   7.351   0.379   2.188  0.3836 -0.6387  0.8003
   91MOL   H13938119   7.546   0.366   2.130  0.9686  0.5026 -1.4496
   91MOL   H14038120   7.502   0.128   1.868 -0.4913 -0.0197  0.4861
   91MOL   H14138121   7.615   0.183   1.981  2.1421  2.4742 -0.6609
   91MOL   H14238122   7.850   0.434   1.811 -0.2818  0.7054 -1.1579
   91MOL   H14338123   0.085   0.364   1.736 -1.1279  0.5789 -1.1355
   91MOL   H14438124   0.108   0.118   1.660  1.1676  0.9349  0.8343
   91MOL   H14538125   7.903   7.950   1.663  1.9717 -0.8713  1.4854
   91MOL   H14638126   7.686   0.033   1.747 -0.0305  0.5242 -0.1707
   91MOL   H14738127   7.344   0.464   2.256  1.0280 -0.2806  0.4222
   91MOL   H14838128   7.260   0.368   2.128  1.7517 -0.7257 -1.3060
   91MOL   C14938129   7.371   0.262   2.282 -0.2843  0.1098  0.5253
   91MOL   O15038130   7.492   0.277   2.361  0.0129  0.0372 -0.6117
   91MOL   C15138131   7.551   0.150   2.398  0.1274 -0.4933 -0.2412
   91MOL   O15238132   7.594   0.071   2.287 -0.1337 -0.1124  0.0898
   91MOL   C15338133   7.716   0.090   2.230  0.0458 -0.3711 -0.5167
   91MOL   C15438134   7.797   0.204   2.248 -0.5489  0.0157 -0.3176
   91MOL   C15538135   7.912   0.223   2.164  0.1800  0.3302  0.1489
   91MOL   C15638136   7.951   0.125   2.071 -0.2461 -0.5247  0.1630
   91MOL   C15738137   7.876   0.004   2.066  0.4198  0.1302 -0.1561
   91MOL   C15838138   7.761   7.966   2.142 -0.2310 -0.1343 -0.3202
   91MOL   C15938139   7.258   0.254   2.379  0.5388  0.3617 -0.1045
   91MOL   H16038140   7.394   0.171   2.225 -1.0936  0.6127 -0.6186
   91MOL   H16138141   7.641   0.171   2.456  1.5360 -1.3594 -2.0646
   91MOL   H16238142   7.492   0.091   2.469 -0.1494 -1.7626 -1.5187
   91MOL   H16338143   7.774   0.285   2.316  1.0786  1.2639 -1.2331
   91MOL   H16438144   7.974   0.309   2.184 -0.5852  1.0799 -0.6412
   91MOL   H16538145   0.057   0.150   2.005 -1.0896  1.9307 -0.0037
   91MOL   H16638146   7.897   7.904   1.992 -1.6723  0.2446 -0.8985
   91MOL   H16738147   7.704   7.876   2.122  0.5673 -1.1429  1.7746
   91MOL   H16838148   7.235   0.358   2.400 -1.3266  0.1955 -1.1242
   91MOL   H16938149   7.305   0.192   2.455 -0.4904  0.1019  0.3339
   91MOL   C17038150   7.126   0.177   2.336 -0.5664 -0.1750  0.0741
   91MOL   O17138151   7.164   0.048   2.289 -0.6844 -0.2464  0.4010
   91MOL   C17238152   7.109   0.009   2.171  0.1469  0.0918 -0.1283
   91MOL   O17338153   7.127   7.844   2.166 -1.0084 -0.2481 -0.1758
   91MOL   C17438154   7.110   7.781   2.047 -0.0740  0.1717  0.7534
   91MOL   C17538155   7.170   7.661   2.019  0.0627  0.2126  0.1533
   91MOL   C17638156   7.131   7.598   1.905  0.7675  0.3358 -0.4396
   91MOL   C17738157   7.036   7.645   1.814  0.3676 -0.1157 -0.6103
   91MOL   C17838158   6.982   7.766   1.841 -0.5791  0.3464 -0.5882
   91MOL   C17938159   7.021   7.835   1.955  0.3410  0.0376  0.1323
   91MOL   C18038160   7.026   0.153   2.447 -0.2889 -0.9900  0.1612
   91MOL   H18138161   7.081   0.245   2.264 -2.2485 -0.7234  0.5958
   91MOL   H18238162   7.159   0.065   2.091  2.1494 -1.4015  0.0402
   91MOL   H18338163   7.002   0.026   2.173  0.6100  3.1898  1.4988
   91MOL   H18438164   7.253   7.629   2.079 -0.3541  0.0716  0.6591
   91MOL   H18538165   7.182   7.507   1.880  0.8931 -0.4624  2.4746
   91MOL   H18638166   7.020   7.596   1.719  0.2781 -0.2047 -0.5490
   91MOL   H18738167   6.911   7.815   1.775 -2.1755 -0.8281  0.2389
   91MOL   H18838168   6.965   7.925   1.976  0.4993  0.2498 -0.3290
   91MOL   H18938169   7.049   0.063   2.504 -1.4827 -0.4433  1.5112
   91MOL   H19038170   7.016   0.245   2.504 -1.5608 -1.6502  1.0210
   91MOL   C19138171   6.886   0.122   2.409  0.1979  0.5731 -0.0569
   91MOL   O19238172   6.847   0.244   2.355  0.1120  0.4009  0.4844
   91MOL   C19338173   6.748   0.255   2.256  0.2178 -0.2950  0.0101
   91MOL   O19438174   6.803   0.209   2.137 -0.2571 -0.0087 -0.5020
   91MOL   C19538175   6.892   0.283   2.068 -0.3948 -0.0503 -0.0481
   91MOL   C19638176   6.942   0.404   2.110 -0.0752  0.1726  0.1564
   91MOL   C19738177   7.044   0.470   2.029  0.0137 -0.0982  0.0316
   91MOL   C19838178   7.100   0.401   1.916  0.7150  0.0643  0.5243
   91MOL   C19938179   7.044   0.280   1.876  0.3359  0.0060  0.1228
   91MOL   C20038180   6.943   0.222   1.947 -0.3428 -0.4455 -0.6050
   91MOL   C20138181   6.791   0.073   2.523  0.0157  0.4851 -0.3765
   91MOL   H20238182   6.877   0.046   2.332 -0.3304  0.0648  0.4946
   91MOL   H20338183   6.715   0.358   2.246 -1.5752 -0.5347  2.9438
   91MOL   H20438184   6.652   0.207   2.277 -0.1526  0.4054 -0.0923
   91MOL   H20538185   6.897   0.454   2.195  0.8093  1.5184 -0.1537
   91MOL   H20638186   7.076   0.569   2.057 -0.3271 -0.6231  2.3806
   91MOL   H20738187   7.173   0.446   1.851  0.1670 -0.8342 -0.7143
   91MOL   H20838188   7.079   0.232   1.785  0.9422  1.2701 -0.3233
   91MOL   H20938189   6.893   0.135   1.907 -1.8350  0.2418 -0.2987
   91MOL   H21038190   6.820   0.111   2.621 -0.6476 -0.1446  0.0686
   91MOL   H21138191   6.692   0.109   2.498 -0.5528  0.3623  1.6411
   91MOL   C21238192   6.794   7.900   2.526 -0.3282 -0.5695  0.1186
   91MOL   O21338193   6.926   7.850   2.563  0.3766  0.0898 -0.2074
   91MOL   C21438194   6.976   7.748   2.488  0.4515 -0.2424  0.3361
   91MOL   O21538195   6.912   7.633   2.514 -0.1659 -0.3363  0.3716
   91MOL   C21638196   6.936   7.527   2.421 -0.3654 -0.2735 -0.3275
   91MOL   C21738197   7.020   7.537   2.305  0.4745  0.7721 -0.4323
   91MOL   C21838198   7.029   7.426   2.214  0.1319 -0.0356 -0.3773
   91MOL   C21938199   6.944   7.315   2.234  0.0057 -0.3232 -0.3158
   91MOL   C22038200   6.863   7.307   2.344  0.0921 -0.2094  0.3426
   91MOL   C22138201   6.858   7.410   2.441 -0.4300 -0.1527  0.1305
   91MOL   C22238202   6.684   7.834   2.608 -0.1811  0.0560  0.2600
   91MOL   H22338203   6.783   7.869   2.423  2.0086  2.0891 -0.9997
   91MOL   H22438204   7.082   7.734   2.512  0.5463  1.0072  0.6446
   91MOL   H22538205   6.975   7.788   2.387 -3.0457 -1.7943 -0.2983
   91MOL   H22638206   7.075   7.629   2.292  1.1937  0.3668 -0.2373
   91MOL   H22738207   7.105   7.417   2.137 -0.1416 -0.4244 -0.5970
   91MOL   H22838208   6.945   7.239   2.157  1.4018 -1.7352  1.0699
   91MOL   H22938209   6.797   7.223   2.361  2.7868 -2.2051  1.3665
   91MOL   H23038210   6.794   7.393   2.526  0.6288 -2.5105  0.4797
   91MOL   H23138211   6.721   7.741   2.650 -1.7081  0.5662  2.8796
   91MOL   H23238212   6.661   7.890   2.699 -1.3984 -2.1207  1.3278
   91MOL   C23338213   6.549   7.803   2.537 -0.5050  0.6420  0.6684
   91MOL   O23438214   6.572   7.677   2.475 -0.2607  0.1423 -0.5928
   91MOL   C23538215   6.463   7.643   2.391 -0.8258 -0.3259  0.7245
   91MOL   O23638216   6.353   7.582   2.453 -0.0171 -0.7577 -0.1476
   91MOL   C23738217   6.364   7.452   2.493 -0.0311 -0.9044 -0.0969
   91MOL   C23838218   6.480   7.393   2.546  0.5734  0.8408 -0.8838
   91MOL   C23938219   6.481   7.256   2.578 -0.3841  0.3543  0.3676
   91MOL   C24038220   6.363   7.182   2.572 -0.6754 -0.3453  0.2025
   91MOL   C24138221   6.244   7.245   2.530  0.5908 -0.1413 -0.2137
   91MOL   C24238222   6.249   7.374   2.481 -0.2164 -0.1186  1.1061
   91MOL   C24338223   6.426   7.803   2.645  0.5808 -0.1453  0.4587
   91MOL   H24438224   6.525   7.883   2.467 -0.5881  0.7746  0.8501
   91MOL   H24538225   6.506   7.565   2.328 -0.3761  1.3729 -1.1190
   91MOL   H24638226   6.422   7.723   2.330  1.3967  0.2938 -0.0056
   91MOL   H24738227   6.570   7.445   2.577  0.4526  0.6935 -0.2826
   91MOL   H24838228   6.569   7.205   2.615 -0.5788  0.2142  0.6353
   91MOL   H24938229   6.361   7.079   2.605  2.6209 -1.1271 -1.8162
   91MOL   H25038230   6.152   7.191   2.513  0.5498 -0.1666  0.0856
   91MOL   H25138231   6.162   7.422   2.438 -0.3709 -0.3105  1.2083
   91MOL   H25238232   6.351   7.728   2.622  1.3758 -0.8200  0.0256
   91MOL   H25338233   6.465   7.774   2.743 -2.0075  1.1906  1.9094
   91MOL   C25438234   6.375   7.944   2.660  0.3037  0.0344 -0.0859
   91MOL   O25538235   6.264   7.975   2.574  0.0791 -0.1025 -0.4666
   91MOL   C25638236   6.286   0.029   2.441  0.4834 -0.1210 -0.4981
   91MOL   O25738237   6.347   0.153   2.435  0.0630 -0.8506 -0.4933
   91MOL   C25838238   6.383   0.208   2.312 -0.0651 -0.2818 -0.1881
   91MOL   C25938239   6.430   0.340   2.312  0.1689 -0.0605  0.2750
   91MOL   C26038240   6.452   0.407   2.189  0.1352 -0.2998  0.2452
   91MOL   C26138241   6.439   0.341   2.066  0.1577 -0.4034  0.3232
   91MOL   C26238242   6.392   0.211   2.071  0.2675 -0.0297  0.2062
   91MOL   C26338243   6.360   0.145   2.189  0.1568 -0.0389 -0.0630
   91MOL   C26438244   6.300   7.960   2.796 -0.0834  0.1475 -0.6253
   91MOL   H26538245   6.455   0.041   2.645 -1.7747  2.2728 -0.6769
   91MOL   H26638246   6.194   0.038   2.384 -1.0025  1.5772  2.0910
   91MOL   H26738247   6.345   7.927   2.392  0.8908 -1.3107  1.7972
   91MOL   H26838248   6.438   0.379   2.412  0.2504  0.8953 -0.0987
   91MOL   H26938249   6.478   0.512   2.190  0.0313 -0.2537 -1.7722
   91MOL   H27038250   6.454   0.390   1.971  0.9843 -1.8421 -0.2950
   91MOL   H27138251   6.386   0.149   1.984 -2.4441 -0.0382  0.3497
   91MOL   H27238252   6.325   0.043   2.176  0.6218 -0.2352  0.1974
   91MOL   H27338253   6.225   7.881   2.799 -0.2590  0.3033 -0.9184
   91MOL   H27438254   6.361   7.922   2.878 -2.8494  0.0196  1.4051
   91MOL   C27538255   6.250   0.125   2.830  0.0719  0.4749  0.0878
   91MOL   O27638256   6.166   0.112   2.947 -1.0385 -0.3451  1.2151
   91MOL   C27738257   6.038   0.060   2.930  0.6780  0.2688  0.5146
   91MOL   O27838258   5.968   0.138   2.841 -0.6236  0.2629 -0.1091
   91MOL   C27938259   5.919   0.255   2.877 -0.5499 -0.0193  0.4084
   91MOL   C28038260   5.967   0.327   2.995 -0.8032  0.5894 -0.2215
   91MOL   C28138261   5.913   0.445   3.037  0.0281  0.0116  0.4059
   91MOL   C28238262   5.809   0.505   2.963 -0.0531  0.6412  0.1516
   91MOL   C28338263   5.765   0.450   2.844  0.5638  0.6087  0.4102
   91MOL   C28438264   5.809   0.320   2.806 -0.2589  1.0324  1.1659
   91MOL   C28538265   6.382   0.211   2.865  0.3609  0.0935 -0.2202
   91MOL   H28638266   6.196   0.168   2.745 -2.0781  0.7667  1.5691
   91MOL   H28738267   5.990   0.071   3.028  1.1520  2.4872  0.5309
   91MOL   H28838268   6.042   7.929   2.910  1.8833  0.6532 -1.4181
   91MOL   H28938269   6.042   0.289   3.062 -1.4140 -0.7314 -0.2728
   91MOL   H29038270   5.940   0.496   3.128 -1.3952 -3.9616  3.1622
   91MOL   H29138271   5.763   0.590   3.011 -0.9281  0.4085 -0.2435
   91MOL   H29238272   5.679   0.491   2.792 -1.1879 -2.5112  0.7531
   91MOL   H29338273   5.773   0.285   2.710  1.8966  1.2185  0.2497
   91MOL   H29438274   6.458   0.206   2.787 -1.2686 -0.1720 -1.8229
   91MOL   H29538275   6.434   0.180   2.955  0.0417 -0.0150 -0.0719
   91MOL   C29638276   6.351   0.365   2.875 -0.4403 -0.1473 -0.4332
   91MOL   O29738277   6.467   0.430   2.922  0.0510 -0.2067 -0.0190
   91MOL   C29838278   6.461   0.472   3.050  0.4461  0.2731  0.1934
   91MOL   O29938279   6.466   0.367   3.147  0.1478  0.1303 -0.3354
   91MOL   C30038280   6.586   0.349   3.209  0.1401  0.2578  0.3323
   91MOL   C30138281   6.705   0.370   3.138 -0.0729 -0.0851  0.4099
   91MOL   C30238282   6.829   0.345   3.205 -0.1922  0.5152  1.1547
   91MOL   C30338283   6.833   0.294   3.335 -0.0578 -0.5034  0.3033
   91MOL   C30438284   6.713   0.259   3.399 -0.1020 -0.5597  0.2574
   91MOL   C30538285   6.589   0.289   3.334 -0.0333 -0.6427  0.1450
   91MOL   C30638286   6.320   0.437   2.745 -0.0115  0.2731  0.3096
   91MOL   H30738287   6.262   0.376   2.937  0.2000  1.4558  0.2522
   91MOL   H30838288   6.368   0.528   3.062 -0.4211 -0.7723 -1.4995
   91MOL   H30938289   6.526   0.557   3.073  1.8399 -0.4828 -0.8618
   91MOL   H31038290   6.699   0.388   3.031  1.3814 -1.8282  0.0210
   91MOL   H31138291   6.915   0.365   3.144 -0.8862 -1.1041 -0.4107
   91MOL   H31238292   6.928   0.281   3.385 -1.1142  0.0691  2.5014
   91MOL   H31338293   6.712   0.219   3.500  0.3310 -0.0190  0.4810
   91MOL   H31438294   6.495   0.262   3.382 -0.8351 -0.2444 -1.1808
   91MOL   H31538295   6.240   0.377   2.703 -0.5597  1.0810  0.1788
   91MOL   H31638296   6.402   0.441   2.674  0.6514  0.7823  1.0928
   91MOL   C31738297   6.257   0.575   2.780  0.0769  0.1541 -0.4721
   91MOL   O31838298   6.188   0.624   2.665  0.0096 -0.2536 -0.0005
   91MOL   C31938299   6.060   0.586   2.645 -0.0702 -0.3032 -0.8743
   91MOL   O32038300   6.035   0.450   2.622 -0.2184  0.1327  0.3820
   91MOL   C32138301   6.030   0.408   2.489  0.1951  0.1194 -0.3281
   91MOL   C32238302   6.101   0.476   2.386  0.5485  0.3620  0.9381
   91MOL   C32338303   6.111   0.425   2.252 -0.0369 -0.4417 -0.0397
   91MOL   C32438304   6.037   0.309   2.211 -0.0575 -0.7642  0.4796
   91MOL   C32538305   5.980   0.239   2.319 -0.3487  0.4201 -0.2482
   91MOL   C32638306   5.971   0.286   2.455  0.2117  0.6901 -0.2296
   91MOL   C32738307   6.351   0.689   2.816 -0.5310  0.1257 -0.1227
   91MOL   H32838308   6.191   0.565   2.866 -0.1435 -2.6658 -0.9329
   91MOL   H32938309   6.019   0.645   2.563 -0.6195 -0.4534 -0.7157
   91MOL   H33038310   5.996   0.609   2.731 -0.3381 -1.6930 -0.6795
   91MOL   H33138311   6.157   0.564   2.412  1.4114 -0.3036  1.3644
   91MOL   H33238312   6.171   0.487   2.186 -1.3548  0.6770 -0.2069
   91MOL   H33338313   6.048   0.278   2.108  1.8847  0.4321  0.3093
   91MOL   H33438314   5.924   0.150   2.296  0.6169 -0.4530  0.6958
   91MOL   H33538315   5.928   0.226   2.534  1.0344 -0.6489 -0.7705
   91MOL   H33638316   6.442   0.668   2.873 -0.2232 -0.3213 -0.7872
   91MOL   H33738317   6.408   0.722   2.729 -0.8059 -0.4086 -0.5056
   91MOL   C33838318   6.269   0.806   2.871 -0.2491  0.3258 -0.3748
   91MOL   O33938319   6.206   0.767   2.988 -0.2909  0.3984  0.1313
   91MOL   C34038320   6.080   0.821   3.018  0.2201  0.1038 -0.3703
   91MOL   O34138321   6.068   0.959   3.024 -0.0560  0.5869 -0.2985
   91MOL   C34238322   5.957   1.013   3.081  0.0093  0.2974  0.3184
   91MOL   C34338323   5.966   1.129   3.163  0.3528  1.3831  0.1297
   91MOL   C34438324   5.858   1.177   3.239 -0.4893  0.4431 -0.2368
   91MOL   C34538325   5.735   1.109   3.223  0.0332 -0.8833 -0.4154
   91MOL   C34638326   5.718   1.009   3.131 -0.2257  0.5304  0.0868
   91MOL   C34738327   5.828   0.956   3.069  0.0458  0.2297  0.1463
   91MOL   C34838328   6.362   0.922   2.915  0.1030 -0.3422 -0.2724
   91MOL   H34938329   6.197   0.844   2.798  1.1777  0.2240 -1.8514
   91MOL   H35038330   6.061   0.775   3.115  0.6629 -0.9042 -0.7476
   91MOL   H35138331   6.020   0.775   2.940 -0.4757  1.3355 -0.5653
   91MOL   H35238332   6.060   1.181   3.153  0.1062  1.6970 -0.5900
   91MOL   H35338333   5.863   1.258   3.310 -1.9666  0.5396 -0.2145
   91MOL   H35438334   5.646   1.134   3.279  1.5003  0.4957  1.3767
   91MOL   H35538335   5.627   0.953   3.121 -1.1238  1.2751  3.3457
   91MOL   H35638336   5.804   0.865   3.016 -1.2940  0.2155  0.7476
   91MOL   H35738337   6.449   0.899   2.976  2.0122  0.6382 -2.5761
   91MOL   H35838338   6.313   0.998   2.976  0.2169  0.8720 -1.6536
   91MOL   C35938339   6.399   1.008   2.787 -0.4022  0.9236 -0.3401
   91MOL   O36038340   6.522   1.070   2.821  0.7256  0.1482 -0.9855
   91MOL   C36138341   6.634   0.994   2.845 -0.7330  0.1806  0.6085
   91MOL   O36238342   6.667   0.968   2.981 -0.4055 -0.0393  0.7236
   91MOL   C36338343   6.755   0.865   3.005  0.1117  0.2745  0.4917
   91MOL   C36438344   6.725   0.774   3.102  1.0035 -0.6989 -0.2513
   91MOL   C36538345   6.818   0.672   3.137  0.4783  0.2507  0.3306
   91MOL   C36638346   6.930   0.652   3.053  0.3994  0.1567  0.1732
   91MOL   C36738347   6.957   0.739   2.947  0.2905  0.0256 -0.1031
   91MOL   C36838348   6.874   0.848   2.933  0.1296 -0.1733  0.3661
   91MOL   C36938349   6.300   1.119   2.758  0.0149 -0.3518 -0.1627
   91MOL   H37038350   6.415   0.941   2.702 -0.3821 -1.3466  1.3952
   91MOL   H37138351   6.719   1.053   2.808 -2.4591  2.7645  0.6052
   91MOL   H37238352   6.633   0.902   2.787 -0.3146 -0.5224  1.7130
   91MOL   H37338353   6.633   0.792   3.154  0.8694  0.1759 -0.7779
   91MOL   H37438354   6.798   0.606   3.219 -0.4074 -0.4788 -0.4608
   91MOL   H37538355   6.993   0.569   3.080 -1.0490 -1.2967 -0.7753
   91MOL   H37638356   7.044   0.730   2.884  0.7973  0.4639  0.5392
   91MOL   H37738357   6.893   0.925   2.860 -1.1330 -0.1378  0.0491
   91MOL   H37838358   6.339   1.221   2.758  0.3575 -0.4752  0.4642
   91MOL   H37938359   6.235   1.129   2.846 -2.5366  1.1757 -2.1375
   91MOL   C38038360   6.211   1.105   2.631  0.2000  1.1087  0.5623
   91MOL   O38138361   6.288   1.143   2.519  0.3451 -0.7078 -0.0523
   91MOL   C38238362   6.242   1.076   2.403 -0.3838 -0.2490 -0.2533
   91MOL   O38338363   6.256   0.941   2.400  0.0621 -0.3038 -0.2195
   91MOL   C38438364   6.387   0.897   2.419 -0.4377 -0.6927  0.8729
   91MOL   C38538365   6.499   0.979   2.418 -0.0024  0.0413  0.4504
   91MOL   C38638366   6.628   0.925   2.438 -0.3329  0.0248 -0.5343
   91MOL   C38738367   6.643   0.789   2.482 -0.6557 -0.3087  0.0367
   91MOL   C38838368   6.529   0.706   2.484  0.5456  0.0024  0.2394
   91MOL   C38938369   6.405   0.759   2.443  0.2878 -0.2222  0.1230
   91MOL   C39038370   6.098   1.201   2.644 -0.1598  0.8064  0.0345
   91MOL   H39138371   6.167   1.005   2.624  1.4684  0.5537  0.2650
   91MOL   H39238372   6.142   1.116   2.386 -0.5020 -0.6958 -0.5977
   91MOL   H39338373   6.293   1.120   2.317 -2.7511 -2.3933 -2.8411
   91MOL   H39438374   6.491   1.085   2.400  0.8390  0.4832  2.4997
   91MOL   H39538375   6.703   1.003   2.439 -0.1960 -0.1248  0.9657
   91MOL   H39638376   6.736   0.743   2.512 -0.2135  0.8430  0.4217
   91MOL   H39738377   6.534   0.607   2.525 -0.3623  0.6546  1.9833
   91MOL   H39838378   6.318   0.695   2.447  0.0149  0.0918 -0.7472
   91MOL   H39938379   6.051   1.223   2.548 -1.7401 -1.1129  0.3220
   91MOL   H40038380   6.146   1.295   2.672  0.6626  0.5063 -0.3517
   91MOL   C40138381   5.982   1.162   2.743 -0.0992 -0.1875 -0.1959
   91MOL   O40238382   5.901   1.282   2.748 -0.0336 -0.2845  0.1095
   91MOL   C40338383   5.824   1.302   2.862 -0.2661  0.0985  0.2266
   91MOL   O40438384   5.701   1.237   2.866  0.5744  0.5921 -0.2477
   91MOL   C40538385   5.615   1.248   2.759 -0.1637 -0.3195  0.1539
   91MOL   C40638386   5.633   1.342   2.660 -0.1853  0.0580 -0.5314
   91MOL   C40738387   5.551   1.339   2.551  0.5786 -0.5535  0.2077
   91MOL   C40838388   5.437   1.253   2.546 -0.1403  0.2408  0.7264
   91MOL   C40938389   5.413   1.164   2.653  0.1927  0.1313  0.3523
   91MOL   C41038390   5.508   1.158   2.761 -0.6915 -0.1999  0.1491
   91MOL   C41138391   5.895   1.040   2.708  0.1985  0.2346  0.3285
   91MOL   H41238392   6.021   1.150   2.844  1.2911 -2.3277 -0.9477
   91MOL   H41338393   5.805   1.409   2.852  0.8011  0.4770  1.9596
   91MOL   H41438394   5.873   1.285   2.958 -1.3812  1.4714  1.0656
   91MOL   H41538395   5.718   1.409   2.662 -1.1771  1.4881  5.4885
   91MOL   H41638396   5.567   1.409   2.471 -1.7483  1.4342  1.4083
   91MOL   H41738397   5.372   1.262   2.460  0.8085  3.5133  0.2898
   91MOL   H41838398   5.328   1.097   2.658  1.5426 -1.6642 -0.1226
   91MOL   H41938399   5.499   1.100   2.851 -1.5480  1.1361  0.9541
   91MOL   H42038400   5.946   0.953   2.665  1.7222  1.4285 -0.3288
   91MOL   H42138401   5.834   1.072   2.623  2.2188  1.2356 -0.7785
   91MOL   H42238402   5.826   1.009   2.786 -0.6997 -0.6214 -0.7907
   92MOL     C138403   3.750   1.636   7.363  0.5459 -0.0298 -0.2445
   92MOL     O238404   3.725   1.616   7.502  0.0446 -0.6424 -0.4335
   92MOL     C338405   3.652   1.501   7.521  0.9360  0.0104 -0.3977
   92MOL     O438406   3.519   1.512   7.472 -0.8843 -0.0425 -0.3765
   92MOL     C538407   3.416   1.531   7.562  0.1316  0.0205 -0.3502
   92MOL     C638408   3.404   1.474   7.691  0.0588 -0.3686  0.3081
   92MOL     C738409   3.293   1.507   7.769  0.0077  0.1165 -0.5888
   92MOL     C838410   3.190   1.594   7.721  0.0620 -0.4984 -0.0493
   92MOL     C938411   3.201   1.648   7.594 -0.4504 -0.5259 -0.0706
   92MOL    C1038412   3.312   1.606   7.513 -0.0349  0.1910 -0.6927
   92MOL    C1138413   3.885   1.703   7.351 -0.7273  0.1461  0.5922
   92MOL    H1238414   3.760   1.541   7.310  1.3085 -1.8120  2.9545
   92MOL    H1338415   3.708   1.417   7.479  0.9971  0.1045 -0.5020
   92MOL    H1438416   3.647   1.476   7.627  1.0310  1.3229 -0.0763
   92MOL    H1538417   3.478   1.406   7.729 -0.9389 -0.9875  1.1643
   92MOL    H1638418   3.297   1.477   7.872  4.1645 -0.1347 -0.7317
   92MOL    H1738419   3.104   1.624   7.778 -1.8938 -2.5905 -1.7863
   92MOL    H1838420   3.122   1.713   7.559 -1.5053 -0.3736  2.4671
   92MOL    H1938421   3.330   1.664   7.424 -0.3649  0.9931 -0.2393
   92MOL    H2038422   3.924   1.687   7.250 -0.6610  0.9583  0.4880
   92MOL    H2138423   3.951   1.638   7.408  1.9683  1.4132 -1.0185
   92MOL    H2238424   3.670   1.692   7.316  0.6568  0.8130  0.5641
   92MOL    C2338425   3.884   1.849   7.403  0.5148  0.2888 -0.2022
   92MOL    O2438426   3.815   1.923   7.309 -0.3798 -0.2876  0.4674
   92MOL    C2538427   3.737   2.028   7.348 -1.0241 -0.9297  0.4575
   92MOL    O2638428   3.627   1.972   7.403 -0.1465 -0.4978 -0.2543
   92MOL    C2738429   3.512   2.045   7.405  1.0863 -0.8311 -0.6635
   92MOL    C2838430   3.500   2.183   7.362 -0.2480 -0.3765 -0.9279
   92MOL    C2938431   3.385   2.256   7.382  0.4946  0.1335  0.2934
   92MOL    C3038432   3.266   2.198   7.412 -0.6708 -0.5805  0.1710
   92MOL    C3138433   3.267   2.063   7.451  1.0558 -0.1521  0.5379
   92MOL    C3238434   3.388   1.990   7.451 -0.2714 -0.2549  0.1015
   92MOL    C3338435   4.032   1.900   7.401  0.3512 -0.2911  0.4375
   92MOL    H3438436   3.833   1.857   7.499 -1.0636  0.1322 -0.9994
   92MOL    H3538437   3.709   2.074   7.253 -0.4322  0.2756  0.8650
   92MOL    H3638438   3.789   2.097   7.414 -0.9939 -1.1077  0.6208
   92MOL    H3738439   3.589   2.236   7.331  1.3223 -2.0744  0.5799
   92MOL    H3838440   3.391   2.363   7.368 -1.2447  0.2541  0.4439
   92MOL    H3938441   3.180   2.263   7.420  0.5936  1.0457  0.7060
   92MOL    H4038442   3.173   2.020   7.483 -0.2919  1.3659 -1.2231
   92MOL    H4138443   3.387   1.888   7.486 -1.6420 -1.0996 -2.2701
   92MOL    H4238444   4.069   1.927   7.302 -0.2473  2.7799  1.0014
   92MOL    H4338445   4.093   1.812   7.424 -0.4736 -1.0534 -0.2354
   92MOL    C4438446   4.077   2.001   7.510  0.2507 -0.6837 -0.4254
   92MOL    O4538447   4.026   1.979   7.645 -0.0808 -0.2713 -0.9238
   92MOL    C4638448   4.080   1.874   7.718 -0.6463 -0.5265 -0.1557
   92MOL    O4738449   4.207   1.896   7.767 -0.1577  0.2418 -0.3504
   92MOL    C4838450   4.219   2.017   7.835  0.3229  0.0000  0.5786
   92MOL    C4938451   4.109   2.093   7.881  0.3850  0.3591 -0.2090
   92MOL    C5038452   4.139   2.206   7.956  0.4029  0.4974 -0.0464
   92MOL    C5138453   4.272   2.241   0.007  0.2662 -0.5266  0.1512
   92MOL    C5238454   4.383   2.178   7.925 -0.2430  0.2417  0.1478
   92MOL    C5338455   4.351   2.065   7.844 -0.3488 -0.9059 -0.1610
   92MOL    C5438456   4.052   2.151   7.475  0.4568  0.1414  0.2378
   92MOL    H5538457   4.185   1.983   7.515  0.1328 -2.2011 -2.7236
   92MOL    H5638458   4.087   1.781   7.662 -0.4476  0.2981 -1.5097
   92MOL    H5738459   4.013   1.833   7.795  0.4676 -1.0964  0.5215
   92MOL    H5838460   4.008   2.068   7.856 -0.0829  1.9851 -0.0258
   92MOL    H5938461   4.051   2.261   0.011 -0.9455  0.1048 -3.0020
   92MOL    H6038462   4.301   2.319   0.075 -1.0012 -1.9981  2.4349
   92MOL    H6138463   4.486   2.201   7.948  0.1644 -0.7717 -0.6414
   92MOL    H6238464   4.439   2.008   7.817  0.3097 -0.6162  1.3243
   92MOL    H6338465   4.048   2.169   7.367  3.5348 -2.2561 -0.3605
   92MOL    H6438466   3.961   2.178   7.527  1.0722  2.2940  0.2546
   92MOL    C6538467   4.156   2.237   7.537  0.1826 -0.1166  0.6121
   92MOL    O6638468   4.272   2.262   7.452 -0.1450 -0.7007 -0.0047
   92MOL    C6738469   4.387   2.241   7.524 -0.1184 -0.0760 -0.4587
   92MOL    O6838470   4.407   2.109   7.564 -0.2631  0.4240 -0.0823
   92MOL    C6938471   4.451   2.013   7.466  0.0439 -0.4294 -0.9379
   92MOL    C7038472   4.437   2.032   7.325  0.3698  0.4167  0.1800
   92MOL    C7138473   4.470   1.929   7.233  0.1161  0.0038 -0.3970
   92MOL    C7238474   4.516   1.801   7.284 -0.0963 -0.2736  0.5799
   92MOL    C7338475   4.519   1.775   7.429 -0.4031  0.5777 -0.2471
   92MOL    C7438476   4.491   1.885   7.510 -0.2041 -1.0098  0.0741
   92MOL    C7538477   4.106   2.382   7.577 -0.1062  0.2992  0.6134
   92MOL    H7638478   4.183   2.206   7.638  1.2667 -2.4388 -0.3569
   92MOL    H7738479   4.400   2.319   7.599  0.1495  2.3808 -2.9661
   92MOL    H7838480   4.471   2.265   7.459  0.7633  0.0461  0.7018
   92MOL    H7938481   4.409   2.129   7.285 -1.8539  0.3965  1.6250
   92MOL    H8038482   4.451   1.946   7.128 -0.4279  1.7327 -0.0347
   92MOL    H8138483   4.551   1.726   7.215  1.5006  1.9821 -1.1265
   92MOL    H8238484   4.554   1.679   7.465  2.0956  0.2023 -3.4143
   92MOL    H8338485   4.510   1.870   7.615 -2.5342 -1.4801  0.4428
   92MOL    H8438486   4.025   2.374   7.649 -1.2376  4.8828  0.0121
   92MOL    H8538487   4.191   2.425   7.631 -1.0143  2.2499  0.5256
   92MOL    C8638488   4.048   2.462   7.464 -0.0322 -0.3507  0.0807
   92MOL    O8738489   3.920   2.409   7.423 -0.0054 -0.3173  0.2310
   92MOL    C8838490   3.903   2.399   7.281  0.5798 -0.2985 -0.5620
   92MOL    O8938491   3.906   2.515   7.212 -0.1279  0.5364 -0.3571
   92MOL    C9038492   3.788   2.587   7.205  0.0434  1.0293  0.0310
   92MOL    C9138493   3.769   2.667   7.095 -0.3893 -0.4638  0.4448
   92MOL    C9238494   3.658   2.758   7.101 -0.1836 -0.5872 -0.5084
   92MOL    C9338495   3.566   2.766   7.199  0.0612  0.1314  0.0461
   92MOL    C9438496   3.578   2.666   7.306  0.1052 -0.4608 -0.6239
   92MOL    C9538497   3.693   2.589   7.312  0.2157  0.3447  0.1416
   92MOL    C9638498   4.029   2.612   7.501 -0.8260  0.0013  0.4371
   92MOL    H9738499   4.118   2.447   7.382  0.0990  0.6552 -0.0003
   92MOL    H9838500   3.811   2.347   7.254  0.2216  0.6168 -1.1371
   92MOL    H9938501   3.993   2.350   7.244  1.3285  0.3385  0.4041
   92MOL   H10038502   3.834   2.661   7.009 -0.8433 -2.5075  0.2123
   92MOL   H10138503   3.645   2.828   7.020  0.5000 -0.6787 -0.7019
   92MOL   H10238504   3.475   2.825   7.200  0.0866  0.1678  0.9975
   92MOL   H10338505   3.500   2.669   7.380  0.4258  0.6231 -0.3237
   92MOL   H10438506   3.699   2.530   7.402 -0.2915 -0.5753 -0.4235
   92MOL   H10538507   3.970   2.648   7.417  0.9369  2.9668  0.4236
   92MOL   H10638508   3.968   2.608   7.592  0.0060 -2.0128  0.9529
   92MOL   C10738509   4.155   2.697   7.517  0.4309  0.1218  0.6608
   92MOL   O10838510   4.111   2.832   7.495  0.1910 -0.0915 -0.0017
   92MOL   C10938511   4.152   2.880   7.372 -0.4662  0.4199  0.9814
   92MOL   O11038512   4.128   3.014   7.368  0.4399  0.6495  0.0234
   92MOL   C11138513   3.999   3.047   7.337 -0.4733  0.0798 -0.0359
   92MOL   C11238514   3.977   3.175   7.279  0.4077 -0.0288  0.1827
   92MOL   C11338515   3.846   3.223   7.257  0.2830 -0.4040  0.1006
   92MOL   C11438516   3.733   3.142   7.303 -0.5606 -0.2399  0.8873
   92MOL   C11538517   3.757   3.015   7.364 -0.8224  0.5031  0.6930
   92MOL   C11638518   3.886   2.967   7.377  0.7476 -0.1768 -0.3162
   92MOL   C11738519   4.212   2.698   7.658 -0.2398 -0.3236  0.1272
   92MOL   H11838520   4.228   2.669   7.440  0.8214  0.3775  0.9349
   92MOL   H11938521   4.118   2.830   7.281  1.1252  2.6796 -0.9242
   92MOL   H12038522   4.260   2.868   7.359 -0.8769 -0.6325 -2.0558
   92MOL   H12138523   4.064   3.235   7.260 -0.0554  0.1586 -1.4401
   92MOL   H12238524   3.832   3.322   7.217 -2.4021 -1.3909 -1.5785
   92MOL   H12338525   3.635   3.186   7.293 -0.2795  0.0014 -0.9133
   92MOL   H12438526   3.679   2.959   7.413  0.6627  0.7853  3.4650
   92MOL   H12538527   3.902   2.874   7.429 -1.0598 -0.8796 -0.9856
   92MOL   H12638528   4.169   2.615   7.715 -2.5964 -0.0899 -1.2500
   92MOL   H12738529   4.182   2.790   7.708  0.6106 -0.5833  1.1421
   92MOL   C12838530   4.371   2.679   7.653  0.3359  0.1149 -0.6960
   92MOL   O12938531   4.418   2.579   7.560  0.6026  0.5767  0.1895
   92MOL   C13038532   4.535   2.599   7.481  0.2386 -0.6164  0.6095
   92MOL   O13138533   4.520   2.689   7.379  0.0308 -0.1064 -0.5041
   92MOL   C13238534   4.443   2.648   7.273 -0.4767  0.0542  0.0570
   92MOL   C13338535   4.443   2.729   7.154 -0.0941 -0.0779 -0.8883
   92MOL   C13438536   4.370   2.692   7.036 -0.2618  0.2408  0.3772
   92MOL   C13538537   4.306   2.564   7.035  0.3907 -0.1462 -0.6490
   92MOL   C13638538   4.306   2.485   7.153  0.4147  0.2329  0.1967
   92MOL   C13738539   4.368   2.530   7.270  0.0514  0.8867 -0.7640
   92MOL   C13838540   4.428   2.659   7.803 -0.1622  0.3432  0.0927
   92MOL   H13938541   4.418   2.773   7.624  2.0563 -0.1726  0.9646
   92MOL   H14038542   4.579   2.510   7.437 -2.3934 -0.3657 -2.7174
   92MOL   H14138543   4.611   2.644   7.546  0.9335  0.4188 -0.8809
   92MOL   H14238544   4.499   2.821   7.149 -0.1688  0.1247  1.5304
   92MOL   H14338545   4.366   2.758   6.950 -1.7883 -1.6124 -1.0188
   92MOL   H14438546   4.252   2.542   6.944 -1.4867  2.4415 -0.2445
   92MOL   H14538547   4.247   2.395   7.143 -2.0537  1.9232 -1.1513
   92MOL   H14638548   4.340   2.472   7.357 -2.5806  0.0174 -2.1068
   92MOL   H14738549   4.349   2.612   7.863 -0.3606  1.0555  0.3891
   92MOL   H14838550   4.510   2.587   7.798 -0.3625  0.2609 -2.7858
   92MOL   C14938551   4.457   2.794   7.874  0.6626  0.1533  0.3095
   92MOL   O15038552   4.332   2.865   7.883  0.1817 -0.3630 -0.0562
   92MOL   C15138553   4.349   2.999   7.863 -0.7403  0.4665  0.3437
   92MOL   O15238554   4.357   3.029   7.727  0.3316  0.4955  0.1275
   92MOL   C15338555   4.477   3.089   7.679  0.7912  0.0474 -0.1704
   92MOL   C15438556   4.538   3.195   7.742  0.4891 -1.1584  0.3582
   92MOL   C15538557   4.653   3.245   7.683  0.3099  0.5698 -0.8866
   92MOL   C15638558   4.696   3.209   7.553  0.0439  0.0694 -0.5127
   92MOL   C15738559   4.635   3.092   7.496 -0.1732 -0.0304 -0.1166
   92MOL   C15838560   4.526   3.039   7.559  0.1559 -0.0398  0.5042
   92MOL   C15938561   4.512   2.782   0.040 -0.0428  0.6460 -0.0712
   92MOL   H16038562   4.540   2.841   7.821  0.1322 -0.0913 -0.7426
   92MOL   H16138563   4.252   3.047   7.880 -0.6592  0.6505  0.2803
   92MOL   H16238564   4.423   3.039   7.932 -0.6993  0.3768  0.3519
   92MOL   H16338565   4.503   3.237   7.835 -0.4125  0.0450 -0.5107
   92MOL   H16438566   4.695   3.337   7.720  0.6251  0.9065 -2.0510
   92MOL   H16538567   4.768   3.264   7.494 -0.0274 -0.1347 -0.7869
   92MOL   H16638568   4.662   3.062   7.396  1.0107  0.1363  0.1400
   92MOL   H16738569   4.468   2.966   7.504  1.0569 -0.6908  0.4006
   92MOL   H16838570   4.426   2.768   0.105  2.0415  1.3443  2.9268
   92MOL   H16938571   4.561   2.877   0.061  2.7114 -1.0456  1.4487
   92MOL   C17038572   4.619   2.674   0.067 -0.0523  0.6752  0.6615
   92MOL   O17138573   4.741   2.709   0.009  0.1902 -0.2278  0.2264
   92MOL   C17238574   4.818   2.603   7.936  0.7717 -0.4860  0.5173
   92MOL   O17338575   4.761   2.580   7.812 -0.4030 -0.3857 -0.0946
   92MOL   C17438576   4.791   2.461   7.749  0.2375  0.5732  0.8917
   92MOL   C17538577   4.691   2.367   7.720  0.3921  0.6834 -0.0195
   92MOL   C17638578   4.724   2.249   7.654 -0.2205 -0.9074  0.2169
   92MOL   C17738579   4.861   2.214   7.637 -0.3884  0.2068  0.1163
   92MOL   C17838580   4.958   2.313   7.669  0.2874  0.1081  0.5128
   92MOL   C17938581   4.926   2.437   7.718 -0.0175  0.4884  0.0474
   92MOL   C18038582   4.641   2.671   0.227 -0.2667 -0.1849  0.0281
   92MOL   H18138583   4.582   2.577   0.033 -2.3410  2.1605 -1.2679
   92MOL   H18238584   4.805   2.513   0.021  1.8159 -0.1195  1.2958
   92MOL   H18338585   4.926   2.615   7.924  0.7897 -1.6427 -0.5466
   92MOL   H18438586   4.585   2.386   7.733  0.1916  0.7835 -1.7349
   92MOL   H18538587   4.648   2.177   7.630 -1.6403  0.3285  0.8594
   92MOL   H18638588   4.888   2.117   7.598 -0.6938  0.5302 -0.9010
   92MOL   H18738589   5.062   2.292   7.652  0.5296  0.5041  1.5074
   92MOL   H18838590   5.010   2.501   7.744  1.9810 -2.0279  0.0195
   92MOL   H18938591   4.726   2.608   0.252 -0.5004 -0.8783 -0.9216
   92MOL   H19038592   4.664   2.772   0.260 -1.5599  0.4381 -0.9014
   92MOL   C19138593   4.525   2.604   0.314  0.6624 -0.2508  0.2185
   92MOL   O19238594   4.556   2.637   0.448 -0.0070 -0.1962  0.2487
   92MOL   C19338595   4.504   2.756   0.498  0.5636 -0.0910  0.1718
   92MOL   O19438596   4.366   2.778   0.489 -0.6606 -0.1488  0.1621
   92MOL   C19538597   4.277   2.713   0.569  0.5519 -0.3116  0.0400
   92MOL   C19638598   4.146   2.760   0.581  0.2499  0.2288 -0.5544
   92MOL   C19738599   4.053   2.690   0.659  0.6058  0.6801 -0.1925
   92MOL   C19838600   4.086   2.570   0.720  0.0847  0.3368 -0.3835
   92MOL   C19938601   4.216   2.527   0.723 -0.0575 -0.8071  0.0217
   92MOL   C20038602   4.308   2.599   0.649  0.4104  0.1385 -0.5988
   92MOL   C20138603   4.498   2.459   0.271  0.7476  0.5697 -0.0144
   92MOL   H20238604   4.434   2.656   0.286  1.9030  0.4710 -2.7172
   92MOL   H20338605   4.559   2.835   0.447  0.9258 -0.7525 -0.4765
   92MOL   H20438606   4.531   2.765   0.603 -0.3545 -2.6213  0.6647
   92MOL   H20538607   4.106   2.844   0.526 -3.0636 -0.9554 -0.0962
   92MOL   H20638608   3.958   2.738   0.677 -0.3495  0.2910 -3.7581
   92MOL   H20738609   4.016   2.513   0.779  1.5208 -1.4817 -0.3831
   92MOL   H20838610   4.243   2.434   0.770  0.2576  0.0818  1.6680
   92MOL   H20938611   4.407   2.559   0.661  1.0080  0.9883 -2.5265
   92MOL   H21038612   4.472   2.443   0.167 -0.4194 -4.5155  0.9201
   92MOL   H21138613   4.588   2.400   0.289  1.2117  0.8506 -1.3453
   92MOL   C21238614   4.388   2.396   0.365  1.1481  0.3628 -0.7328
   92MOL   O21338615   4.271   2.442   0.303 -0.6329  0.6053  0.0243
   92MOL   C21438616   4.156   2.435   0.374  0.2385  0.7358 -0.3464
   92MOL   O21538617   4.098   2.313   0.344  0.0972 -0.6686 -0.8063
   92MOL   C21638618   3.967   2.288   0.376  0.0105 -0.2625 -0.3734
   92MOL   C21738619   3.881   2.381   0.439 -0.4116 -0.4445  0.3898
   92MOL   C21838620   3.743   2.353   0.453  0.2862 -0.3741 -0.0177
   92MOL   C21938621   3.693   2.226   0.412 -0.8883  0.7883 -0.6092
   92MOL   C22038622   3.779   2.134   0.358  0.5246  0.9701  0.6066
   92MOL   C22138623   3.910   2.166   0.333  0.0432 -0.5356 -0.4232
   92MOL   C22238624   4.391   2.241   0.365 -0.5597 -0.6465 -0.5636
   92MOL   H22338625   4.387   2.425   0.470  1.7684  1.1004 -0.9298
   92MOL   H22438626   4.101   2.519   0.333  1.1165  0.8264 -1.3566
   92MOL   H22538627   4.168   2.443   0.482 -3.3774  2.1346  0.0158
   92MOL   H22638628   3.918   2.470   0.486 -1.6966  0.3580 -0.0881
   92MOL   H22738629   3.679   2.420   0.509  0.1626  0.6315 -1.3492
   92MOL   H22838630   3.591   2.206   0.441 -0.3990  0.7867  1.1166
   92MOL   H22938631   3.738   2.037   0.336  0.2775  0.9341  1.2309
   92MOL   H23038632   3.981   2.095   0.294 -0.0377 -1.5972  1.3288
   92MOL   H23138633   4.327   2.203   0.286  0.1391  1.6353 -2.2893
   92MOL   H23238634   4.485   2.203   0.325 -1.0096 -2.8436  0.3834
   92MOL   C23338635   4.344   2.169   0.495 -0.7611 -0.7439 -0.6436
   92MOL   O23438636   4.348   2.028   0.470  0.1695 -0.2674 -0.3193
   92MOL   C23538637   4.226   1.976   0.420 -0.1896 -0.2541  0.5214
   92MOL   O23638638   4.129   1.993   0.513  0.5050  0.3152 -0.0536
   92MOL   C23738639   4.130   1.915   0.625 -0.5638  0.9167 -0.1363
   92MOL   C23838640   4.011   1.905   0.694  0.3368 -0.0910 -0.4681
   92MOL   C23938641   3.994   1.822   0.811 -0.0361  0.2416  0.2454
   92MOL   C24038642   4.104   1.750   0.854 -0.0547 -0.1360  0.4580
   92MOL   C24138643   4.229   1.761   0.787 -0.1975  0.1893  0.5992
   92MOL   C24238644   4.243   1.849   0.673  0.5838  0.1800  0.3781
   92MOL   C24338645   4.428   2.197   0.614 -0.1740  0.3097  0.7558
   92MOL   H24438646   4.243   2.207   0.506  0.3876  2.6050 -1.0141
   92MOL   H24538647   4.234   1.869   0.398 -0.8471 -0.0804 -0.5687
   92MOL   H24638648   4.204   2.031   0.329 -1.5207 -0.3511  0.7820
   92MOL   H24738649   3.921   1.952   0.658 -0.3341 -1.0394 -0.0771
   92MOL   H24838650   3.903   1.815   0.869  0.9988  1.2500  2.0489
   92MOL   H24938651   4.096   1.685   0.940  1.9196 -0.5160  0.3844
   92MOL   H25038652   4.317   1.717   0.830 -0.3416  0.4393  1.1530
   92MOL   H25138653   4.340   1.856   0.625  0.4981 -0.5170  0.1055
   92MOL   H25238654   4.406   2.296   0.655 -2.8472  1.1020 -2.4206
   92MOL   H25338655   4.377   2.130   0.683  1.0395  1.4791  2.8448
   92MOL   C25438656   4.576   2.170   0.598  0.2958 -0.2545 -0.2298
   92MOL   O25538657   4.620   2.306   0.566 -0.1209  0.6477 -0.2641
   92MOL   C25638658   4.748   2.311   0.516  0.0387 -0.0220 -0.0774
   92MOL   O25738659   4.757   2.248   0.392 -0.5274  0.3265  0.2871
   92MOL   C25838660   4.857   2.271   0.301 -0.1474 -0.5681  0.4481
   92MOL   C25938661   4.976   2.341   0.345  0.3188 -0.2401  0.5316
   92MOL   C26038662   5.070   2.375   0.247  0.1587 -0.7559  0.9255
   92MOL   C26138663   5.057   2.345   0.111  0.0898 -0.3880  0.6977
   92MOL   C26238664   4.943   2.269   0.069  0.2908 -0.2143  0.0848
   92MOL   C26338665   4.849   2.228   0.168  0.2306  0.2201 -0.0057
   92MOL   C26438666   4.639   2.113   0.733 -0.2959 -0.5634  0.2330
   92MOL   H26538667   4.593   2.091   0.525  0.9199 -0.5138  0.1866
   92MOL   H26638668   4.824   2.285   0.589 -1.3116  1.0379  1.7323
   92MOL   H26738669   4.749   2.418   0.496  0.4729  0.0301  0.2187
   92MOL   H26838670   4.988   2.384   0.444  1.0903  0.1614  0.2697
   92MOL   H26938671   5.165   2.413   0.282 -0.3263 -1.0142  2.5544
   92MOL   H27038672   5.146   2.365   0.054  1.0318  1.5663  2.8195
   92MOL   H27138673   4.925   2.235   7.944  0.2280  1.4001 -0.4761
   92MOL   H27238674   4.766   2.169   0.131 -0.3734  0.4252  0.9934
   92MOL   H27338675   4.746   2.103   0.717 -0.0212 -0.3153  1.8467
   92MOL   H27438676   4.627   2.194   0.805  1.8554  1.3093 -1.4227
   92MOL   C27538677   4.595   1.981   0.804  0.5327  0.3096  0.8480
   92MOL   O27638678   4.681   1.876   0.772  0.3687  0.5580  0.1246
   92MOL   C27738679   4.642   1.774   0.691  0.2774 -0.0611 -0.7143
   92MOL   O27838680   4.580   1.672   0.762  0.2174 -0.8611  0.0579
   92MOL   C27938681   4.520   1.565   0.703 -0.0233 -0.3770  0.2414
   92MOL   C28038682   4.514   1.551   0.560  0.7455  0.2142  0.3477
   92MOL   C28138683   4.452   1.433   0.516  0.7043 -0.2027  0.0919
   92MOL   C28238684   4.394   1.336   0.607  0.0889 -0.1883  0.8399
   92MOL   C28338685   4.410   1.353   0.745 -0.4455 -0.4615  0.8116
   92MOL   C28438686   4.473   1.468   0.794 -0.4009  0.5627 -0.7865
   92MOL   C28538687   4.588   1.991   0.959  0.1565  0.2697  0.4260
   92MOL   H28638688   4.491   1.965   0.776  0.2926  0.3748  1.6662
   92MOL   H28738689   4.730   1.720   0.656 -0.5298 -1.8405 -0.0032
   92MOL   H28838690   4.595   1.825   0.607 -1.6970  0.0649  0.4489
   92MOL   H28938691   4.563   1.620   0.493 -0.0669 -1.4575 -2.0640
   92MOL   H29038692   4.444   1.416   0.410  0.7249 -0.0450  0.0646
   92MOL   H29138693   4.354   1.245   0.566  3.2839 -0.2835 -2.3220
   92MOL   H29238694   4.367   1.276   0.807 -0.3857 -1.0998  0.0688
   92MOL   H29338695   4.479   1.487   0.900 -2.4368  1.2610 -0.7762
   92MOL   H29438696   4.683   2.035   0.988  0.0385  0.4903  0.4758
   92MOL   H29538697   4.573   1.887   0.985  1.2540  0.3033  1.2014
   92MOL   C29638698   4.467   2.078   1.006  0.5301 -0.2587  0.1947
   92MOL   O29738699   4.350   1.994   0.995  0.6579 -0.7577  0.0583
   92MOL   C29838700   4.230   2.055   1.022  0.0781  0.2716  0.4297
   92MOL   O29938701   4.193   2.132   0.918 -0.0554 -0.0841  0.2216
   92MOL   C30038702   4.060   2.166   0.910 -0.0281  0.1027  0.1169
   92MOL   C30138703   4.009   2.233   0.794 -0.9213 -0.1868 -0.1059
   92MOL   C30238704   3.873   2.255   0.777  0.5979 -0.0137 -0.5231
   92MOL   C30338705   3.781   2.225   0.882  0.2924 -0.0327  0.9252
   92MOL   C30438706   3.827   2.180   1.003 -0.3593 -0.0416 -0.2070
   92MOL   C30538707   3.963   2.147   1.011  0.6294  0.0367 -0.1970
   92MOL   C30638708   4.485   2.134   1.147  0.4886  0.3071 -0.2030
   92MOL   H30738709   4.452   2.160   0.935 -1.9408 -0.7483  0.0910
   92MOL   H30838710   4.222   2.123   1.107  1.7529 -0.9085  1.5661
   92MOL   H30938711   4.164   1.968   1.030  1.6724 -0.8823  1.3463
   92MOL   H31038712   4.076   2.257   0.713 -2.0520 -0.3150 -1.0849
   92MOL   H31138713   3.844   2.300   0.683 -1.3878  0.9184  0.4933
   92MOL   H31238714   3.677   2.247   0.867  0.1184 -1.0513  0.6238
   92MOL   H31338715   3.762   2.167   1.088  1.0615 -0.2378  0.8756
   92MOL   H31438716   3.988   2.112   1.111  1.6456  0.8488 -0.1561
   92MOL   H31538717   4.593   2.141   1.161  0.3006  1.7737  0.7253
   92MOL   H31638718   4.454   2.063   1.223  0.9887  0.2173 -0.0784
   92MOL   C31738719   4.445   2.285   1.165  0.3963  0.1729 -0.1655
   92MOL   O31838720   4.510   2.385   1.082  0.1925  0.3513  0.5197
   92MOL   C31938721   4.427   2.490   1.046 -0.1796 -0.4353 -0.7792
   92MOL   O32038722   4.495   2.580   0.963 -0.0812 -0.3834  0.3570
   92MOL   C32138723   4.449   2.708   0.944  0.0514  0.0924 -0.2404
   92MOL   C32238724   4.325   2.758   1.000 -0.8066  0.4065  1.0636
   92MOL   C32338725   4.286   2.892   0.975 -0.4873  0.7861 -0.2199
   92MOL   C32438726   4.373   2.978   0.907 -0.2005  0.2489  0.6918
   92MOL   C32538727   4.495   2.934   0.857 -1.0088  0.3142  0.4896
   92MOL   C32638728   4.531   2.798   0.880  0.0064 -1.1649  0.7053
   92MOL   C32738729   4.457   2.325   1.313 -0.3960  0.1903 -0.7801
   92MOL   H32838730   4.341   2.299   1.138  0.5381  0.0206 -0.7923
   92MOL   H32938731   4.375   2.532   1.133 -1.0636  0.7614 -1.8720
   92MOL   H33038732   4.360   2.458   0.967 -0.3953  1.4420 -1.3880
   92MOL   H33138733   4.258   2.689   1.049  0.1083 -1.5364 -0.3599
   92MOL   H33238734   4.190   2.924   1.013  0.1536 -0.5107  2.6177
   92MOL   H33338735   4.341   3.079   0.887  0.4515  0.5320  1.0339
   92MOL   H33438736   4.553   3.002   0.797  0.2601 -0.1490  1.1638
   92MOL   H33538737   4.626   2.769   0.838 -0.2580  0.0232 -0.7503
   92MOL   H33638738   4.563   2.322   1.337 -0.8302 -0.2926  1.1302
   92MOL   H33738739   4.422   2.427   1.330 -1.2968  0.1089 -2.0404
   92MOL   C33838740   4.402   2.229   1.424  0.3922 -0.2799  0.4524
   92MOL   O33938741   4.409   2.301   1.542  0.5511  0.0029  0.3107
   92MOL   C34038742   4.492   2.253   1.641 -0.3514 -0.3054 -0.1449
   92MOL   O34138743   4.463   2.123   1.683 -0.1997  0.6365  0.1318
   92MOL   C34238744   4.552   2.070   1.774  0.7821  0.0499  0.1589
   92MOL   C34338745   4.637   2.146   1.856  0.2256 -0.0506  0.4622
   92MOL   C34438746   4.718   2.092   1.954 -0.0827  0.5929 -0.3038
   92MOL   C34538747   4.722   1.950   1.961  0.3695  0.4110  0.3618
   92MOL   C34638748   4.634   1.867   1.887 -0.6740 -0.0014  0.4047
   92MOL   C34738749   4.548   1.929   1.791  0.1634  0.2280 -0.9082
   92MOL   C34838750   4.248   2.186   1.412 -0.1523 -0.4096 -0.1209
   92MOL   H34938751   4.464   2.140   1.423  2.3126  1.0242 -0.3491
   92MOL   H35038752   4.482   2.330   1.718 -0.8910 -0.5742  0.0573
   92MOL   H35138753   4.594   2.254   1.604 -0.0730 -0.1890  0.6030
   92MOL   H35238754   4.636   2.253   1.863 -1.4408  0.0094 -0.4840
   92MOL   H35338755   4.778   2.159   2.014  2.2732 -0.1331 -1.7742
   92MOL   H35438756   4.764   1.897   2.044 -2.3618 -2.0183  0.2735
   92MOL   H35538757   4.625   1.762   1.909  0.5967 -0.0266  0.8078
   92MOL   H35638758   4.484   1.858   1.741 -2.1145  1.6517 -0.0688
   92MOL   H35738759   4.219   2.161   1.310  0.0609 -0.5111 -0.1572
   92MOL   H35838760   4.189   2.273   1.438 -1.0702 -1.4647  1.4123
   92MOL   C35938761   4.203   2.064   1.503  0.1572 -0.1972  0.0817
   92MOL   O36038762   4.295   1.957   1.473  0.0184  0.3759 -0.4204
   92MOL   C36138763   4.288   1.845   1.553 -0.3429  0.1387  0.3981
   92MOL   O36238764   4.191   1.757   1.503  0.5180 -0.0773 -0.8904
   92MOL   C36338765   4.229   1.678   1.395  0.0197  0.0662  0.6790
   92MOL   C36438766   4.190   1.544   1.394 -0.2167 -0.3400  0.0451
   92MOL   C36538767   4.228   1.457   1.287  0.2030 -1.0543 -1.0460
   92MOL   C36638768   4.304   1.506   1.183  0.1371 -0.7109  0.4819
   92MOL   C36738769   4.346   1.638   1.185  0.3014  0.1524 -0.5821
   92MOL   C36838770   4.318   1.722   1.293 -0.2243  0.0582  0.1608
   92MOL   C36938771   4.056   2.019   1.488 -0.0067 -0.1351  0.0862
   92MOL   H37038772   4.212   2.094   1.607  2.7713  1.1584 -0.4752
   92MOL   H37138773   4.276   1.869   1.658 -0.2128  1.5567  0.1023
   92MOL   H37238774   4.391   1.810   1.543  0.1314  1.0225  2.0298
   92MOL   H37338775   4.129   1.507   1.476  0.1447 -0.4205  0.2764
   92MOL   H37438776   4.189   1.357   1.296  0.5929 -1.1662 -0.5761
   92MOL   H37538777   4.339   1.452   1.096 -0.5867 -0.2175 -0.1178
   92MOL   H37638778   4.412   1.670   1.106  0.6323  0.7860 -0.0583
   92MOL   H37738779   4.350   1.825   1.284  2.4592 -0.6473  1.3238
   92MOL   H37838780   4.034   1.935   1.555 -2.7286 -1.1196 -1.9847
   92MOL   H37938781   4.061   1.979   1.387  1.1679 -0.8227  0.4060
   92MOL   C38038782   3.948   2.122   1.488  0.0140  0.3290  0.1028
   92MOL   O38138783   3.934   2.176   1.621  0.0192 -0.1117 -0.2089
   92MOL   C38238784   3.930   2.312   1.641 -0.6116  0.3679  0.3136
   92MOL   O38338785   4.050   2.379   1.607  0.6534  0.3557  0.0024
   92MOL   C38438786   4.141   2.390   1.710  0.4163 -1.2089  0.0063
   92MOL   C38538787   4.147   2.298   1.821  0.0448 -0.2143  0.0283
   92MOL   C38638788   4.235   2.332   1.925 -0.3467  0.2472  0.1650
   92MOL   C38738789   4.314   2.447   1.921  0.1909  0.0453  0.0574
   92MOL   C38838790   4.318   2.530   1.807  0.6396 -0.2599 -0.8358
   92MOL   C38938791   4.228   2.500   1.706 -0.1438 -0.2920  0.8693
   92MOL   C39038792   3.821   2.041   1.440 -0.0640  0.1024 -0.4297
   92MOL   H39138793   3.972   2.200   1.416 -0.0618  0.6517  0.4277
   92MOL   H39238794   3.849   2.351   1.580  1.6030  1.9807 -1.7119
   92MOL   H39338795   3.896   2.318   1.744 -0.0948 -1.4358  0.6025
   92MOL   H39438796   4.094   2.204   1.816 -1.2358  0.4751  0.6485
   92MOL   H39538797   4.245   2.259   2.004  0.1802  0.2084  0.0667
   92MOL   H39638798   4.373   2.464   2.010  0.3640  2.8889 -0.5292
   92MOL   H39738799   4.392   2.608   1.794  0.4227 -0.4663 -3.6352
   92MOL   H39838800   4.215   2.567   1.622  2.1655 -1.7220 -0.6635
   92MOL   H39938801   3.792   1.974   1.520  0.7126 -0.7533 -0.8556
   92MOL   H40038802   3.844   1.980   1.352  0.7437  0.1610 -0.2678
   92MOL   C40138803   3.704   2.139   1.394 -0.2564 -0.0927  0.1997
   92MOL   O40238804   3.763   2.236   1.305 -0.2285 -0.7179  0.0704
   92MOL   C40338805   3.684   2.350   1.278 -0.7426  0.0477  0.3894
   92MOL   O40438806   3.573   2.328   1.199  0.1503  0.9654 -0.4917
   92MOL   C40538807   3.527   2.427   1.117  0.4109 -0.1307 -0.0997
   92MOL   C40638808   3.589   2.554   1.110  0.6613 -0.0313  0.4163
   92MOL   C40738809   3.540   2.653   1.020  0.7744 -0.1518  0.0252
   92MOL   C40838810   3.417   2.637   0.950 -0.4273 -0.4394  0.9264
   92MOL   C40938811   3.351   2.510   0.962  0.1809 -0.0494 -0.6345
   92MOL   C41038812   3.411   2.409   1.040 -0.7137 -0.2196  0.1383
   92MOL   C41138813   3.610   2.053   1.317  0.3749 -0.2638  0.2637
   92MOL   H41238814   3.660   2.187   1.481 -0.2470  1.7479 -0.7842
   92MOL   H41338815   3.761   2.399   1.219  0.7974 -0.5677  1.8472
   92MOL   H41438816   3.645   2.395   1.369 -1.0034 -0.7055  0.6599
   92MOL   H41538817   3.663   2.580   1.184  0.4310 -0.0975  0.6686
   92MOL   H41638818   3.595   2.746   1.029 -1.0468  0.7628  2.4504
   92MOL   H41738819   3.364   2.711   0.893 -1.5786 -1.9035  0.0454
   92MOL   H41838820   3.258   2.488   0.911  0.5938  0.5406 -1.6582
   92MOL   H41938821   3.374   2.307   1.035 -1.4256  0.0163  0.4311
   92MOL   H42038822   3.570   1.964   1.365  0.4907 -0.7700 -0.5682
   92MOL   H42138823   3.664   2.020   1.228 -1.2875  0.0975 -0.9171
   92MOL   H42238824   3.523   2.105   1.274  0.3810 -0.7878 -0.4035
   93MOL     C138825   2.137   0.949   0.239 -0.2128 -0.0413 -0.5560
   93MOL     O238826   2.163   0.905   0.106  0.1331 -0.9042  0.0301
   93MOL     C338827   2.115   0.774   0.075 -0.5769 -0.5751 -0.1282
   93MOL     O438828   2.071   0.771   7.916 -0.1437  0.1976  0.0653
   93MOL     C538829   2.158   0.799   7.815  0.3538  0.4310  0.6160
   93MOL     C638830   2.297   0.837   7.831  0.0045  0.1777 -0.9225
   93MOL     C738831   2.384   0.845   7.719  0.6089 -0.1375 -0.3885
   93MOL     C838832   2.338   0.830   7.593  0.0481  0.3118 -0.1697
   93MOL     C938833   2.200   0.795   7.575 -0.0811  0.5536  0.0456
   93MOL    C1038834   2.107   0.792   7.685 -0.2667 -0.3210 -0.4317
   93MOL    C1138835   2.195   1.090   0.258 -0.0441  0.3939 -0.1070
   93MOL    H1238836   2.030   0.970   0.242 -0.0892  0.4931  0.3984
   93MOL    H1338837   2.198   0.704   0.078 -0.3033 -0.3234 -1.2622
   93MOL    H1438838   2.035   0.752   0.146 -1.3941  0.4068 -0.7171
   93MOL    H1538839   2.327   0.848   7.934  1.1166  0.4643 -1.2719
   93MOL    H1638840   2.485   0.877   7.740 -0.1193  0.3732  2.5198
   93MOL    H1738841   2.409   0.853   7.515 -0.7091 -0.2073 -1.0269
   93MOL    H1838842   2.169   0.769   7.475 -0.9980  0.2078  0.4094
   93MOL    H1938843   2.008   0.756   7.663 -0.2114 -1.1685  0.6633
   93MOL    H2038844   2.145   1.141   0.341 -0.5738  0.2196 -0.3155
   93MOL    H2138845   2.154   1.149   0.176 -0.4255 -0.1955 -0.3426
   93MOL    H2238846   2.163   0.878   0.317 -0.6121 -0.4848 -0.8207
   93MOL    C2338847   2.352   1.093   0.280 -0.5529  0.5344 -0.0209
   93MOL    O2438848   2.386   1.227   0.299 -0.2559  0.2383 -0.3592
   93MOL    C2538849   2.395   1.265   0.434 -0.8554 -0.6303 -0.3612
   93MOL    O2638850   2.280   1.313   0.495 -0.5488  0.1833 -0.1477
   93MOL    C2738851   2.223   1.428   0.451 -0.4388 -0.5671 -0.3336
   93MOL    C2838852   2.286   1.515   0.357  0.4591  0.7331 -0.0827
   93MOL    C2938853   2.232   1.644   0.326 -0.2631 -0.0768 -0.5834
   93MOL    C3038854   2.113   1.687   0.383  0.1263 -0.1067 -0.6993
   93MOL    C3138855   2.059   1.615   0.490  1.1956  0.2711 -1.1236
   93MOL    C3238856   2.110   1.485   0.521  0.1887 -0.1463  0.1693
   93MOL    C3338857   2.438   1.045   0.164 -0.2514  0.6306  0.7240
   93MOL    H3438858   2.375   1.027   0.364 -1.5649  0.6903  0.3794
   93MOL    H3538859   2.476   1.338   0.436  0.1617 -1.6924 -1.8492
   93MOL    H3638860   2.431   1.179   0.491 -1.5734 -0.0771  0.9524
   93MOL    H3738861   2.386   1.497   0.321 -0.9456 -2.6679 -2.5642
   93MOL    H3838862   2.279   1.700   0.246  0.0563  0.0843 -0.2876
   93MOL    H3938863   2.078   1.781   0.344  0.4696  0.6952  0.9059
   93MOL    H4038864   1.968   1.645   0.539  1.8037  1.8576 -0.9438
   93MOL    H4138865   2.073   1.421   0.600  0.5191  0.5359  0.8923
   93MOL    H4238866   2.422   1.099   0.071  0.4924 -0.7598 -0.2342
   93MOL    H4338867   2.413   0.939   0.151  0.0756  0.1943  3.3753
   93MOL    C4438868   2.579   1.028   0.214  0.4811 -0.7267  0.2773
   93MOL    O4538869   2.663   1.031   0.099 -0.3817 -0.1285 -0.4746
   93MOL    C4638870   2.684   1.155   0.037  0.3344  0.1357 -0.1532
   93MOL    O4738871   2.771   1.230   0.119 -0.1074  0.6297  0.1056
   93MOL    C4838872   2.904   1.215   0.101 -0.3649  0.3228  0.0451
   93MOL    C4938873   2.994   1.314   0.151  0.2576  0.0120 -0.2024
   93MOL    C5038874   3.137   1.296   0.139 -0.3610 -0.9677  0.6532
   93MOL    C5138875   3.187   1.177   0.090  0.1711  0.6353 -0.1219
   93MOL    C5238876   3.099   1.072   0.057  0.5917 -0.6267  0.6359
   93MOL    C5338877   2.961   1.086   0.057 -0.0276 -0.0677 -0.1232
   93MOL    C5438878   2.607   0.890   0.283  0.0026  0.2079 -0.1401
   93MOL    H5538879   2.606   1.108   0.283  1.4537 -1.1601  0.4132
   93MOL    H5638880   2.595   1.217   0.026  0.5177  0.0665 -2.3758
   93MOL    H5738881   2.725   1.138   7.913  0.7385  0.0613  0.0251
   93MOL    H5838882   2.958   1.407   0.192  0.8317 -0.3446  1.1185
   93MOL    H5938883   3.206   1.372   0.174 -1.4748  0.6731 -0.6118
   93MOL    H6038884   3.294   1.170   0.084  0.1919  1.2803 -0.5435
   93MOL    H6138885   3.143   0.978   0.028  1.6032 -0.1349  0.5465
   93MOL    H6238886   2.900   1.001   0.029 -0.2984 -0.6251  2.0649
   93MOL    H6338887   2.551   0.874   0.375  3.2109  1.1909  2.0634
   93MOL    H6438888   2.582   0.808   0.215 -1.2682 -0.7986  1.4900
   93MOL    C6538889   2.757   0.884   0.323 -0.3975  0.2798  0.0860
   93MOL    O6638890   2.760   0.944   0.450  0.2461 -0.3788 -0.1907
   93MOL    C6738891   2.858   1.038   0.475  0.3885 -0.2402  0.5437
   93MOL    O6838892   2.820   1.157   0.417  0.3058  0.2504  0.9994
   93MOL    C6938893   2.857   1.274   0.472 -0.6639  0.1210  0.9075
   93MOL    C7038894   2.973   1.294   0.552 -0.1077  0.5496 -0.8044
   93MOL    C7138895   3.005   1.427   0.588 -0.4154  0.2456  1.0274
   93MOL    C7238896   2.932   1.541   0.548 -0.2829  0.4524 -0.0676
   93MOL    C7338897   2.823   1.519   0.458 -0.4913 -0.2991 -0.1001
   93MOL    C7438898   2.794   1.386   0.425 -0.1941  0.7360  0.6052
   93MOL    C7538899   2.816   0.739   0.332  0.1548 -0.4392  0.7379
   93MOL    H7638900   2.812   0.948   0.254 -1.6950  1.2867 -0.0237
   93MOL    H7738901   2.947   1.006   0.420 -0.7450  1.3111 -2.3419
   93MOL    H7838902   2.868   1.044   0.583  0.6540 -1.6115  0.6033
   93MOL    H7938903   3.033   1.212   0.588 -0.2997  0.2288 -1.2050
   93MOL    H8038904   3.089   1.442   0.654  1.6243 -0.1397 -1.3717
   93MOL    H8138905   2.973   1.639   0.567  1.7008 -0.3856  0.1536
   93MOL    H8238906   2.755   1.595   0.423 -0.7242  0.6404  2.2794
   93MOL    H8338907   2.705   1.370   0.367 -0.3570 -1.2722  1.3640
   93MOL    H8438908   2.752   0.680   0.399 -0.9691 -1.1308 -0.9163
   93MOL    H8538909   2.796   0.691   0.236  0.0827  1.4984 -0.2262
   93MOL    C8638910   2.965   0.722   0.371 -0.4694  0.6151  0.3359
   93MOL    O8738911   2.971   0.589   0.429 -0.7647  0.1556  0.2516
   93MOL    C8838912   3.051   0.588   0.550  0.4341 -0.8512 -0.2724
   93MOL    O8938913   2.970   0.631   0.663 -0.4339  0.2323  0.4576
   93MOL    C9038914   2.863   0.551   0.692  0.4608 -0.5559 -0.4113
   93MOL    C9138915   2.736   0.613   0.698  0.1123  0.4068  0.6119
   93MOL    C9238916   2.617   0.545   0.734 -0.9196  0.0843  0.2311
   93MOL    C9338917   2.625   0.408   0.761  0.4020  0.4840  0.5564
   93MOL    C9438918   2.749   0.341   0.758  0.1359  0.3544  0.1786
   93MOL    C9538919   2.867   0.413   0.731 -0.4115 -0.9594  0.1267
   93MOL    C9638920   3.051   0.723   0.241 -0.3000 -0.3776  0.6393
   93MOL    H9738921   2.983   0.792   0.453  0.0137 -0.7106  1.3668
   93MOL    H9838922   3.138   0.652   0.540 -0.1977  0.1555  0.6002
   93MOL    H9938923   3.084   0.485   0.566 -1.4349 -1.2436  1.2832
   93MOL   H10038924   2.731   0.714   0.659 -3.2731 -0.0548 -0.2975
   93MOL   H10138925   2.520   0.593   0.730 -1.0437 -0.2180 -0.4694
   93MOL   H10238926   2.535   0.353   0.784  0.0272  0.8164 -0.1147
   93MOL   H10338927   2.755   0.235   0.774  0.6139  0.6515  2.0903
   93MOL   H10438928   2.966   0.369   0.730  0.6820  1.3179  2.5260
   93MOL   H10538929   3.026   0.635   0.182  0.2375 -0.0831 -0.0240
   93MOL   H10638930   3.007   0.803   0.181 -0.9315 -1.9530 -1.0143
   93MOL   C10738931   3.198   0.746   0.249  0.8352  0.7860  0.3669
   93MOL   O10838932   3.239   0.776   0.117  0.3799  0.2688  0.4721
   93MOL   C10938933   3.306   0.674   0.044  0.2952  0.1903  0.3159
   93MOL   O11038934   3.235   0.561   0.000  0.1879 -0.1945  0.0801
   93MOL   C11138935   3.300   0.466   7.898  0.2393 -0.3011  1.0189
   93MOL   C11238936   3.421   0.492   7.827  0.5261  0.9565  0.1157
   93MOL   C11338937   3.489   0.388   7.766  1.1101  0.4708  0.8054
   93MOL   C11438938   3.448   0.253   7.769 -0.3599 -0.5338  0.2345
   93MOL   C11538939   3.321   0.234   7.827  0.2828 -0.4513 -0.0198
   93MOL   C11638940   3.248   0.339   7.888 -0.3841  0.4995  0.1706
   93MOL   C11738941   3.247   0.858   0.343 -0.0815 -0.4296  0.0363
   93MOL   H11838942   3.239   0.653   0.289  1.6842  1.6736  1.6201
   93MOL   H11938943   3.391   0.645   0.105  0.8753  0.2918 -0.4406
   93MOL   H12038944   3.329   0.731   7.930  1.1343  2.0573  1.6859
   93MOL   H12138945   3.469   0.588   7.822 -0.3155  1.4439  1.1472
   93MOL   H12238946   3.580   0.417   7.715 -0.3148  3.0080 -0.4252
   93MOL   H12338947   3.505   0.175   7.721  0.8070 -2.2005  4.1157
   93MOL   H12438948   3.282   0.134   7.839  1.9014 -1.5343 -3.0723
   93MOL   H12538949   3.166   0.315   7.953 -0.4990  3.2998  1.1130
   93MOL   H12638950   3.221   0.829   0.445 -0.2048  0.8827  0.3765
   93MOL   H12738951   3.202   0.955   0.320  1.7421 -0.0131 -1.8559
   93MOL   C12838952   3.400   0.869   0.341  0.2401  0.3720 -0.4265
   93MOL   O12938953   3.437   0.889   0.479 -0.2456 -0.1650  0.1203
   93MOL   C13038954   3.532   0.812   0.545  0.3344 -0.1014 -0.1236
   93MOL   O13138955   3.497   0.673   0.548  0.1874 -0.1747 -0.0167
   93MOL   C13238956   3.421   0.632   0.656 -0.7714  0.3543 -0.2642
   93MOL   C13338957   3.431   0.497   0.700 -1.0008  0.1176  0.4776
   93MOL   C13438958   3.358   0.455   0.810  0.5495  0.0461 -0.2160
   93MOL   C13538959   3.273   0.548   0.879  0.0485  0.0619 -0.5080
   93MOL   C13638960   3.263   0.682   0.839 -0.0067  0.0425 -0.2362
   93MOL   C13738961   3.343   0.727   0.727  0.1664 -0.2289  0.2551
   93MOL   C13838962   3.451   0.989   0.253  0.8684 -0.3409  1.0266
   93MOL   H13938963   3.443   0.773   0.314 -0.2420  0.3529 -1.1518
   93MOL   H14038964   3.555   0.850   0.644  0.9639 -1.9572  0.4722
   93MOL   H14138965   3.616   0.814   0.475 -0.4242 -0.0480 -1.0412
   93MOL   H14238966   3.494   0.429   0.644 -0.2159  1.1866  0.0476
   93MOL   H14338967   3.348   0.355   0.847  1.2984  1.0756  2.9059
   93MOL   H14438968   3.218   0.528   0.970  0.7484  3.5501  0.7624
   93MOL   H14538969   3.196   0.750   0.889 -0.7957 -0.6138 -0.3948
   93MOL   H14638970   3.329   0.831   0.703  0.0321 -0.3975 -0.4055
   93MOL   H14738971   3.390   0.981   0.163  0.8030 -1.9053  1.2014
   93MOL   H14838972   3.422   1.085   0.296  2.6547  1.9606 -2.6352
   93MOL   C14938973   3.592   0.980   0.211  0.8000  0.3531 -0.1884
   93MOL   O15038974   3.589   0.868   0.119  0.6732 -0.6447  0.0628
   93MOL   C15138975   3.715   0.803   0.103  0.4123  0.6528 -0.6011
   93MOL   O15238976   3.751   0.749   0.221 -0.0887 -0.3214 -0.2542
   93MOL   C15338977   3.884   0.728   0.248  0.6716 -0.5341  0.4893
   93MOL   C15438978   3.923   0.727   0.383 -0.3129 -0.5135 -0.5521
   93MOL   C15538979   4.063   0.715   0.414 -0.2091  0.4539  0.2547
   93MOL   C15638980   4.156   0.701   0.314  0.3091  0.4502  0.0880
   93MOL   C15738981   4.120   0.676   0.182 -0.3741  0.0288 -0.3032
   93MOL   C15838982   3.984   0.705   0.153 -0.0029 -0.7725  0.7143
   93MOL   C15938983   3.632   1.105   0.128 -0.3283 -0.5123  0.0042
   93MOL   H16038984   3.664   0.959   0.290  2.6852 -1.4293 -2.3000
   93MOL   H16138985   3.701   0.723   0.030 -1.6181  0.5163 -0.0896
   93MOL   H16238986   3.789   0.872   0.063  1.7166 -0.1652  0.3678
   93MOL   H16338987   3.849   0.750   0.458 -1.0682  2.4199 -2.1211
   93MOL   H16438988   4.095   0.732   0.516 -2.1477  0.4509  0.8945
   93MOL   H16538989   4.261   0.701   0.339  0.3835 -0.5584 -0.2147
   93MOL   H16638990   4.185   0.653   0.099  1.1102 -0.6735  1.0319
   93MOL   H16738991   3.957   0.692   0.049  2.7873 -0.1163 -0.1545
   93MOL   H16838992   3.562   1.106   0.044  0.7285 -0.9555 -0.8992
   93MOL   H16938993   3.731   1.093   0.084  0.0700 -0.8604  0.9786
   93MOL   C17038994   3.629   1.245   0.191 -0.2833  0.5574 -0.0769
   93MOL   O17138995   3.763   1.266   0.229  0.8194  0.0630 -0.2233
   93MOL   C17238996   3.792   1.241   0.358  0.7086  0.0586  0.4056
   93MOL   O17338997   3.886   1.139   0.369  0.0382 -0.2422  0.3447
   93MOL   C17438998   4.007   1.165   0.303  0.0219 -0.2806  0.2526
   93MOL   C17538999   4.095   1.059   0.294  0.2596 -0.0957  0.1388
   93MOL   C17639000   4.214   1.061   0.213  0.5245  0.1964  0.0812
   93MOL   C17739001   4.246   1.173   0.144 -0.7711 -0.5496 -0.3557
   93MOL   C17839002   4.162   1.283   0.153  0.6550 -0.0540  0.2994
   93MOL   C17939003   4.041   1.283   0.231  0.1305  0.0442 -0.8591
   93MOL   C18039004   3.590   1.354   0.089  0.1065 -0.5316 -0.0406
   93MOL   H18139005   3.556   1.271   0.267 -0.3803  0.2126 -0.0512
   93MOL   H18239006   3.705   1.201   0.409 -2.2889  0.7232 -3.8544
   93MOL   H18339007   3.827   1.339   0.391  1.2336 -0.7249  2.1918
   93MOL   H18439008   4.066   0.963   0.334  1.2030 -0.7661 -0.7749
   93MOL   H18539009   4.276   0.973   0.210 -0.6750 -0.6066 -1.7784
   93MOL   H18639010   4.328   1.180   0.074  0.1768 -0.5668  0.7426
   93MOL   H18739011   4.181   1.377   0.103 -0.0595  0.3924  0.8636
   93MOL   H18839012   3.988   1.377   0.241  2.8219  1.5921 -0.6557
   93MOL   H18939013   3.656   1.343   0.003 -0.4036  0.7214 -0.6029
   93MOL   H19039014   3.485   1.336   0.068 -0.2571 -0.3629  1.5095
   93MOL   C19139015   3.610   1.495   0.140 -0.3094  0.9143  0.6809
   93MOL   O19239016   3.512   1.512   0.241  0.4651  0.2536  0.7804
   93MOL   C19339017   3.549   1.614   0.323  0.5533 -0.0890  0.0462
   93MOL   O19439018   3.644   1.563   0.414  0.0223 -0.8873  0.5360
   93MOL   C19539019   3.595   1.485   0.517  0.1297 -0.7780  0.4152
   93MOL   C19639020   3.462   1.443   0.520 -0.2016  0.4502 -0.3299
   93MOL   C19739021   3.420   1.352   0.624 -0.0197  0.3470  0.2897
   93MOL   C19839022   3.515   1.301   0.716  0.5040  0.3320  0.2261
   93MOL   C19939023   3.650   1.336   0.704 -0.3117 -0.4648 -0.0425
   93MOL   C20039024   3.687   1.438   0.612  1.0817 -0.2355 -0.0943
   93MOL   C20139025   3.590   1.590   0.018  0.0217 -0.0653  0.1975
   93MOL   H20239026   3.711   1.511   0.177 -0.0168  1.5488 -0.3498
   93MOL   H20339027   3.468   1.658   0.381  0.9508  1.0498 -0.2527
   93MOL   H20439028   3.590   1.702   0.274  0.2896 -0.4038 -0.7496
   93MOL   H20539029   3.385   1.469   0.449 -1.1348 -0.2290  0.4238
   93MOL   H20639030   3.323   1.305   0.629  0.5039 -0.6095  1.5870
   93MOL   H20739031   3.485   1.226   0.788  2.7117 -1.0032 -0.1708
   93MOL   H20839032   3.723   1.297   0.774 -0.9354 -1.9970 -0.2444
   93MOL   H20939033   3.788   1.470   0.594  0.4735  1.8119 -0.0657
   93MOL   H21039034   3.503   1.576   7.929 -0.5728  0.5550  0.8602
   93MOL   H21139035   3.566   1.689   0.057 -0.1704  0.7990 -2.0407
   93MOL   C21239036   3.725   1.612   7.913 -0.0157 -0.3818 -0.3507
   93MOL   O21339037   3.778   1.493   7.854 -0.4118 -0.0535 -0.6872
   93MOL   C21439038   3.888   1.449   7.930 -0.1981 -0.6617  0.2741
   93MOL   O21539039   4.000   1.527   7.907  0.1838  0.1988  0.9302
   93MOL   C21639040   4.067   1.520   7.784 -0.3957 -0.2509 -0.0117
   93MOL   C21739041   4.195   1.570   7.774 -0.8025  0.4537  0.3907
   93MOL   C21839042   4.269   1.577   7.656  0.0826 -0.1478 -0.2662
   93MOL   C21939043   4.216   1.514   7.540 -0.6386 -0.1637 -0.2648
   93MOL   C22039044   4.089   1.455   7.549 -0.1381 -0.0213  0.1098
   93MOL   C22139045   4.007   1.465   7.666  0.1960 -0.1798 -0.3960
   93MOL   C22239046   3.710   1.716   7.804 -0.4459 -0.7635 -0.3051
   93MOL   H22339047   3.793   1.649   0.014  0.7044 -0.1101 -1.1077
   93MOL   H22439048   3.928   1.351   7.902  1.2229 -0.5433  1.7925
   93MOL   H22539049   3.877   1.452   0.062 -0.2298 -2.7932  0.3483
   93MOL   H22639050   4.228   1.610   7.868  1.3316  0.1965 -0.2164
   93MOL   H22739051   4.369   1.617   7.664  1.0791 -2.6332  0.1760
   93MOL   H22839052   4.257   1.520   7.440 -2.2964  0.6858 -0.9051
   93MOL   H22939053   4.045   1.399   7.468  0.6137  1.1739 -1.1490
   93MOL   H23039054   3.903   1.439   7.652 -0.2941  1.7961 -0.6804
   93MOL   H23139055   3.797   1.697   7.741 -0.0692 -0.3588  0.0913
   93MOL   H23239056   3.622   1.695   7.743 -0.0932 -0.6602 -0.8543
   93MOL   C23339057   3.690   1.859   7.859 -0.4051 -1.0178 -0.5293
   93MOL   O23439058   3.812   1.896   7.929 -0.0927 -0.3960  0.1672
   93MOL   C23539059   3.804   1.923   0.096 -0.6604 -0.0744 -0.3690
   93MOL   O23639060   3.824   1.814   0.185 -0.1003  0.0747 -0.1035
   93MOL   C23739061   3.949   1.766   0.225 -0.1001  0.3264 -0.4393
   93MOL   C23839062   3.949   1.680   0.338  0.5615  0.8896 -0.1321
   93MOL   C23939063   4.072   1.618   0.384 -0.0949  0.0363 -0.9597
   93MOL   C24039064   4.186   1.633   0.300  0.0335  0.9977 -0.5296
   93MOL   C24139065   4.180   1.719   0.184  1.3111 -0.1867  0.3011
   93MOL   C24239066   4.064   1.788   0.148 -0.1232 -0.1671  0.6448
   93MOL   C24339067   3.671   1.960   7.748 -0.3285 -0.3786  0.0684
   93MOL   H24439068   3.608   1.863   7.931 -0.2617 -0.5187 -0.3935
   93MOL   H24539069   3.721   1.986   0.129 -0.1094  0.6789 -0.3911
   93MOL   H24639070   3.889   1.989   0.111 -2.6728  1.8632  3.1885
   93MOL   H24739071   3.862   1.673   0.401  0.4726  0.8723 -0.2578
   93MOL   H24839072   4.075   1.565   0.478 -0.6218  0.4642 -0.7031
   93MOL   H24939073   4.278   1.586   0.331 -0.3285  1.0727  0.6745
   93MOL   H25039074   4.275   1.744   0.139  1.1717 -0.4663 -0.1481
   93MOL   H25139075   4.065   1.867   0.074 -1.8223 -0.8767 -0.1603
   93MOL   H25239076   3.765   1.963   7.693 -0.9336  0.8894 -0.9312
   93MOL   H25339077   3.601   1.910   7.680 -0.5746  0.4076 -0.2576
   93MOL   C25439078   3.632   2.104   7.779 -0.5481  0.0463 -0.9496
   93MOL   O25539079   3.522   2.106   7.864 -0.1957  0.5057  0.3857
   93MOL   C25639080   3.400   2.063   7.817  0.3019 -0.3368 -0.1426
   93MOL   O25739081   3.301   2.089   7.911  0.5942 -0.0944  0.4076
   93MOL   C25839082   3.167   2.082   7.869  0.0573  0.3029 -0.0912
   93MOL   C25939083   3.119   1.998   7.769 -0.0415 -0.3161  0.6237
   93MOL   C26039084   2.982   2.011   7.727  0.2236  0.4361 -0.0755
   93MOL   C26139085   2.895   2.096   7.797  0.2958 -0.0590  0.7594
   93MOL   C26239086   2.939   2.158   7.914 -0.5290  0.2577 -0.3371
   93MOL   C26339087   3.076   2.158   7.943 -0.3645 -0.4851 -0.7142
   93MOL   C26439088   3.736   2.202   7.833 -0.2724 -0.1719 -0.4795
   93MOL   H26539089   3.600   2.142   7.682  1.2062 -1.8481 -2.3030
   93MOL   H26639090   3.411   1.956   7.799  0.5051 -0.9092  3.0342
   93MOL   H26739091   3.382   2.118   7.725 -0.9179  2.2796  1.6210
   93MOL   H26839092   3.184   1.927   7.719 -1.3754  0.0702 -1.7230
   93MOL   H26939093   2.953   1.957   7.638  1.0143 -0.4626  0.1942
   93MOL   H27039094   2.793   2.107   7.766  0.6535 -0.4584 -0.5674
   93MOL   H27139095   2.873   2.219   7.974  1.0870  1.1161  0.6122
   93MOL   H27239096   3.109   2.203   0.060  2.7380 -2.9011 -0.5609
   93MOL   H27339097   3.756   2.161   7.932 -0.2223 -2.1335 -1.2829
   93MOL   H27439098   3.819   2.210   7.763  0.3678  1.2677  0.4133
   93MOL   C27539099   3.681   2.337   7.851  0.2111 -0.2896  0.2671
   93MOL   O27639100   3.772   2.415   7.926 -0.2193  0.2251  0.3465
   93MOL   C27739101   3.771   2.382   0.086 -0.7969  0.1719 -0.6806
   93MOL   O27839102   3.736   2.501   0.159 -0.5456  0.1182 -1.1708
   93MOL   C27939103   3.835   2.604   0.156 -0.5306  0.1969  0.0382
   93MOL   C28039104   3.957   2.607   0.089  0.5507  0.3239 -0.0459
   93MOL   C28139105   4.045   2.717   0.107  0.0222  0.1501 -0.4639
   93MOL   C28239106   4.004   2.829   0.177 -0.3085  0.4272  0.3018
   93MOL   C28339107   3.874   2.835   0.226  0.2416 -0.1054  0.0894
   93MOL   C28439108   3.789   2.722   0.223 -0.8614  0.3126 -0.0147
   93MOL   C28539109   3.655   2.416   7.721  0.1210  0.1617 -0.1910
   93MOL   H28639110   3.592   2.336   7.914  0.2634  0.6310  0.3630
   93MOL   H28739111   3.874   2.351   0.106 -0.8155  0.4107 -0.2089
   93MOL   H28839112   3.700   2.304   0.112  0.2810 -0.5297  0.2245
   93MOL   H28939113   3.984   2.536   0.012  1.5530 -0.1957  0.7837
   93MOL   H29039114   4.139   2.720   0.055  0.3877  0.7157  0.2197
   93MOL   H29139115   4.068   2.916   0.183  0.6285 -0.2375 -0.0090
   93MOL   H29239116   3.831   2.924   0.269  1.1819 -0.4363  1.7381
   93MOL   H29339117   3.696   2.719   0.279  1.1798  0.4951  3.5614
   93MOL   H29439118   3.620   2.345   7.646  0.8376 -0.7442  0.3231
   93MOL   H29539119   3.752   2.445   7.682 -0.3046 -0.4402 -1.7297
   93MOL   C29639120   3.550   2.521   7.732  0.4898  0.2808 -0.0316
   93MOL   O29739121   3.544   2.623   7.635 -0.3334  0.3621 -0.0043
   93MOL   C29839122   3.643   2.720   7.653 -0.6667  0.0436 -0.3525
   93MOL   O29939123   3.622   2.805   7.759  0.0762 -0.1671  0.8156
   93MOL   C30039124   3.728   2.887   7.810 -0.1290  0.2981 -0.3799
   93MOL   C30139125   3.857   2.889   7.751  0.6140  0.0317  0.2665
   93MOL   C30239126   3.966   2.967   7.808  0.5859 -0.2254  0.7913
   93MOL   C30339127   3.940   3.049   7.921 -1.3704 -0.0334  0.1133
   93MOL   C30439128   3.808   3.054   7.971  0.0199  0.0251 -0.5926
   93MOL   C30539129   3.704   2.978   7.911 -0.0073 -0.7090 -0.7343
   93MOL   C30639130   3.406   2.459   7.733  0.4819 -0.0697  0.1753
   93MOL   H30739131   3.562   2.562   7.833 -1.1842  0.4622  0.1051
   93MOL   H30839132   3.621   2.790   7.571 -2.3806 -1.1013 -0.9028
   93MOL   H30939133   3.739   2.668   7.652 -0.5494  0.1781  1.8093
   93MOL   H31039134   3.887   2.826   7.669  1.8279  0.8473  0.0710
   93MOL   H31139135   4.065   2.959   7.768  0.2732  2.8784 -0.7751
   93MOL   H31239136   4.022   3.098   7.971 -1.2451  0.3164 -0.4396
   93MOL   H31339137   3.801   3.115   0.085  0.2587 -0.4982 -0.2154
   93MOL   H31439138   3.607   2.985   7.959  0.3455  0.8178 -0.2216
   93MOL   H31539139   3.401   2.361   7.781 -0.9348 -0.1897 -0.1916
   93MOL   H31639140   3.369   2.445   7.632 -1.2678  0.3072  0.7421
   93MOL   C31739141   3.307   2.562   7.787 -0.3272 -0.3386  0.9110
   93MOL   O31839142   3.315   2.557   7.930  0.1659  0.0931  0.3070
   93MOL   C31939143   3.316   2.682   0.015  0.5196 -0.2808  0.2030
   93MOL   O32039144   3.210   2.757   7.954  0.2358  0.4680 -0.2855
   93MOL   C32139145   3.207   2.892   7.965 -0.3392 -0.1263  0.1510
   93MOL   C32239146   3.100   2.964   7.906  0.2334 -0.4232 -0.1894
   93MOL   C32339147   3.104   3.104   7.909  0.2768  0.2489  0.8144
   93MOL   C32439148   3.196   3.181   0.003  0.0888 -0.9970 -0.0338
   93MOL   C32539149   3.294   3.110   0.071  0.2545  0.4767  0.0932
   93MOL   C32639150   3.297   2.971   0.067 -0.3571 -0.4696  0.7510
   93MOL   C32739151   3.163   2.513   7.769  0.1123 -0.1678  0.3842
   93MOL   H32839152   3.325   2.663   7.750 -1.9096 -0.3825 -0.0171
   93MOL   H32939153   3.409   2.731   7.962  0.3154 -0.0212 -0.0167
   93MOL   H33039154   3.308   2.670   0.123 -3.9674 -0.1966 -0.0289
   93MOL   H33139155   3.013   2.928   7.852  0.4367 -0.9807 -0.1405
   93MOL   H33239156   3.024   3.159   7.862  0.0940  0.0561  0.8959
   93MOL   H33339157   3.183   3.288   0.007  0.9859 -0.7831 -2.0225
   93MOL   H33439158   3.361   3.162   0.137  1.6260 -2.9298  1.4858
   93MOL   H33539159   3.371   2.921   0.128  1.2611  1.7975  0.6945
   93MOL   H33639160   3.160   2.404   7.773 -0.2720 -0.1532  0.5805
   93MOL   H33739161   3.102   2.551   7.852 -0.7207  0.3196 -0.4385
   93MOL   C33839162   3.086   2.567   7.639 -0.4646  0.3128  0.0297
   93MOL   O33939163   3.142   2.527   7.516 -0.4193  0.8036  0.0945
   93MOL   C34039164   3.195   2.623   7.433  0.9238  0.2053  0.8942
   93MOL   O34139165   3.272   2.564   7.329  0.0027  0.6169 -0.2542
   93MOL   C34239166   3.213   2.503   7.221 -0.0133 -0.5288 -0.2733
   93MOL   C34339167   3.293   2.436   7.123 -0.2711  0.0743 -0.1783
   93MOL   C34439168   3.234   2.377   7.009 -0.4145 -0.1931  1.0483
   93MOL   C34539169   3.094   2.383   6.988 -0.0307  0.1998 -0.0430
   93MOL   C34639170   3.013   2.453   7.077 -0.2379 -0.5734  0.5703
   93MOL   C34739171   3.073   2.520   7.185  0.4887  0.1440 -0.5353
   93MOL   C34839172   2.940   2.504   7.648  0.7554  0.9713  0.4092
   93MOL   H34939173   3.079   2.676   7.640 -0.2091  0.3745 -2.8152
   93MOL   H35039174   3.263   2.679   7.497 -1.7802  0.4672  3.6196
   93MOL   H35139175   3.127   2.696   7.389  1.0706  0.7285  1.5327
   93MOL   H35239176   3.396   2.413   7.142 -0.2725  0.4942  0.3473
   93MOL   H35339177   3.295   2.322   6.939 -0.0919  0.6234  0.6814
   93MOL   H35439178   3.057   2.331   6.901 -0.2983  1.3356 -0.6241
   93MOL   H35539179   2.908   2.461   7.057 -0.2385 -0.9122  0.4419
   93MOL   H35639180   3.021   2.602   7.232  1.1786  2.1618 -3.1759
   93MOL   H35739181   2.905   2.500   7.751 -0.6289  2.5476  0.0118
   93MOL   H35839182   2.953   2.398   7.625 -1.2133  0.8966 -0.4306
   93MOL   C35939183   2.842   2.558   7.549 -0.3257 -0.2552  0.3325
   93MOL   O36039184   2.775   2.672   7.595  0.7265  0.2152  0.0068
   93MOL   C36139185   2.846   2.790   7.607  0.5305 -0.8447 -0.0977
   93MOL   O36239186   2.922   2.829   7.498  0.2240 -0.6597  0.0563
   93MOL   C36339187   2.863   2.892   7.390 -0.6739 -0.0649 -0.1243
   93MOL   C36439188   2.721   2.898   7.367  0.4814  0.2184  0.4315
   93MOL   C36539189   2.675   2.966   7.253  0.4077  0.2819 -0.4597
   93MOL   C36639190   2.771   3.014   7.162 -0.6805 -0.2965 -0.1960
   93MOL   C36739191   2.911   2.994   7.177 -0.1662 -0.1984  0.5596
   93MOL   C36839192   2.959   2.939   7.294 -0.6689  0.0274  0.2210
   93MOL   C36939193   2.737   2.445   7.533  0.0647 -0.1807  0.4122
   93MOL   H37039194   2.890   2.576   7.453  1.5388 -1.6068  0.9801
   93MOL   H37139195   2.903   2.789   7.699 -0.2871  0.2314  0.4380
   93MOL   H37239196   2.771   2.868   7.624 -1.2003 -2.8153  1.5745
   93MOL   H37339197   2.654   2.853   7.439  2.0690 -0.6423  1.3984
   93MOL   H37439198   2.569   2.959   7.231  0.2890 -1.4345  0.5418
   93MOL   H37539199   2.728   3.059   7.074 -1.6629  2.0604  1.4479
   93MOL   H37639200   2.979   3.021   7.098  0.4536 -0.2669  1.0715
   93MOL   H37739201   3.067   2.941   7.299 -0.6475 -2.4798  1.6280
   93MOL   H37839202   2.698   2.429   7.633  0.2189 -1.1221  0.3242
   93MOL   H37939203   2.784   2.357   7.489  0.0580 -0.5977  1.2257
   93MOL   C38039204   2.612   2.479   7.459  0.1578  0.5116 -0.4659
   93MOL   O38139205   2.527   2.360   7.455  0.9699  0.2668 -0.7817
   93MOL   C38239206   2.425   2.360   7.549  0.5513  0.3188 -1.2313
   93MOL   O38339207   2.464   2.333   7.685  0.1783  0.7993  0.0159
   93MOL   C38439208   2.501   2.205   7.719 -0.0570 -0.2490 -0.3787
   93MOL   C38539209   2.507   2.101   7.624  0.7974  1.2232 -0.4027
   93MOL   C38639210   2.533   1.969   7.660  0.4517  0.1189 -0.3104
   93MOL   C38739211   2.558   1.937   7.796  1.0090  0.3430 -0.0398
   93MOL   C38839212   2.556   2.041   7.891 -0.0248  0.1748 -0.3301
   93MOL   C38939213   2.534   2.176   7.855 -0.0741  0.3292  0.1625
   93MOL   C39039214   2.655   2.522   7.315 -0.2574 -0.2501  0.5513
   93MOL   H39139215   2.557   2.567   7.492 -2.8957 -1.4777 -0.0866
   93MOL   H39239216   2.378   2.458   7.562  1.5287  0.6077  0.1887
   93MOL   H39339217   2.356   2.286   7.509  2.2491 -1.5628 -0.7584
   93MOL   H39439218   2.492   2.121   7.519  1.0801 -0.1547 -0.7199
   93MOL   H39539219   2.532   1.888   7.589 -0.8336  0.1161 -0.3144
   93MOL   H39639220   2.581   1.838   7.834  0.4178  1.0954  2.3315
   93MOL   H39739221   2.576   2.013   0.018  1.3242  0.2109 -0.5760
   93MOL   H39839222   2.522   2.250   7.933  2.0912 -1.1865  1.9751
   93MOL   H39939223   2.712   2.435   7.284 -1.4237 -0.5387 -0.8782
   93MOL   H40039224   2.718   2.611   7.307  0.2516 -0.3089  3.5741
   93MOL   C40139225   2.539   2.519   7.206 -1.5286  0.0024  0.5613
   93MOL   O40239226   2.442   2.618   7.234 -0.3417 -0.3523 -0.0864
   93MOL   C40339227   2.317   2.591   7.184  0.4789  0.9584 -0.1596
   93MOL   O40439228   2.254   2.493   7.257 -0.3702 -0.5120 -0.2781
   93MOL   C40539229   2.117   2.480   7.241  0.1919 -0.0426  0.1354
   93MOL   C40639230   2.049   2.388   7.328 -0.2213  0.1384  0.2404
   93MOL   C40739231   1.918   2.356   7.302 -0.0668 -0.2978 -0.3524
   93MOL   C40839232   1.844   2.424   7.213 -0.0871 -1.1487 -0.2138
   93MOL   C40939233   1.905   2.522   7.130  0.7105  0.1513 -0.5193
   93MOL   C41039234   2.044   2.548   7.143  0.0379  0.5681  0.2564
   93MOL   C41139235   2.589   2.529   7.066 -0.3683 -0.0827  0.1831
   93MOL   H41239236   2.499   2.419   7.221 -0.4737 -0.5643 -0.3255
   93MOL   H41339237   2.323   2.564   7.079 -0.9126 -0.4200  0.1071
   93MOL   H41439238   2.263   2.685   7.195 -2.5715 -0.4735 -2.3061
   93MOL   H41539239   2.103   2.335   7.404  3.4508  0.0843 -2.2812
   93MOL   H41639240   1.864   2.280   7.357 -0.1358 -0.5243 -0.7261
   93MOL   H41739241   1.737   2.409   7.217 -0.2372  0.3090  2.4692
   93MOL   H41839242   1.847   2.584   7.064  0.7733 -0.1196 -0.8279
   93MOL   H41939243   2.089   2.610   7.067  2.1915 -1.7325 -0.4041
   93MOL   H42039244   2.678   2.470   7.044  0.7461  2.0034 -1.0643
   93MOL   H42139245   2.615   2.629   7.029  1.1912  0.0680  1.6296
   93MOL   H42239246   2.512   2.503   6.994  0.3837 -0.0007 -0.6529
   94MOL     C139247   5.052   3.799   7.039 -0.2024 -0.0102 -0.4379
   94MOL     O239248   5.122   3.676   7.008  0.2694  0.4150 -0.5758
   94MOL     C339249   5.257   3.684   7.048 -0.9032 -0.4474  0.2380
   94MOL     O439250   5.325   3.804   7.025 -0.3213 -0.0097  0.2992
   94MOL     C539251   5.381   3.832   6.905  0.4081  0.0572 -1.0503
   94MOL     C639252   5.334   3.776   6.785 -0.3276  0.4033  0.2929
   94MOL     C739253   5.391   3.818   6.665 -0.4531  0.1640  0.2884
   94MOL     C839254   5.496   3.908   6.657 -0.5752 -0.1490  0.5028
   94MOL     C939255   5.547   3.965   6.778 -0.0918  0.1905 -0.0317
   94MOL    C1039256   5.480   3.931   6.901  0.0929 -0.6418 -0.0693
   94MOL    C1139257   4.901   3.766   7.054 -0.4638  0.5127 -0.1353
   94MOL    H1239258   5.095   3.838   7.132 -1.5015  0.8650 -0.1809
   94MOL    H1339259   5.252   3.656   7.153 -2.1779 -3.9664 -0.6985
   94MOL    H1439260   5.313   3.609   6.993 -0.0831  0.8028 -0.6752
   94MOL    H1539261   5.248   3.711   6.778 -0.4025  0.7566 -2.5336
   94MOL    H1639262   5.360   3.774   6.571  1.4766 -0.1640 -0.2022
   94MOL    H1739263   5.543   3.943   6.566  0.7963 -1.9167  0.5100
   94MOL    H1839264   5.616   4.049   6.785 -0.7042  0.8045 -1.2479
   94MOL    H1939265   5.514   3.989   6.985 -0.1073  1.2636 -1.2718
   94MOL    H2039266   4.892   3.692   7.134 -1.4868  1.3752  0.5698
   94MOL    H2139267   4.862   3.719   6.964 -0.0488  1.2215 -0.6945
   94MOL    H2239268   5.059   3.880   6.966  2.2267  0.7430  0.5528
   94MOL    C2339269   4.807   3.886   7.082  0.0285  0.2378 -0.8453
   94MOL    O2439270   4.868   3.951   7.185  0.7164 -0.4084  0.1606
   94MOL    C2539271   4.880   4.089   7.164  0.0895  0.7383 -0.8611
   94MOL    O2639272   4.988   4.118   7.091 -0.0961 -0.4800 -0.0547
   94MOL    C2739273   4.974   4.233   7.014 -0.7957  0.6335 -0.1016
   94MOL    C2839274   5.057   4.247   6.898 -0.5428  0.7432  0.3215
   94MOL    C2939275   5.042   4.359   6.815  0.0624  0.5753 -0.3054
   94MOL    C3039276   4.946   4.461   6.852  0.3171 -0.2880  0.4121
   94MOL    C3139277   4.878   4.454   6.976 -0.2067 -0.0343  0.0369
   94MOL    C3239278   4.888   4.341   7.050 -0.1931  0.0784 -0.0989
   94MOL    C3339279   4.675   3.838   7.119 -0.0092  0.2325  0.1845
   94MOL    H3439280   4.792   3.940   6.988 -0.9428  0.3003 -0.6604
   94MOL    H3539281   4.896   4.130   7.264  0.0731  0.6330 -0.8149
   94MOL    H3639282   4.787   4.121   7.117 -0.1137  2.7161  0.8027
   94MOL    H3739283   5.116   4.162   6.869  0.0613 -0.3287  4.4122
   94MOL    H3839284   5.086   4.366   6.717 -0.9406  1.2411 -0.7136
   94MOL    H3939285   4.928   4.542   6.782  0.5791 -0.5589  0.0308
   94MOL    H4039286   4.815   4.535   7.010 -1.1839 -1.0401  0.6586
   94MOL    H4139287   4.848   4.344   7.150  1.2904  1.0507  0.4845
   94MOL    H4239288   4.635   3.934   7.151  0.0677 -0.0363  1.1074
   94MOL    H4339289   4.669   3.773   7.206  2.0280  1.5458  1.3444
   94MOL    C4439290   4.592   3.771   7.004  0.0711 -0.5021 -0.0490
   94MOL    O4539291   4.458   3.820   7.015  0.3244 -0.0308  0.2165
   94MOL    C4639292   4.429   3.917   6.926 -0.1296  0.3639  0.0750
   94MOL    O4739293   4.500   4.037   6.951  0.1551 -0.3845  0.4090
   94MOL    C4839294   4.472   4.146   6.880 -0.4913 -0.3215  0.4245
   94MOL    C4939295   4.566   4.253   6.861  0.4016  0.7646 -0.1247
   94MOL    C5039296   4.546   4.357   6.766  0.2033  0.5579 -0.3469
   94MOL    C5139297   4.419   4.373   6.707  0.5722  0.0918  0.0259
   94MOL    C5239298   4.319   4.279   6.734  0.2867 -0.4618  0.7372
   94MOL    C5339299   4.349   4.161   6.806  0.6750  0.0375  0.3459
   94MOL    C5439300   4.590   3.615   7.009 -0.0196  0.2572 -0.4302
   94MOL    H5539301   4.631   3.814   6.912 -1.5494 -1.2458 -1.1129
   94MOL    H5639302   4.324   3.941   6.940 -0.3249 -1.7408  2.6668
   94MOL    H5739303   4.450   3.886   6.824  1.4192 -3.0675  1.3472
   94MOL    H5839304   4.660   4.239   6.912 -0.1973 -1.9827  0.2967
   94MOL    H5939305   4.622   4.433   6.758 -0.7934  1.4764 -1.2596
   94MOL    H6039306   4.391   4.464   6.656  0.9574 -0.5199 -1.2935
   94MOL    H6139307   4.227   4.289   6.677 -0.1597 -2.0454  1.1529
   94MOL    H6239308   4.265   4.093   6.806 -0.1713  1.0700 -1.2551
   94MOL    H6339309   4.690   3.578   7.030 -0.0477 -1.2293 -2.7124
   94MOL    H6439310   4.532   3.579   7.093  0.2882  0.7145 -0.0200
   94MOL    C6539311   4.546   3.552   6.872  0.0012  1.0691  0.3076
   94MOL    O6639312   4.666   3.556   6.793 -0.0048 -0.0808  0.7892
   94MOL    C6739313   4.652   3.585   6.661 -0.4408 -0.2112 -0.3197
   94MOL    O6839314   4.668   3.724   6.632 -0.1126  0.6165  0.1425
   94MOL    C6939315   4.791   3.784   6.625  0.0814 -0.2026 -0.2663
   94MOL    C7039316   4.791   3.926   6.637  0.1807  0.2520 -0.3964
   94MOL    C7139317   4.903   4.005   6.614 -0.6658 -0.0575 -0.2010
   94MOL    C7239318   5.025   3.932   6.579 -0.0761  0.2625  0.1367
   94MOL    C7339319   5.030   3.794   6.562  0.4980 -0.1185 -0.0581
   94MOL    C7439320   4.910   3.718   6.587 -0.0462 -0.0535 -0.2015
   94MOL    C7539321   4.491   3.407   6.889  0.3840 -0.8092 -0.2318
   94MOL    H7639322   4.466   3.617   6.835 -1.0073 -0.3792 -0.1183
   94MOL    H7739323   4.553   3.559   6.623 -0.7519  1.6628 -0.8256
   94MOL    H7839324   4.714   3.527   6.592  0.8664  0.3789  0.3300
   94MOL    H7939325   4.701   3.979   6.664  1.1214  1.4846  0.3556
   94MOL    H8039326   4.909   4.112   6.615 -1.4253 -0.0192  0.8191
   94MOL    H8139327   5.110   3.999   6.570  0.6169 -0.4018  1.6599
   94MOL    H8239328   5.123   3.749   6.533 -0.3953  0.2002 -3.6041
   94MOL    H8339329   4.903   3.611   6.599 -0.4419  0.2738  2.9264
   94MOL    H8439330   4.498   3.360   6.791  1.1862  2.0259 -1.5816
   94MOL    H8539331   4.560   3.357   6.958  0.3338 -0.9707 -0.2987
   94MOL    C8639332   4.343   3.392   6.943  0.2304  0.2349  0.1010
   94MOL    O8739333   4.247   3.409   6.837  0.0915  0.5876  0.3467
   94MOL    C8839334   4.120   3.463   6.869  0.2430 -0.9256  0.4466
   94MOL    O8939335   4.121   3.597   6.885  0.2351 -0.3164  0.4820
   94MOL    C9039336   4.137   3.689   6.783  0.0416 -0.0664  0.5674
   94MOL    C9139337   4.085   3.817   6.799  0.1192  0.2926 -0.1568
   94MOL    C9239338   4.104   3.911   6.692 -0.3027 -0.1822 -0.2538
   94MOL    C9339339   4.173   3.882   6.582  0.1337  0.6636 -0.3919
   94MOL    C9439340   4.222   3.749   6.561 -0.5041 -0.2486 -0.3140
   94MOL    C9539341   4.201   3.659   6.661 -0.0408 -0.0778 -0.2213
   94MOL    C9639342   4.316   3.264   7.010  0.1713  0.0727 -0.3723
   94MOL    H9739343   4.326   3.472   7.015 -1.5017 -1.4153  1.6104
   94MOL    H9839344   4.085   3.422   6.963  1.2422 -3.1850 -0.1418
   94MOL    H9939345   4.058   3.429   6.786  1.3283 -1.0214 -0.3389
   94MOL   H10039346   4.041   3.858   6.888  2.9342  0.8952  0.9999
   94MOL   H10139347   4.054   4.005   6.705  1.5039  0.5193  2.1219
   94MOL   H10239348   4.214   3.953   6.512 -0.0329  1.0152 -0.1290
   94MOL   H10339349   4.288   3.727   6.478  1.4694  1.0675  0.8514
   94MOL   H10439350   4.238   3.559   6.646  0.5687  0.0699  0.2601
   94MOL   H10539351   4.211   3.252   7.034  0.4806 -0.8587  0.5768
   94MOL   H10639352   4.326   3.183   6.937  0.7182  0.7122 -1.0249
   94MOL   C10739353   4.397   3.235   7.140  0.0622  0.1322 -0.5422
   94MOL   O10839354   4.304   3.233   7.248  0.1154  0.1499  0.1003
   94MOL   C10939355   4.350   3.302   7.368 -0.6957 -0.0778  0.0292
   94MOL   O11039356   4.363   3.437   7.335  0.0937  0.1511  0.7330
   94MOL   C11139357   4.255   3.523   7.315 -0.3964 -0.8361 -0.1680
   94MOL   C11239358   4.125   3.494   7.357 -0.1274 -0.2836  0.0298
   94MOL   C11339359   4.016   3.586   7.348 -0.1866 -0.1965 -0.2069
   94MOL   C11439360   4.037   3.707   7.284 -0.0714  0.3616 -0.2127
   94MOL   C11539361   4.170   3.744   7.243 -0.1748  0.1017 -0.1078
   94MOL   C11639362   4.276   3.654   7.259 -0.8667  0.9860  0.7723
   94MOL   C11739363   4.444   3.088   7.125 -0.3148  0.1726 -0.1987
   94MOL   H11839364   4.479   3.304   7.161  0.0846 -0.2259  0.5356
   94MOL   H11939365   4.448   3.265   7.399 -1.0331 -0.0946  1.1318
   94MOL   H12039366   4.283   3.270   7.448 -0.9546 -1.8404 -0.8686
   94MOL   H12139367   4.101   3.406   7.414  0.1950  0.2892  1.0589
   94MOL   H12239368   3.918   3.566   7.389  0.7594 -3.6962  0.5026
   94MOL   H12339369   3.955   3.773   7.262  1.1394  2.0321  0.2582
   94MOL   H12439370   4.189   3.843   7.205  1.0691 -0.0601  0.0784
   94MOL   H12539371   4.376   3.680   7.229 -0.5856 -0.0012  0.8354
   94MOL   H12639372   4.359   3.031   7.090 -0.1640 -0.1948  0.0331
   94MOL   H12739373   4.465   3.043   7.222  0.0756 -0.8943 -0.7798
   94MOL   C12839374   4.576   3.084   7.042 -0.3243 -0.8305  0.2391
   94MOL   O12939375   4.603   2.953   6.994  0.2111  0.9167  0.5722
   94MOL   C13039376   4.586   2.927   6.856 -0.1164  0.1733  0.1577
   94MOL   O13139377   4.468   2.983   6.811 -0.0244 -0.4819 -0.0525
   94MOL   C13239378   4.426   2.937   6.683  0.3977 -0.6607  0.2878
   94MOL   C13339379   4.511   2.860   6.603  0.5513  0.0965  0.6131
   94MOL   C13439380   4.478   2.828   6.471  0.7583 -0.0135  0.4055
   94MOL   C13539381   4.357   2.877   6.418  0.6276 -0.3083 -0.4324
   94MOL   C13639382   4.260   2.938   6.506  0.3547 -0.0813  0.7451
   94MOL   C13739383   4.300   2.978   6.636 -0.5844  0.0469  0.4089
   94MOL   C13839384   4.693   3.120   7.134 -0.3405 -0.2173 -0.7232
   94MOL   H13939385   4.575   3.148   6.954  0.1020  0.0733  0.8935
   94MOL   H14039386   4.585   2.819   6.844  0.0587  0.0402  1.2411
   94MOL   H14139387   4.678   2.971   6.816  0.2875 -1.0855 -0.3009
   94MOL   H14239388   4.608   2.829   6.638  0.4531 -1.8391 -0.7545
   94MOL   H14339389   4.549   2.772   6.412 -0.5275 -2.0689  0.7449
   94MOL   H14439390   4.332   2.842   6.318 -1.6074  1.9998 -0.7543
   94MOL   H14539391   4.156   2.953   6.481  0.5448 -0.2060 -0.1393
   94MOL   H14639392   4.236   3.041   6.696  0.6916  0.5723  1.2511
   94MOL   H14739393   4.670   3.209   7.192 -1.8458 -0.3429 -1.0911
   94MOL   H14839394   4.711   3.036   7.201  1.6121  0.2434 -0.6478
   94MOL   C14939395   4.820   3.158   7.054 -0.6088  0.2602  0.1122
   94MOL   O15039396   4.808   3.293   7.018 -0.1683  0.6915 -0.1366
   94MOL   C15139397   4.867   3.316   6.889  0.5692  0.2613 -0.0298
   94MOL   O15239398   4.781   3.248   6.786 -0.3753 -0.2101  0.1267
   94MOL   C15339399   4.819   3.259   6.650  0.0401 -0.7689 -0.8105
   94MOL   C15439400   4.733   3.201   6.551 -0.9336 -0.1786 -0.1336
   94MOL   C15539401   4.764   3.203   6.410  0.2550 -0.4415 -0.8338
   94MOL   C15639402   4.889   3.265   6.375 -0.4627 -0.3724 -0.1932
   94MOL   C15739403   4.971   3.325   6.471  0.3069 -0.4406 -0.6568
   94MOL   C15839404   4.936   3.319   6.604 -0.3485 -0.3262 -0.0289
   94MOL   C15939405   4.949   3.141   7.145  0.6745 -0.6519  0.0033
   94MOL   H16039406   4.820   3.092   6.967  1.9054 -1.8271  1.6400
   94MOL   H16139407   4.871   3.422   6.866  1.6688  0.5665  1.5462
   94MOL   H16239408   4.970   3.282   6.880 -0.0950 -1.6791 -0.6679
   94MOL   H16339409   4.645   3.152   6.590 -0.5044 -0.6005  0.3215
   94MOL   H16439410   4.698   3.150   6.343 -0.4213  0.0123 -0.5366
   94MOL   H16539411   4.916   3.281   6.272  0.4506 -0.2914  0.0526
   94MOL   H16639412   5.063   3.377   6.451  0.2403  0.3022  0.8985
   94MOL   H16739413   5.000   3.361   6.680 -1.7072  3.4819 -0.8802
   94MOL   H16839414   4.925   3.197   7.236  0.2157 -1.6912  0.5233
   94MOL   H16939415   5.032   3.188   7.092 -1.0297 -0.3888 -2.5762
   94MOL   C17039416   4.982   2.999   7.191  0.5141 -0.1810  0.1126
   94MOL   O17139417   5.080   2.934   7.103 -0.4051  0.2085 -0.5317
   94MOL   C17239418   5.021   2.848   7.012  0.8074  0.5008 -0.1797
   94MOL   O17339419   4.971   2.912   6.901  0.3849 -0.1284 -0.6192
   94MOL   C17439420   4.933   2.839   6.792 -0.2494  0.0911  0.2537
   94MOL   C17539421   4.919   2.698   6.785  0.4116  0.1329  0.6100
   94MOL   C17639422   4.883   2.639   6.663 -0.3331 -0.3488  0.5085
   94MOL   C17739423   4.866   2.714   6.550 -0.1177 -0.3598 -0.8142
   94MOL   C17839424   4.878   2.853   6.560 -0.4731 -0.3450  0.5701
   94MOL   C17939425   4.916   2.917   6.676 -0.2479 -0.8604  0.0497
   94MOL   C18039426   5.042   2.989   7.331  0.1168 -0.3819  0.1861
   94MOL   H18139427   4.891   2.939   7.192  0.0078  0.5936  0.6711
   94MOL   H18239428   4.942   2.786   7.053  0.0833  0.9461 -0.8858
   94MOL   H18339429   5.111   2.795   6.980  1.9805  1.9836  0.6351
   94MOL   H18439430   4.951   2.636   6.867  2.3967  0.9141  0.4417
   94MOL   H18539431   4.876   2.532   6.654  0.7620 -0.4813  1.1360
   94MOL   H18639432   4.851   2.661   6.458  2.2207 -3.7698  0.6639
   94MOL   H18739433   4.856   2.905   6.467 -1.1646 -2.8528 -0.7127
   94MOL   H18839434   4.928   3.024   6.676 -0.4024 -0.7945  2.8612
   94MOL   H18939435   5.137   3.041   7.327  0.7913 -1.6339 -0.2706
   94MOL   H19039436   4.975   3.038   7.401  0.1779 -0.3508  0.2231
   94MOL   C19139437   5.063   2.842   7.379 -1.2768  0.0483 -0.4226
   94MOL   O19239438   4.941   2.788   7.432 -0.2711  0.1119 -0.3165
   94MOL   C19339439   4.909   2.661   7.395 -0.3210 -0.4720 -0.0617
   94MOL   O19439440   4.851   2.649   7.266  0.1150  0.2769  0.0498
   94MOL   C19539441   4.793   2.529   7.231 -0.0367  0.2957  0.0003
   94MOL   C19639442   4.783   2.408   7.303 -0.8997  0.1147 -0.1883
   94MOL   C19739443   4.734   2.290   7.245  0.6561  0.3450  0.0258
   94MOL   C19839444   4.685   2.291   7.113 -0.1376  0.3203 -0.0642
   94MOL   C19939445   4.712   2.403   7.031 -0.8333 -0.2432  0.6120
   94MOL   C20039446   4.764   2.519   7.091 -0.2528  0.2139  0.0076
   94MOL   C20139447   5.189   2.835   7.480  0.4349  0.3854 -0.1731
   94MOL   H20239448   5.094   2.779   7.297  2.1037  0.5653  0.3770
   94MOL   H20339449   4.842   2.619   7.470  0.3919 -1.4846  0.0199
   94MOL   H20439450   5.002   2.605   7.385  0.2404  0.8048 -2.3665
   94MOL   H20539451   4.803   2.412   7.409 -0.3444  1.4065 -0.3299
   94MOL   H20639452   4.729   2.199   7.303  2.1583  0.0802 -0.2386
   94MOL   H20739453   4.641   2.198   7.081  0.7326 -0.0136 -0.3170
   94MOL   H20839454   4.692   2.394   6.925  0.3017 -0.4794  0.4028
   94MOL   H20939455   4.789   2.606   7.031 -1.5160  0.3448 -0.3523
   94MOL   H21039456   5.185   2.924   7.544  0.3498  0.6795 -0.5839
   94MOL   H21139457   5.166   2.746   7.537  2.5740  1.0624  1.8127
   94MOL   C21239458   5.330   2.807   7.421  0.1843  0.2763 -0.1509
   94MOL   O21339459   5.375   2.934   7.368 -0.2595 -0.4292  0.1885
   94MOL   C21439460   5.392   2.931   7.231  0.0745  0.1749  0.1567
   94MOL   O21539461   5.508   2.864   7.194 -0.0319 -0.3220  0.1497
   94MOL   C21639462   5.594   2.921   7.100 -0.1905 -0.8139 -0.6944
   94MOL   C21739463   5.637   3.057   7.103 -0.5411 -0.3421  1.1068
   94MOL   C21839464   5.727   3.103   7.009  0.6943 -0.5018 -0.1513
   94MOL   C21939465   5.780   3.017   6.913  0.2121 -0.7523  0.6854
   94MOL   C22039466   5.738   2.882   6.904  0.0900  0.2059 -0.0074
   94MOL   C22139467   5.640   2.838   6.998  0.4997  0.2352 -0.3067
   94MOL   C22239468   5.434   2.781   7.539 -0.2968 -0.9800 -0.2707
   94MOL   H22339469   5.339   2.723   7.352 -0.4844 -3.6249  4.2112
   94MOL   H22439470   5.394   3.035   7.199  1.3115  0.5505  1.4095
   94MOL   H22539471   5.313   2.889   7.169 -0.6238  3.0307 -0.9984
   94MOL   H22639472   5.606   3.128   7.178  0.4559 -1.0611  2.2199
   94MOL   H22739473   5.774   3.200   7.006  0.7811 -0.5663 -1.3034
   94MOL   H22839474   5.852   3.061   6.845  0.7000  0.8324  2.1973
   94MOL   H22939475   5.776   2.810   6.833  0.9914  1.3294 -0.6859
   94MOL   H23039476   5.604   2.737   6.990 -0.8619  0.5439  1.6494
   94MOL   H23139477   5.533   2.802   7.499  0.2149  1.3093  2.0722
   94MOL   H23239478   5.404   2.846   7.621 -0.2077 -2.2001  0.7456
   94MOL   C23339479   5.439   2.627   7.585  0.4061 -0.1303 -0.2766
   94MOL   O23439480   5.497   2.553   7.473 -0.0199 -0.0766 -1.0642
   94MOL   C23539481   5.443   2.425   7.453  0.1738 -0.0983 -0.0514
   94MOL   O23639482   5.316   2.437   7.401 -0.0830 -0.4899  0.1279
   94MOL   C23739483   5.295   2.474   7.275 -0.2557 -0.7455  0.0990
   94MOL   C23839484   5.163   2.451   7.227  0.3195  0.2044 -0.9443
   94MOL   C23939485   5.129   2.484   7.095  0.1340  0.0052 -0.4542
   94MOL   C24039486   5.221   2.544   7.007  0.1315  0.8785 -0.5849
   94MOL   C24139487   5.351   2.561   7.050 -0.3841 -0.3835 -0.5357
   94MOL   C24239488   5.389   2.528   7.183 -0.1564  1.1442  0.2063
   94MOL   C24339489   5.539   2.602   7.700 -0.1674  0.2753 -0.2242
   94MOL   H24439490   5.339   2.591   7.610  0.6247 -1.6676 -1.5476
   94MOL   H24539491   5.422   2.372   7.545  0.1553  3.0057  1.7897
   94MOL   H24639492   5.502   2.368   7.381 -1.4508 -0.2157 -1.3438
   94MOL   H24739493   5.096   2.406   7.300  0.3400  2.7273  0.6754
   94MOL   H24839494   5.025   2.468   7.072 -1.1043  0.8529  4.1366
   94MOL   H24939495   5.194   2.576   6.907  2.2678  0.7494 -1.2323
   94MOL   H25039496   5.427   2.593   6.981  0.3388 -2.0598 -0.5358
   94MOL   H25139497   5.492   2.542   7.213  0.5320 -0.7851 -1.1425
   94MOL   H25239498   5.545   2.494   7.712 -0.4563  0.3590  0.7027
   94MOL   H25339499   5.633   2.644   7.664 -0.3273  0.2545 -0.6798
   94MOL   C25439500   5.496   2.674   7.831  0.7397 -0.0408 -0.1169
   94MOL   O25539501   5.370   2.617   7.874 -0.2449  0.0392 -0.2519
   94MOL   C25639502   5.277   2.707   7.925 -0.7302 -0.2231  0.0797
   94MOL   O25739503   5.182   2.744   7.831  0.0491 -0.0329 -0.1230
   94MOL   C25839504   5.079   2.834   7.858 -0.1430  0.2945  0.6121
   94MOL   C25939505   5.067   2.909   0.001  0.0187  0.1821  0.9530
   94MOL   C26039506   4.960   2.998   0.027  0.4391  0.0701  0.1740
   94MOL   C26139507   4.865   3.017   7.905 -0.3747 -0.0495  0.0486
   94MOL   C26239508   4.873   2.950   7.780  0.0157 -0.6827 -0.3195
   94MOL   C26339509   4.977   2.857   7.760 -0.3975  0.2763 -0.6135
   94MOL   C26439510   5.594   2.639   7.945  0.2509  0.0384 -0.3755
   94MOL   H26539511   5.494   2.781   7.813  0.4069  0.2979  1.8820
   94MOL   H26639512   5.327   2.789   0.001 -0.1267 -1.8732  2.1919
   94MOL   H26739513   5.227   2.642   0.022 -1.6529 -0.7385 -0.9898
   94MOL   H26839514   5.146   2.899   0.073  0.7388 -0.6397  0.0782
   94MOL   H26939515   4.967   3.057   0.117 -0.3897 -0.7968  0.8240
   94MOL   H27039516   4.796   3.100   7.908 -0.4202 -0.1313  1.8530
   94MOL   H27139517   4.802   2.973   7.702  0.4929  1.5716 -0.1386
   94MOL   H27239518   4.972   2.798   7.669  3.7210  1.7259 -1.9174
   94MOL   H27339519   5.558   2.665   0.069  3.7905  3.3120  0.1588
   94MOL   H27439520   5.601   2.530   7.942 -1.3551 -0.0862  0.0380
   94MOL   C27539521   5.738   2.695   7.930  0.4518  0.3191  0.3065
   94MOL   O27639522   5.733   2.832   7.957  0.0964  0.1715 -0.1283
   94MOL   C27739523   5.787   2.923   7.868 -0.6716 -0.7022 -0.1885
   94MOL   O27839524   5.716   2.929   7.751  0.1470  0.3572  0.1491
   94MOL   C27939525   5.619   3.019   7.730  0.1488  0.0801  0.2765
   94MOL   C28039526   5.591   3.066   7.601 -0.1068  0.0918 -0.1404
   94MOL   C28139527   5.489   3.162   7.575  0.0893  0.6794  0.2174
   94MOL   C28239528   5.414   3.212   7.684 -0.1714  0.1024 -0.4021
   94MOL   C28339529   5.438   3.163   7.811  0.1565  0.0884  0.2393
   94MOL   C28439530   5.543   3.068   7.834  0.2539  0.1109  0.0209
   94MOL   C28539531   5.829   2.615   0.053 -0.5656  0.6039 -0.5402
   94MOL   H28639532   5.773   2.677   7.828 -2.0430 -0.2596 -0.4804
   94MOL   H28739533   5.884   2.891   7.830 -0.3770 -0.4132  0.3048
   94MOL   H28839534   5.794   3.020   7.917  0.7517 -1.3076  0.8385
   94MOL   H28939535   5.633   3.025   7.510  2.2030  2.8011 -0.3553
   94MOL   H29039536   5.473   3.196   7.473 -1.6536  0.1857  0.2991
   94MOL   H29139537   5.331   3.279   7.666  0.7971  1.3198 -0.4489
   94MOL   H29239538   5.377   3.190   7.896 -0.4284  3.3358 -1.1228
   94MOL   H29339539   5.570   3.028   7.931  0.5291 -1.2997 -0.6326
   94MOL   H29439540   5.844   2.510   0.029  2.4726  0.7932  0.2846
   94MOL   H29539541   5.783   2.606   0.152  1.5039  1.6061  0.5420
   94MOL   C29639542   5.972   2.681   0.063 -0.2372 -0.0396  0.4047
   94MOL   O29739543   6.036   2.634   0.179 -0.1767 -0.1259  0.3887
   94MOL   C29839544   5.999   2.681   0.297 -0.0580  0.6988 -0.1374
   94MOL   O29939545   6.071   2.794   0.331 -0.2305 -0.1842  0.3517
   94MOL   C30039546   6.020   2.918   0.323 -0.2813  0.0425 -0.2259
   94MOL   C30139547   6.102   3.024   0.374  0.3378  0.4877  0.8596
   94MOL   C30239548   6.062   3.161   0.358 -0.2491  0.0805 -0.0530
   94MOL   C30339549   5.938   3.189   0.293 -0.2794  0.0050  0.1194
   94MOL   C30439550   5.859   3.086   0.248  0.3249 -0.1676 -0.1633
   94MOL   C30539551   5.900   2.950   0.257  0.6298 -0.1124 -0.2019
   94MOL   C30639552   6.061   2.651   7.918 -0.0820  0.1249 -0.0702
   94MOL   H30739553   5.961   2.789   0.074 -2.8360 -0.2128 -0.1363
   94MOL   H30839554   6.046   2.608   0.363  1.7898 -0.4278 -2.5929
   94MOL   H30939555   5.891   2.681   0.314 -0.1377 -1.8132 -0.3923
   94MOL   H31039556   6.202   3.007   0.410  0.8920  0.0819 -0.8107
   94MOL   H31139557   6.135   3.236   0.381  0.5302 -0.5610 -0.4302
   94MOL   H31239558   5.901   3.286   0.264 -0.0798  0.0356 -0.0384
   94MOL   H31339559   5.771   3.112   0.192 -0.7306  1.7168  2.2679
   94MOL   H31439560   5.833   2.875   0.218 -2.9209  1.9926  1.6312
   94MOL   H31539561   5.992   2.634   7.836 -0.8788 -0.3987  0.7010
   94MOL   H31639562   6.124   2.563   7.931  0.3109 -0.0620 -3.0266
   94MOL   C31739563   6.174   2.756   7.888  0.3146 -0.0109  0.2050
   94MOL   O31839564   6.254   2.703   7.783 -1.0559  0.3609  0.0567
   94MOL   C31939565   6.216   2.718   7.652 -0.1427  0.1738  0.5243
   94MOL   O32039566   6.085   2.673   7.619 -0.3302 -0.0263  0.1442
   94MOL   C32139567   6.039   2.716   7.496  0.1123  0.8090  0.6099
   94MOL   C32239568   5.900   2.746   7.484 -0.2448  0.2721 -0.8057
   94MOL   C32339569   5.839   2.761   7.356  0.1648 -0.3897  0.5112
   94MOL   C32439570   5.922   2.760   7.245  0.2577 -0.2796  0.1233
   94MOL   C32539571   6.063   2.738   7.256 -0.0932 -0.3458  0.0741
   94MOL   C32639572   6.121   2.716   7.379 -0.1488  0.4448 -0.7422
   94MOL   C32739573   6.260   2.786   0.036  0.5510 -0.1775 -0.2284
   94MOL   H32839574   6.123   2.848   7.859  1.0246  0.0202 -0.9882
   94MOL   H32939575   6.286   2.661   7.591 -1.4691 -0.5439 -0.3485
   94MOL   H33039576   6.227   2.825   7.636 -1.5995  0.1155 -1.1113
   94MOL   H33139577   5.842   2.741   7.575 -0.5558  0.0434 -1.0161
   94MOL   H33239578   5.731   2.765   7.346  0.2242 -0.3194 -0.1035
   94MOL   H33339579   5.882   2.783   7.147 -1.3267  0.0490  0.8215
   94MOL   H33439580   6.124   2.740   7.166  0.4726 -0.5715  0.4460
   94MOL   H33539581   6.226   2.689   7.373 -0.1191  0.5889 -0.8623
   94MOL   H33639582   6.201   2.821   0.121 -1.9293 -1.4875 -1.3438
   94MOL   H33739583   6.299   2.687   0.062  1.9434 -0.1047 -2.0149
   94MOL   C33839584   6.360   2.902   0.019  0.2930 -0.1038  0.4915
   94MOL   O33939585   6.290   3.020   0.005  0.2640  0.3067  0.2319
   94MOL   C34039586   6.329   3.107   7.872 -0.2965  0.6186 -1.0100
   94MOL   O34139587   6.252   3.081   7.758  0.1411  0.1256  0.1024
   94MOL   C34239588   6.123   3.130   7.756  0.5564  0.1043 -0.0791
   94MOL   C34339589   6.060   3.123   7.630  0.0140  0.3773 -0.0899
   94MOL   C34439590   5.934   3.183   7.624  0.2027  0.3640 -0.1775
   94MOL   C34539591   5.869   3.241   7.737  0.1580  0.1638 -0.1648
   94MOL   C34639592   5.928   3.237   7.862 -0.0590  0.8162  0.0247
   94MOL   C34739593   6.053   3.177   7.873 -0.9186  0.3484 -0.1714
   94MOL   C34839594   6.453   2.938   0.144  0.1611  0.7065  0.5522
   94MOL   H34939595   6.418   2.873   7.907  0.8227 -1.7613  1.3666
   94MOL   H35039596   6.432   3.091   7.842  0.2132  0.4205  0.7712
   94MOL   H35139597   6.326   3.210   7.908  3.6257 -0.1088  1.6233
   94MOL   H35239598   6.115   3.089   7.544 -0.5640  0.4000 -0.4795
   94MOL   H35339599   5.881   3.185   7.530 -0.7470 -0.5669  0.3357
   94MOL   H35439600   5.773   3.289   7.727 -0.7969 -1.5554  0.5630
   94MOL   H35539601   5.882   3.273   7.953 -0.8427  3.2166 -1.2782
   94MOL   H35639602   6.095   3.170   7.972  0.5877 -4.1735 -1.0128
   94MOL   H35739603   6.503   2.849   0.182  0.0129  0.1841 -0.4692
   94MOL   H35839604   6.381   2.970   0.220 -1.8208  0.5523 -1.2406
   94MOL   C35939605   6.559   3.047   0.127 -0.5370 -0.0274 -0.0749
   94MOL   O36039606   6.663   2.979   0.058 -0.5405  0.1098 -0.2545
   94MOL   C36139607   6.731   3.066   7.949  0.0336  0.3294 -0.4310
   94MOL   O36239608   6.671   3.072   7.829 -0.4601  0.3564  0.0684
   94MOL   C36339609   6.739   3.111   7.714 -0.4408  0.2110 -0.1040
   94MOL   C36439610   6.876   3.148   7.710  0.5428  0.5728 -0.2107
   94MOL   C36539611   6.938   3.191   7.587 -0.4168 -0.0114 -0.8894
   94MOL   C36639612   6.866   3.199   7.469 -0.1970  0.7094  0.0509
   94MOL   C36739613   6.730   3.147   7.468 -0.0227  0.2722 -0.8341
   94MOL   C36839614   6.667   3.108   7.587  0.4589  0.6174 -0.4165
   94MOL   C36939615   6.603   3.116   0.260 -0.2803  0.1591  0.2523
   94MOL   H37039616   6.516   3.126   0.066  0.7854  2.4647  2.1162
   94MOL   H37139617   6.828   3.020   7.932  0.0809  0.1310  0.3736
   94MOL   H37239618   6.751   3.163   0.020 -0.9995 -0.6162  2.0416
   94MOL   H37339619   6.936   3.149   7.800 -1.0961  1.5160  0.9012
   94MOL   H37439620   7.042   3.222   7.585 -0.2609 -0.5108 -0.7426
   94MOL   H37539621   6.905   3.243   7.378 -2.0773 -1.6087 -1.9640
   94MOL   H37639622   6.684   3.145   7.370 -2.4027 -0.0003  0.2604
   94MOL   H37739623   6.562   3.086   7.581  0.2390  0.9576  1.6286
   94MOL   H37839624   6.699   3.161   0.236 -0.8923  1.5055  0.2542
   94MOL   H37939625   6.619   3.036   0.333  2.5173  0.5778  0.1352
   94MOL   C38039626   6.517   3.233   0.319  0.1750  0.3450 -0.3116
   94MOL   O38139627   6.522   3.328   0.220  0.1156 -0.9836  0.0272
   94MOL   C38239628   6.393   3.393   0.193 -0.1784 -0.1068  0.1039
   94MOL   O38339629   6.345   3.472   0.293 -0.0044  0.5502  0.4100
   94MOL   C38439630   6.221   3.528   0.291 -0.2603 -0.1691 -0.4842
   94MOL   C38539631   6.153   3.559   0.170 -0.3526 -0.5497  0.3732
   94MOL   C38639632   6.031   3.630   0.172 -0.9759 -0.8841  0.2094
   94MOL   C38739633   5.971   3.652   0.292  0.9019  0.5379  0.8675
   94MOL   C38839634   6.033   3.621   0.413 -0.6777  0.0490 -0.1237
   94MOL   C38939635   6.163   3.565   0.417 -0.2890  0.1179  0.3942
   94MOL   C39039636   6.571   3.285   0.459 -0.4103 -0.1287  0.4141
   94MOL   H39139637   6.417   3.196   0.343  0.7781 -0.0877  1.6290
   94MOL   H39239638   6.415   3.455   0.106 -0.9470  0.7663  0.5210
   94MOL   H39339639   6.322   3.318   0.157 -0.6403  1.0091 -1.3919
   94MOL   H39439640   6.199   3.555   0.072 -0.0747 -0.6354  0.5050
   94MOL   H39539641   5.997   3.660   0.074 -0.8177 -1.1196  0.0818
   94MOL   H39639642   5.871   3.693   0.298  0.5533 -0.3970  1.6081
   94MOL   H39739643   5.984   3.636   0.509  0.1218  2.1595 -0.0088
   94MOL   H39839644   6.211   3.549   0.512  0.9874  1.9911  0.0698
   94MOL   H39939645   6.530   3.384   0.479  1.0346  0.2935  1.4573
   94MOL   H40039646   6.680   3.296   0.466 -0.2866 -0.9210 -0.2126
   94MOL   C40139647   6.533   3.202   0.582  0.1573  0.0394 -0.0732
   94MOL   O40239648   6.592   3.276   0.691  0.2031  0.0533 -0.2010
   94MOL   C40339649   6.638   3.213   0.806 -0.6187  0.6468 -0.0288
   94MOL   O40439650   6.743   3.126   0.771 -0.6278  0.3706 -0.2663
   94MOL   C40539651   6.764   3.014   0.845  0.3530  0.4598  0.0322
   94MOL   C40639652   6.705   2.985   0.973  0.9927  0.5799 -0.2374
   94MOL   C40739653   6.741   2.870   1.044 -0.1393  0.6409 -0.5562
   94MOL   C40839654   6.838   2.780   0.994  0.6702 -0.0953  0.0079
   94MOL   C40939655   6.901   2.809   0.874 -0.0185  0.3245 -0.3196
   94MOL   C41039656   6.861   2.924   0.803 -0.3977  0.1491 -0.3621
   94MOL   C41139657   6.390   3.194   0.616 -0.1848  0.7822 -0.5713
   94MOL   H41239658   6.571   3.102   0.564  0.4196 -0.3124  2.3044
   94MOL   H41339659   6.556   3.155   0.850  1.7578 -4.4356 -1.8805
   94MOL   H41439660   6.675   3.287   0.877 -0.0125  0.2666  0.0515
   94MOL   H41539661   6.643   3.061   1.019 -0.2793  0.3779 -1.5636
   94MOL   H41639662   6.699   2.863   1.143  1.1957 -1.4914 -0.1040
   94MOL   H41739663   6.878   2.690   1.037  1.4218  0.0414 -0.3814
   94MOL   H41839664   6.982   2.750   0.835 -1.3144 -1.3852 -0.4703
   94MOL   H41939665   6.918   2.952   0.715  0.0834 -0.9545 -0.4051
   94MOL   H42039666   6.365   3.149   0.712 -4.6303  1.5780 -1.2341
   94MOL   H42139667   6.332   3.143   0.539  0.7734  1.9508 -2.0810
   94MOL   H42239668   6.354   3.297   0.613 -2.8071 -0.1255 -1.7102
   95MOL     C139669   0.359   6.924   2.394  0.0175  1.0058  0.1060
   95MOL     O239670   0.361   7.056   2.434  0.4771  0.4204  0.6067
   95MOL     C339671   0.236   7.098   2.474 -0.0077  0.2062 -0.5074
   95MOL     O439672   0.133   7.083   2.384  0.1001 -0.5640 -0.3430
   95MOL     C539673   0.005   7.084   2.443 -0.7857  0.2792 -0.2766
   95MOL     C639674   7.936   7.142   2.563 -1.2045 -0.1301  0.0878
   95MOL     C739675   7.798   7.147   2.606  0.1297 -0.2518 -0.6930
   95MOL     C839676   7.697   7.090   2.521 -0.2081 -0.1869 -0.3229
   95MOL     C939677   7.746   7.043   2.401  0.0428  0.2566 -0.2542
   95MOL    C1039678   7.878   7.032   2.363 -0.1921 -0.2115  0.3327
   95MOL    C1139679   0.501   6.886   2.347 -0.3745  0.3028  0.2407
   95MOL    H1239680   0.331   6.852   2.471  0.8802  0.7261  0.1627
   95MOL    H1339681   0.208   7.038   2.561  2.3999 -1.1149 -0.5925
   95MOL    H1439682   0.230   7.198   2.517  1.5588  0.7428 -1.5098
   95MOL    H1539683   0.038   7.188   2.623 -1.5225  0.5881 -0.0615
   95MOL    H1639684   7.767   7.179   2.704 -1.0256  0.9486 -1.4287
   95MOL    H1739685   7.597   7.082   2.560 -0.5337 -0.0946 -1.1388
   95MOL    H1839686   7.680   7.012   2.321 -0.9945  1.5296  0.0922
   95MOL    H1939687   7.896   6.986   2.267 -1.2905 -0.2425  0.1274
   95MOL    H2039688   0.571   6.905   2.429 -2.3278 -0.1723  2.0354
   95MOL    H2139689   0.530   6.952   2.265 -0.9677 -2.1076 -1.9684
   95MOL    H2239690   0.290   6.901   2.313  2.1390 -1.1548 -1.1403
   95MOL    C2339691   0.512   6.734   2.295  0.1086 -0.6218  0.6577
   95MOL    O2439692   0.642   6.702   2.232  0.2831  0.2845  0.2544
   95MOL    C2539693   0.735   6.638   2.313 -0.0919 -0.0612  0.1485
   95MOL    O2639694   0.782   6.713   2.415  0.3128 -0.0102 -0.3448
   95MOL    C2739695   0.863   6.821   2.394 -0.8779 -0.4735 -0.4281
   95MOL    C2839696   0.866   6.887   2.267  0.3307 -0.4131  0.4778
   95MOL    C2939697   0.955   6.993   2.244 -0.0994  0.0873 -0.4820
   95MOL    C3039698   1.032   7.043   2.352  0.6615 -0.0605 -0.2461
   95MOL    C3139699   1.008   6.992   2.481 -0.4221  0.2642 -0.8943
   95MOL    C3239700   0.932   6.876   2.503 -0.1507  0.3080  0.1198
   95MOL    C3339701   0.413   6.697   2.187  0.3104 -0.5209 -0.4558
   95MOL    H3439702   0.495   6.671   2.383  1.3796  0.5810  1.7934
   95MOL    H3539703   0.824   6.611   2.256  0.1379  0.6162  0.1895
   95MOL    H3639704   0.699   6.541   2.349  2.3120  0.1276  3.2665
   95MOL    H3739705   0.802   6.849   2.189  0.8525 -3.0861  1.3306
   95MOL    H3839706   0.957   7.038   2.146 -0.9374  0.3496 -0.3798
   95MOL    H3939707   1.090   7.133   2.340  0.5649  0.1444  0.7261
   95MOL    H4039708   1.050   7.045   2.565  1.3163 -0.8705 -1.0024
   95MOL    H4139709   0.919   6.847   2.606 -1.2179  0.8541  0.1464
   95MOL    H4239710   0.421   6.769   2.105  5.5813  0.4539  0.6919
   95MOL    H4339711   0.313   6.700   2.229  1.9303  0.4706  3.5951
   95MOL    C4439712   0.423   6.549   2.138 -0.0569  0.0349  0.0477
   95MOL    O4539713   0.373   6.534   2.004  0.1254 -0.2041  0.4657
   95MOL    C4639714   0.450   6.585   1.897 -0.7810  0.4848 -0.2798
   95MOL    O4739715   0.549   6.492   1.864 -0.3285 -0.2231 -0.3644
   95MOL    C4839716   0.622   6.516   1.750  0.6449 -0.1020 -0.3240
   95MOL    C4939717   0.614   6.631   1.672  0.2061  0.2481 -0.3168
   95MOL    C5039718   0.692   6.657   1.551 -0.1834 -0.5388 -0.0764
   95MOL    C5139719   0.787   6.558   1.523  0.5312 -0.2149  0.2197
   95MOL    C5239720   0.793   6.439   1.607  0.3651  0.0689  0.4874
   95MOL    C5339721   0.714   6.420   1.723 -0.0854 -0.4232  0.1383
   95MOL    C5439722   0.342   6.457   2.231 -0.1744 -0.2905 -0.1851
   95MOL    H5539723   0.520   6.502   2.148 -0.8533 -1.2714  2.1157
   95MOL    H5639724   0.506   6.677   1.917 -0.7150  0.5762 -0.8645
   95MOL    H5739725   0.384   6.614   1.816 -1.7985  0.5551  0.5729
   95MOL    H5839726   0.551   6.714   1.702 -0.6686 -0.7067  0.5303
   95MOL    H5939727   0.688   6.755   1.506  0.4708 -0.0608  0.8933
   95MOL    H6039728   0.852   6.565   1.437  1.6641 -1.2852  0.9761
   95MOL    H6139729   0.865   6.366   1.574 -0.3064 -1.4984  2.3794
   95MOL    H6239730   0.722   6.325   1.774  0.2950  0.7681  2.3433
   95MOL    H6339731   0.373   6.487   2.331 -0.8600  2.9376 -0.8725
   95MOL    H6439732   0.236   6.475   2.210  0.1347  0.4890 -1.1258
   95MOL    C6539733   0.359   6.307   2.207 -0.5506  0.1274 -0.0891
   95MOL    O6639734   0.502   6.281   2.206 -0.4400  0.0165 -0.4872
   95MOL    C6739735   0.530   6.188   2.104  0.4047  0.1566 -0.1693
   95MOL    O6839736   0.505   6.244   1.982  0.4859  0.0953  0.1856
   95MOL    C6939737   0.478   6.150   1.880 -0.4317  0.4379 -0.1613
   95MOL    C7039738   0.398   6.197   1.773  0.4375  0.8375 -0.3442
   95MOL    C7139739   0.382   6.113   1.662  0.3563  0.1686 -0.3094
   95MOL    C7239740   0.428   5.980   1.652 -0.5379  0.6458 -0.9315
   95MOL    C7339741   0.506   5.933   1.758  0.3309  0.4373  0.2719
   95MOL    C7439742   0.536   6.020   1.867  0.4659 -0.6190  0.2351
   95MOL    C7539743   0.285   6.224   2.314  0.2413  0.3890  0.7596
   95MOL    H7639744   0.314   6.284   2.110 -1.6046 -1.9062  0.8551
   95MOL    H7739745   0.474   6.097   2.124 -0.4139  1.2603  2.8905
   95MOL    H7839746   0.636   6.164   2.102  0.4030  0.2523 -1.5143
   95MOL    H7939747   0.345   6.291   1.771  0.4615  0.8799  0.6698
   95MOL    H8039748   0.336   6.147   1.570  1.4085  0.2373 -0.8096
   95MOL    H8139749   0.411   5.928   1.559 -0.1438  2.5811 -2.1060
   95MOL    H8239750   0.551   5.836   1.744 -1.1486 -0.5356  2.0252
   95MOL    H8339751   0.598   5.987   1.949  0.7844  0.1004  0.2883
   95MOL    H8439752   0.352   6.147   2.350  0.2320  0.1638  0.3007
   95MOL    H8539753   0.256   6.287   2.398 -1.8625  0.2563  0.1520
   95MOL    C8639754   0.166   6.150   2.264  0.2618  0.2484  0.2962
   95MOL    O8739755   0.060   6.235   2.221 -0.7677  0.5579 -0.2714
   95MOL    C8839756   7.953   6.292   2.318 -0.0152  0.2079  0.1254
   95MOL    O8939757   7.865   6.193   2.380  0.0115 -0.1394 -0.3408
   95MOL    C9039758   7.788   6.233   2.488 -0.1457  0.3524 -0.4435
   95MOL    C9139759   7.687   6.144   2.526 -0.4304  0.4097 -0.3647
   95MOL    C9239760   7.598   6.170   2.630 -0.2009 -0.3134  0.6965
   95MOL    C9339761   7.610   6.296   2.701  0.3334 -0.5150  0.4810
   95MOL    C9439762   7.707   6.390   2.659 -0.1671  0.5085  0.1495
   95MOL    C9539763   7.802   6.352   2.561  0.2487 -0.5157  0.4294
   95MOL    C9639764   0.195   6.040   2.161  0.1539  0.9332 -0.3223
   95MOL    H9739765   0.124   6.089   2.344 -1.1585  0.7974 -0.0052
   95MOL    H9839766   7.889   6.365   2.269  0.2952  0.5804  0.2750
   95MOL    H9939767   0.039   6.342   2.392  2.6319 -2.4791 -0.1432
   95MOL   H10039768   7.669   6.055   2.467  1.1375  0.9604 -1.7063
   95MOL   H10139769   7.512   6.109   2.653 -0.6197  0.6947  1.9075
   95MOL   H10239770   7.539   6.319   2.779 -1.0848 -2.1278 -0.2915
   95MOL   H10339771   7.704   6.488   2.705 -1.5049  0.3911  0.3137
   95MOL   H10439772   7.860   6.435   2.523 -0.3251 -0.2984  0.0130
   95MOL   H10539773   0.257   6.078   2.079 -0.1714  1.7221 -0.2046
   95MOL   H10639774   0.264   5.971   2.209 -0.6829 -0.7838 -1.5321
   95MOL   C10739775   0.066   5.973   2.107 -0.8716  0.7810 -0.1747
   95MOL   O10839776   0.088   5.889   1.995 -0.0607 -0.3345  0.4162
   95MOL   C10939777   0.144   5.953   1.884  0.1052  0.5707 -0.2145
   95MOL   O11039778   0.084   6.071   1.840 -0.3055  0.2863  0.2954
   95MOL   C11139779   7.970   6.053   1.742 -0.1708 -0.2405  0.4794
   95MOL   C11239780   0.016   6.127   1.626 -0.0506  0.5326  0.5071
   95MOL   C11339781   7.906   6.118   1.517 -0.0804 -0.0278  1.1540
   95MOL   C11439782   7.804   6.026   1.511  0.7437 -0.1686  0.0376
   95MOL   C11539783   7.771   5.963   1.634 -0.1342 -0.0819  1.2740
   95MOL   C11639784   7.861   5.966   1.748 -0.6823  0.4719  0.0540
   95MOL   C11739785   7.958   5.887   2.209  0.7623  0.3987 -0.1374
   95MOL   H11839786   0.012   6.062   2.073  0.8356  1.8433 -0.1749
   95MOL   H11939787   0.143   5.882   1.802 -0.5733  1.4330 -0.9584
   95MOL   H12039788   0.251   5.963   1.900 -0.1726  0.9162  1.5628
   95MOL   H12139789   0.107   6.185   1.615 -1.1232  1.8555 -1.7937
   95MOL   H12239790   7.938   6.184   1.438  0.3639 -1.7217 -0.1134
   95MOL   H12339791   7.729   6.025   1.434  0.6160  2.8465  0.0758
   95MOL   H12439792   7.691   5.889   1.639 -1.6278  1.3668 -0.4950
   95MOL   H12539793   7.840   5.896   1.827 -1.8332  0.8675  0.1138
   95MOL   H12639794   7.962   5.939   2.304  0.4277  0.2605 -0.0480
   95MOL   H12739795   0.042   5.796   2.220 -0.7498 -0.9093 -2.2000
   95MOL   C12839796   7.816   5.855   2.167  0.4419  0.1759  0.8525
   95MOL   O12939797   7.727   5.953   2.222  0.0093 -0.6116 -0.1726
   95MOL   C13039798   7.719   6.072   2.140  0.4703 -0.0326  0.1966
   95MOL   O13139799   7.663   6.060   2.013  0.7108 -0.1902 -0.4416
   95MOL   C13239800   7.528   6.033   2.006  0.8085 -0.0958  0.3668
   95MOL   C13339801   7.440   5.984   2.106  0.0795  0.2180  0.0715
   95MOL   C13439802   7.312   5.943   2.072  0.8381  0.0022  0.5536
   95MOL   C13539803   7.257   5.947   1.942  0.4684  0.4740  0.2924
   95MOL   C13639804   7.338   6.012   1.844 -0.1014  1.1779  0.4858
   95MOL   C13739805   7.471   6.053   1.876  1.1938  0.0118 -0.7104
   95MOL   C13839806   7.772   5.719   2.235  0.8725 -0.3796  0.5032
   95MOL   H13939807   7.802   5.839   2.060 -1.3321 -1.0057  1.2332
   95MOL   H14039808   7.815   6.123   2.139  0.3228  0.3697  2.8072
   95MOL   H14139809   7.651   6.137   2.197 -0.4205  0.0275 -0.9203
   95MOL   H14239810   7.477   5.952   2.203 -1.2510 -0.6042  0.3248
   95MOL   H14339811   7.248   5.901   2.148  0.0566 -1.6290 -0.9417
   95MOL   H14439812   7.155   5.915   1.925  0.8982 -0.6370 -0.2954
   95MOL   H14539813   7.307   6.010   1.740  0.6150 -2.1871  0.2837
   95MOL   H14639814   7.543   6.101   1.811 -0.4253  1.2756 -1.6133
   95MOL   H14739815   7.850   5.643   2.230 -1.4402 -2.8993  1.9383
   95MOL   H14839816   7.776   5.736   2.342  0.1140  2.2604  0.1624
   95MOL   C14939817   7.637   5.659   2.189 -0.4160  0.1892  0.7243
   95MOL   O15039818   7.675   5.587   2.068 -0.4505 -0.1168 -0.4821
   95MOL   C15139819   7.607   5.636   1.952 -0.3066 -0.3107  1.0538
   95MOL   O15239820   7.613   5.563   1.828  0.0927 -0.4178  0.4880
   95MOL   C15339821   7.731   5.573   1.750 -0.3320  0.3872  0.0193
   95MOL   C15439822   7.850   5.621   1.815 -0.1162  0.1139  0.2542
   95MOL   C15539823   7.969   5.633   1.737 -0.1576  0.4233  0.5202
   95MOL   C15639824   7.959   5.628   1.599 -0.1243  0.2588 -0.5970
   95MOL   C15739825   7.845   5.575   1.540  0.1263  0.2185  0.6678
   95MOL   C15839826   7.726   5.542   1.612 -0.6629  0.1453 -0.4412
   95MOL   C15939827   7.567   5.557   2.285  0.2961 -0.3428 -0.7227
   95MOL   H16039828   7.568   5.740   2.165 -1.9250 -1.1434  0.5182
   95MOL   H16139829   7.501   5.657   1.964 -0.2327  1.7210 -1.2137
   95MOL   H16239830   7.639   5.739   1.931  1.5786 -0.6155  2.3770
   95MOL   H16339831   7.855   5.641   1.921 -0.0744 -0.3472  0.3391
   95MOL   H16439832   0.079   5.671   1.791  0.1868 -0.1908  0.4154
   95MOL   H16539833   0.060   5.662   1.530  0.3302 -0.0927 -0.2762
   95MOL   H16639834   7.840   5.559   1.433  1.0328  0.3070  0.6050
   95MOL   H16739835   7.642   5.502   1.558 -0.3678 -0.1529 -0.6815
   95MOL   H16839836   7.633   5.542   2.371 -0.4321 -2.4721 -0.5039
   95MOL   H16939837   7.554   5.455   2.249 -2.1081 -1.1127  2.1003
   95MOL   C17039838   7.431   5.606   2.342 -0.7142 -1.0444 -0.3119
   95MOL   O17139839   7.453   5.731   2.414 -0.0453  0.4793 -0.4497
   95MOL   C17239840   7.385   5.747   2.529  0.5059 -0.0839 -0.4786
   95MOL   O17339841   7.251   5.778   2.511 -0.1668  0.8249 -0.3544
   95MOL   C17439842   7.228   5.903   2.460  0.2135 -0.1724  0.2426
   95MOL   C17539843   7.328   6.003   2.444  0.3548  0.2206 -0.1384
   95MOL   C17639844   7.293   6.133   2.402 -0.0863 -0.5450 -0.6609
   95MOL   C17739845   7.156   6.172   2.393 -0.1034 -0.1115  0.0594
   95MOL   C17839846   7.059   6.077   2.419  0.0546 -0.5094  0.1426
   95MOL   C17939847   7.091   5.942   2.448 -0.0704  0.3854  0.1706
   95MOL   C18039848   7.329   5.623   2.238  0.2149  0.8355 -0.1242
   95MOL   H18139849   7.403   5.532   2.417  0.0283  0.2714  1.2894
   95MOL   H18239850   7.441   5.825   2.581 -1.6187  0.1251  1.5605
   95MOL   H18339851   7.390   5.657   2.591 -0.6871 -0.5954 -1.1211
   95MOL   H18439852   7.435   5.985   2.445  0.4957  1.0458 -0.4934
   95MOL   H18539853   7.366   6.212   2.396 -0.8470  0.3673  1.3493
   95MOL   H18639854   7.128   6.274   2.368 -0.6923  0.0244  1.2141
   95MOL   H18739855   6.959   6.115   2.409  0.4486  0.8041  1.0613
   95MOL   H18839856   7.026   5.859   2.470 -1.3304  0.8562 -1.7012
   95MOL   H18939857   7.249   5.689   2.270 -0.8740  0.5393 -2.1431
   95MOL   H19039858   7.363   5.678   2.150  0.4401 -1.9272 -1.8308
   95MOL   C19139859   7.277   5.487   2.199 -0.2482  0.1973 -0.2807
   95MOL   O19239860   7.345   5.449   2.078  0.0863 -0.8803  0.7412
   95MOL   C19339861   7.366   5.313   2.049 -0.2230 -0.2960  1.0689
   95MOL   O19439862   7.261   5.254   1.979 -0.0962 -0.2798  0.4350
   95MOL   C19539863   7.229   5.318   1.859  0.2458 -0.2770  0.7265
   95MOL   C19639864   7.087   5.328   1.822 -0.1974  0.4199 -0.5648
   95MOL   C19739865   7.051   5.415   1.718  0.7234  0.0732 -1.2468
   95MOL   C19839866   7.150   5.486   1.647 -0.4052 -0.0768  0.2020
   95MOL   C19939867   7.287   5.476   1.677 -0.5303  0.7449 -0.2826
   95MOL   C20039868   7.330   5.389   1.782  0.5189  0.2876  0.1397
   95MOL   C20139869   7.125   5.491   2.156 -0.5116 -0.1015  1.0161
   95MOL   H20239870   7.279   5.410   2.276 -0.5892  0.6728  0.2093
   95MOL   H20339871   7.382   5.246   2.133 -1.7113  0.0742  1.6752
   95MOL   H20439872   7.460   5.311   1.994 -0.4936 -1.9478  0.6410
   95MOL   H20539873   7.014   5.262   1.866  0.1337 -0.6915 -1.6544
   95MOL   H20639874   6.947   5.425   1.689  0.4242 -0.4485 -0.3666
   95MOL   H20739875   7.120   5.555   1.569 -1.3821  0.2936  0.9000
   95MOL   H20839876   7.353   5.540   1.619  0.8013  0.5778  1.0172
   95MOL   H20939877   7.434   5.364   1.797  0.0924 -2.4772 -1.1504
   95MOL   H21039878   7.120   5.566   2.077 -2.9285 -0.1338  1.1025
   95MOL   H21139879   7.095   5.401   2.103  0.0971  0.4031 -0.1910
   95MOL   C21239880   7.017   5.502   2.264 -0.6469 -0.3079  0.9528
   95MOL   O21339881   6.889   5.541   2.217 -0.4949 -0.4269 -0.0741
   95MOL   C21439882   6.860   5.673   2.187  0.3362  0.3715  0.3912
   95MOL   O21539883   6.901   5.719   2.055  0.4957 -0.1646 -0.0066
   95MOL   C21639884   6.834   5.666   1.949 -0.3610  0.1699  0.2663
   95MOL   C21739885   6.737   5.559   1.953  0.3456  0.2655  0.6916
   95MOL   C21839886   6.674   5.521   1.834 -0.9662  0.6882 -0.1893
   95MOL   C21939887   6.703   5.582   1.712 -0.0158 -0.0835 -0.6004
   95MOL   C22039888   6.797   5.680   1.707 -0.2144  0.0847 -0.0414
   95MOL   C22139889   6.862   5.727   1.824  0.3266 -0.6059  0.8207
   95MOL   C22239890   6.997   5.370   2.339 -0.3242 -0.0648  0.3494
   95MOL   H22339891   7.047   5.580   2.334 -1.1903  1.4948 -0.8128
   95MOL   H22439892   6.907   5.743   2.256 -1.0026  1.7906 -0.0779
   95MOL   H22539893   6.753   5.694   2.186 -0.3517 -2.8989 -1.5973
   95MOL   H22639894   6.712   5.507   2.044  2.3170 -0.1671  1.0248
   95MOL   H22739895   6.599   5.445   1.849  2.2185 -2.0163  3.0550
   95MOL   H22839896   6.649   5.556   1.623 -0.9000  1.0900 -0.4113
   95MOL   H22939897   6.817   5.735   1.616 -0.1685 -1.8078 -1.2145
   95MOL   H23039898   6.919   5.819   1.825  1.3047 -1.2070  1.5739
   95MOL   H23139899   6.917   5.318   2.287 -1.6021  2.9801 -0.8434
   95MOL   H23239900   7.084   5.305   2.328  1.5016  2.3403  0.1810
   95MOL   C23339901   6.941   5.391   2.485  0.6900 -0.3382 -0.1039
   95MOL   O23439902   6.913   5.265   2.541  0.2718  0.1460 -0.2260
   95MOL   C23539903   6.790   5.205   2.511  0.3802 -0.1959 -0.0401
   95MOL   O23639904   6.681   5.296   2.532 -0.3630  1.4579  0.8775
   95MOL   C23739905   6.666   5.347   2.658 -0.1553  0.2319 -0.0855
   95MOL   C23839906   6.709   5.285   2.784  0.2441 -0.1400  0.2056
   95MOL   C23939907   6.661   5.344   2.903  0.1999 -0.3071 -0.4739
   95MOL   C24039908   6.582   5.464   2.903  0.1416 -0.3488 -0.2159
   95MOL   C24139909   6.540   5.517   2.783 -0.1114 -0.1394 -0.2930
   95MOL   C24239910   6.579   5.458   2.662  0.0845 -0.3481  0.9553
   95MOL   C24339911   7.064   5.434   2.574 -0.0196  0.1266  0.2090
   95MOL   H24439912   6.868   5.471   2.481  0.8338 -0.2206 -0.4157
   95MOL   H24539913   6.761   5.128   2.584  2.3803  0.4021  1.4122
   95MOL   H24639914   6.781   5.167   2.409  1.9935  0.5057 -0.4566
   95MOL   H24739915   6.766   5.193   2.787  0.6346  0.0607 -0.9980
   95MOL   H24839916   6.691   5.307   3.000 -1.7079  1.0050  0.6553
   95MOL   H24939917   6.546   5.517   2.990 -0.4854 -0.1054 -0.6155
   95MOL   H25039918   6.481   5.608   2.784 -1.7524 -1.1637 -1.1235
   95MOL   H25139919   6.539   5.495   2.569  2.0268 -2.2285 -0.6756
   95MOL   H25239920   7.137   5.353   2.575  0.7973  0.8364 -0.4971
   95MOL   H25339921   7.124   5.515   2.533  0.0578  0.8588  1.7013
   95MOL   C25439922   7.032   5.489   2.715  0.2090 -0.1866  0.1986
   95MOL   O25539923   7.152   5.501   2.785  0.7565 -0.1077  0.3804
   95MOL   C25639924   7.170   5.407   2.885  0.3268 -1.0447 -0.0045
   95MOL   O25739925   7.302   5.406   2.914 -0.2858  0.0177 -0.1308
   95MOL   C25839926   7.336   5.327   3.022 -0.2994 -0.7586 -0.7142
   95MOL   C25939927   7.447   5.370   3.097 -0.3527  0.1771 -0.9219
   95MOL   C26039928   7.487   5.308   3.220 -0.1596 -0.1249  0.0149
   95MOL   C26139929   7.413   5.191   3.259  0.3592  0.6126  0.0923
   95MOL   C26239930   7.306   5.147   3.178  0.3609  0.4844  0.0747
   95MOL   C26339931   7.272   5.210   3.059 -0.2316 -0.7090  0.1466
   95MOL   C26439932   6.958   5.630   2.692  0.1891  0.3520 -0.4540
   95MOL   H26539933   6.962   5.424   2.766  0.3415 -0.0338  0.5741
   95MOL   H26639934   7.129   5.309   2.860  0.1424 -0.8025 -0.6728
   95MOL   H26739935   7.129   5.442   2.980  0.1499 -3.3386  0.8120
   95MOL   H26839936   7.513   5.447   3.059  0.2073  0.5954  0.8486
   95MOL   H26939937   7.567   5.348   3.280 -0.0282 -1.3340  0.6488
   95MOL   H27039938   7.442   5.137   3.348  0.9057 -0.3677 -0.6774
   95MOL   H27139939   7.252   5.056   3.198 -0.1901  1.2892  2.3875
   95MOL   H27239940   7.188   5.162   3.011  0.2568 -1.1481 -0.2825
   95MOL   H27339941   7.013   5.689   2.617 -1.4325  0.7708 -1.3448
   95MOL   H27439942   6.855   5.618   2.659  0.7900 -0.3991 -2.1213
   95MOL   C27539943   6.934   5.716   2.819  0.0334  0.7774 -0.3336
   95MOL   O27639944   6.879   5.838   2.775  0.4351  0.5250  0.0566
   95MOL   C27739945   6.966   5.950   2.763 -0.0499 -0.7461 -0.0560
   95MOL   O27839946   7.020   5.984   2.888 -0.3043 -0.3749  0.1180
   95MOL   C27939947   7.095   6.099   2.902 -0.0484 -0.0329  0.7557
   95MOL   C28039948   7.096   6.153   3.037 -0.2773 -0.8548  0.2105
   95MOL   C28139949   7.183   6.269   3.060 -0.4206  0.2595  0.1278
   95MOL   C28239950   7.239   6.340   2.953  0.6579 -0.2243 -0.2640
   95MOL   C28339951   7.226   6.288   2.824 -0.6480  0.0650  0.2851
   95MOL   C28439952   7.165   6.161   2.801 -0.2942 -0.8904  0.8543
   95MOL   C28539953   6.837   5.656   2.924  0.0067 -0.6297  1.1861
   95MOL   H28639954   7.031   5.731   2.866  0.9031 -1.3108 -1.4169
   95MOL   H28739955   6.911   6.033   2.720 -0.4593  0.1216  2.0894
   95MOL   H28839956   7.044   5.920   2.693  0.7600  2.3995 -0.5686
   95MOL   H28939957   7.044   6.118   3.125 -2.9291 -1.6749 -1.6334
   95MOL   H29039958   7.198   6.312   3.158 -0.9026 -0.3527  0.4768
   95MOL   H29139959   7.300   6.429   2.964  1.1233 -0.5185 -0.4434
   95MOL   H29239960   7.264   6.346   2.742  0.2358 -0.3382  0.4009
   95MOL   H29339961   7.158   6.113   2.705  1.6190 -0.1523  0.3150
   95MOL   H29439962   6.824   5.548   2.917  0.2338 -0.6350  0.8262
   95MOL   H29539963   6.735   5.685   2.895 -0.1645 -1.6624  0.7467
   95MOL   C29639964   6.860   5.720   3.065 -0.1044 -0.0018  0.5530
   95MOL   O29739965   6.740   5.722   3.139 -0.4826  0.1959 -0.1910
   95MOL   C29839966   6.669   5.836   3.136 -0.2549 -0.1279 -0.3496
   95MOL   O29939967   6.609   5.855   3.009  0.5405 -0.0166  0.0109
   95MOL   C30039968   6.557   5.981   2.996  0.3923  0.3060 -0.2177
   95MOL   C30139969   6.557   6.028   2.868  0.6151 -0.0717  0.8497
   95MOL   C30239970   6.504   6.152   2.841 -0.2181  0.2319  0.8283
   95MOL   C30339971   6.449   6.237   2.936 -0.1754  0.0342 -0.1240
   95MOL   C30439972   6.457   6.193   3.069  0.4577  0.0780  0.1904
   95MOL   C30539973   6.522   6.069   3.102  0.2543  1.1940 -0.6773
   95MOL   C30639974   6.964   5.646   3.140  0.2340  0.3068 -0.5827
   95MOL   H30739975   6.898   5.821   3.052 -3.0554  0.8412 -1.9982
   95MOL   H30839976   6.727   5.923   3.169 -0.8003 -0.1349  0.6321
   95MOL   H30939977   6.583   5.827   3.202  0.2420  0.4984  0.3968
   95MOL   H31039978   6.592   5.963   2.790 -0.1218 -1.0992  1.3675
   95MOL   H31139979   6.504   6.190   2.739 -1.2532  0.5936  0.9571
   95MOL   H31239980   6.411   6.335   2.913 -1.5206 -0.3717  0.3543
   95MOL   H31339981   6.420   6.240   3.159  0.9087 -1.3096  1.1074
   95MOL   H31439982   6.528   6.043   3.207 -0.6202 -0.8810 -1.1141
   95MOL   H31539983   7.034   5.596   3.073  0.7252 -0.9178  0.7940
   95MOL   H31639984   6.916   5.559   3.187 -0.6955  0.0806 -1.9253
   95MOL   C31739985   7.052   5.728   3.243 -0.2668  0.0836 -0.4064
   95MOL   O31839986   7.145   5.641   3.325  0.5370 -0.2267 -0.1342
   95MOL   C31939987   7.255   5.594   3.254  0.2589  0.1795 -0.5978
   95MOL   O32039988   7.339   5.703   3.220 -0.0492 -0.1862 -0.3288
   95MOL   C32139989   7.422   5.752   3.317  0.0105 -0.8089  0.5003
   95MOL   C32239990   7.519   5.844   3.273  0.6455  0.0997  1.1934
   95MOL   C32339991   7.600   5.920   3.356 -0.5176  0.3458 -0.8634
   95MOL   C32439992   7.576   5.905   3.492 -0.2507  0.1158 -0.1809
   95MOL   C32539993   7.486   5.809   3.543  0.7501 -0.8293  0.0744
   95MOL   C32639994   7.411   5.733   3.454  0.1037 -0.0066 -0.6261
   95MOL   C32739995   6.966   5.802   3.340  0.0631 -0.0156 -0.2717
   95MOL   H32839996   7.116   5.800   3.191 -1.3374  0.9597 -0.5176
   95MOL   H32939997   7.231   5.552   3.156 -0.5520  0.7762 -0.6602
   95MOL   H33039998   7.307   5.522   3.317  1.7522  0.0236 -1.9616
   95MOL   H33139999   7.541   5.855   3.167 -0.2814  0.6810  1.0600
   95MOL   H33240000   7.670   5.994   3.318 -0.5343  2.2195  2.5951
   95MOL   H33340001   7.630   5.963   3.566 -1.9967 -0.0802  1.2912
   95MOL   H33440002   7.455   5.816   3.646  3.6397 -1.0291  1.0080
   95MOL   H33540003   7.342   5.658   3.489 -0.0381  0.3158 -0.2163
   95MOL   H33640004   6.910   5.869   3.274  0.7361 -0.5853 -1.4377
   95MOL   H33740005   6.902   5.732   3.394 -1.6681  1.5007 -0.2826
   95MOL   C33840006   7.054   5.892   3.438 -0.2647 -0.1035  0.5251
   95MOL   O33940007   7.106   5.990   3.344  0.0435 -0.3475 -0.1650
   95MOL   C34040008   7.202   6.069   3.400 -0.2238  0.5140  0.5935
   95MOL   O34140009   7.155   6.181   3.470 -0.2108  0.6002 -0.5302
   95MOL   C34240010   7.237   6.226   3.570 -0.4780 -0.0061  0.4974
   95MOL   C34340011   7.383   6.229   3.555  0.3268 -0.0139  0.3309
   95MOL   C34440012   7.467   6.304   3.641  0.6907  0.8549 -0.4990
   95MOL   C34540013   7.402   6.371   3.747 -0.6823 -0.5580  0.3897
   95MOL   C34640014   7.268   6.353   3.773 -0.5938  0.0749  0.1008
   95MOL   C34740015   7.178   6.280   3.690  0.2246 -0.1323  0.2664
   95MOL   C34840016   6.964   5.964   3.539  0.3598  1.2631 -0.0149
   95MOL   H34940017   7.141   5.844   3.482  1.0763  1.5452 -0.2433
   95MOL   H35040018   7.255   6.112   3.314 -0.8006  0.9054  0.4286
   95MOL   H35140019   7.289   6.020   3.443  0.4370 -0.6403 -1.9240
   95MOL   H35240020   7.426   6.184   3.467 -1.5157  2.5643 -1.9666
   95MOL   H35340021   7.574   6.315   3.626  0.8807  1.0976  0.9625
   95MOL   H35440022   7.459   6.432   3.815  2.8910  0.6482 -3.5281
   95MOL   H35540023   7.222   6.418   3.847 -2.0335  0.2229 -0.9064
   95MOL   H35640024   7.072   6.296   3.699  0.3394  1.2614 -0.6236
   95MOL   H35740025   6.897   6.029   3.482  0.4230  1.8449  0.5692
   95MOL   H35840026   7.023   6.033   3.599  1.9793  1.1704 -1.4418
   95MOL   C35940027   6.883   5.865   3.629  0.3328  0.0713 -0.2004
   95MOL   O36040028   6.797   5.945   3.709 -0.4378  0.5684 -0.5378
   95MOL   C36140029   6.680   5.987   3.654  0.6440  0.6746  0.5305
   95MOL   O36240030   6.607   5.892   3.581  0.1804  0.4850  0.5971
   95MOL   C36340031   6.489   5.931   3.520  0.3622  0.1382 -0.4231
   95MOL   C36440032   6.423   5.825   3.447  0.8548  0.8119 -0.0494
   95MOL   C36540033   6.296   5.858   3.398 -0.1477 -0.1673 -0.3619
   95MOL   C36640034   6.244   5.986   3.406  1.3119  0.2875  0.9790
   95MOL   C36740035   6.309   6.088   3.471 -0.3321  0.3436  0.4042
   95MOL   C36840036   6.437   6.063   3.527 -0.4226 -0.4026 -0.3569
   95MOL   C36940037   6.976   5.777   3.720 -0.4332 -1.0510  0.3866
   95MOL   H37040038   6.815   5.801   3.574 -1.3627 -0.0096  1.9249
   95MOL   H37140039   6.703   6.077   3.596 -1.7405 -0.0744 -1.7153
   95MOL   H37240040   6.619   6.016   3.739 -1.3667 -1.2874 -0.1777
   95MOL   H37340041   6.478   5.733   3.439  3.2658  2.2121  0.1156
   95MOL   H37440042   6.232   5.784   3.353  0.0225 -0.1314 -0.6635
   95MOL   H37540043   6.149   5.999   3.357  0.5226 -0.4887  2.2941
   95MOL   H37640044   6.273   6.190   3.481  0.4480  0.4401  2.4204
   95MOL   H37740045   6.481   6.147   3.579 -1.1230  0.3456 -0.9622
   95MOL   H37840046   7.015   5.836   3.803  0.6995 -1.3980  0.1213
   95MOL   H37940047   7.060   5.742   3.660 -0.1452 -1.9392  1.2943
   95MOL   C38040048   6.892   5.658   3.775 -0.0005 -0.0496  0.3388
   95MOL   O38140049   6.959   5.608   3.894  0.8378  0.4047  0.1905
   95MOL   C38240050   7.093   5.565   3.881  0.2642 -0.5564 -0.7395
   95MOL   O38340051   7.113   5.452   3.801  0.2837 -0.2944 -0.1392
   95MOL   C38440052   7.241   5.442   3.754 -0.8482 -0.3523 -0.6859
   95MOL   C38540053   7.254   5.412   3.617 -0.1914  0.2356  0.2612
   95MOL   C38640054   7.380   5.390   3.555  0.2840  0.2821 -0.5274
   95MOL   C38740055   7.496   5.406   3.621 -0.2973  0.0829  0.7029
   95MOL   C38840056   7.492   5.455   3.757 -0.3420  0.6808  0.7603
   95MOL   C38940057   7.361   5.469   3.823 -0.5307 -0.8073  0.0117
   95MOL   C39040058   6.851   5.552   3.672  0.7964  0.6448 -0.8184
   95MOL   H39140059   6.800   5.706   3.810  0.8033 -1.1365  4.1291
   95MOL   H39240060   7.153   5.647   3.842 -0.2064  0.8340  1.3465
   95MOL   H39340061   7.117   5.529   3.981  3.5828  0.6295 -1.0486
   95MOL   H39440062   7.158   5.393   3.571 -0.1553 -0.8424  0.6077
   95MOL   H39540063   7.378   5.359   3.452  0.0350  1.0907 -0.7709
   95MOL   H39640064   7.590   5.375   3.577  0.2976  0.3408  1.7820
   95MOL   H39740065   7.583   5.466   3.812  0.0353  3.2213 -0.3317
   95MOL   H39840066   7.373   5.490   3.928  4.0837  1.3267 -0.8445
   95MOL   H39940067   6.947   5.525   3.627 -0.7104 -0.9690 -3.1799
   95MOL   H40040068   6.790   5.604   3.599 -1.0842  0.9088  0.8948
   95MOL   C40140069   6.773   5.427   3.724  0.2054  0.3733 -0.3585
   95MOL   O40240070   6.637   5.474   3.720 -0.5142 -0.0931  0.1043
   95MOL   C40340071   6.546   5.427   3.808 -0.1954 -0.4148  0.3113
   95MOL   O40440072   6.574   5.441   3.938  0.3712  0.0873  0.2143
   95MOL   C40540073   6.587   5.571   3.990  0.6989  1.0871  0.4872
   95MOL   C40640074   6.563   5.692   3.922  0.5546  0.3729  0.3323
   95MOL   C40740075   6.570   5.822   3.983 -0.6050 -0.5658  0.6315
   95MOL   C40840076   6.617   5.827   4.114  0.1021  0.3634  0.4112
   95MOL   C40940077   6.653   5.707   4.184  0.0435 -0.2685 -0.6906
   95MOL   C41040078   6.631   5.578   4.121  0.0126 -0.2296 -0.9497
   95MOL   C41140079   6.794   5.304   3.630  0.4666 -0.0965  0.4204
   95MOL   H41240080   6.813   5.408   3.824 -2.6862 -0.7511  0.6228
   95MOL   H41340081   6.545   5.318   3.809  2.2316 -0.5250 -2.1769
   95MOL   H41440082   6.449   5.466   3.777  0.5259 -0.7069 -2.4859
   95MOL   H41540083   6.532   5.687   3.819  2.9597 -3.2277 -0.3480
   95MOL   H41640084   6.553   5.917   3.935  0.7783 -0.4709  0.3380
   95MOL   H41740085   6.639   5.927   4.149  1.5337 -0.0337  0.6789
   95MOL   H41840086   6.690   5.713   4.285 -1.7037 -1.7845  0.0716
   95MOL   H41940087   6.632   5.491   4.184  1.7614 -0.9091 -1.8683
   95MOL   H42040088   6.742   5.226   3.686  0.2691 -0.3348 -0.0981
   95MOL   H42140089   6.902   5.294   3.615  0.5708 -0.9416  1.6812
   95MOL   H42240090   6.759   5.306   3.527  1.0589 -0.4008  0.2088
   96MOL     C140091   5.714   2.255   4.324  0.7550 -0.4012 -0.3636
   96MOL     O240092   5.736   2.152   4.425  0.3736  0.6667  0.1241
   96MOL     C340093   5.634   2.118   4.506  0.0932 -0.5034  0.0189
   96MOL     O440094   5.591   2.235   4.569  0.3278 -0.1458 -0.5258
   96MOL     C540095   5.471   2.218   4.648 -0.0458  0.2795  0.0283
   96MOL     C640096   5.419   2.332   4.705 -0.1010  0.3488 -0.7046
   96MOL     C740097   5.307   2.328   4.782 -0.1175  0.8570 -0.1323
   96MOL     C840098   5.240   2.205   4.801 -0.3115  0.2485 -1.2330
   96MOL     C940099   5.287   2.087   4.740 -0.0179 -0.3853  0.0004
   96MOL    C1040100   5.403   2.090   4.663 -0.1954 -0.0474 -0.6323
   96MOL    C1140101   5.809   2.248   4.204 -0.1208 -0.3980  0.0081
   96MOL    H1240102   5.614   2.245   4.281  1.7562 -4.0354 -1.9695
   96MOL    H1340103   5.559   2.091   4.432 -0.5925  2.7950 -0.5330
   96MOL    H1440104   5.655   2.039   4.579 -0.2635 -0.6657 -0.0544
   96MOL    H1540105   5.467   2.429   4.697 -0.3317  0.3993 -1.5079
   96MOL    H1640106   5.273   2.416   4.834  0.1795  1.2665 -0.6309
   96MOL    H1740107   5.163   2.193   4.875  2.7400 -3.3759  1.5556
   96MOL    H1840108   5.229   2.000   4.767  2.0293 -1.2286  1.8254
   96MOL    H1940109   5.437   2.001   4.612  0.2387 -0.7712  0.8825
   96MOL    H2040110   5.785   2.152   4.158 -1.0969  0.2998 -0.9471
   96MOL    H2140111   5.912   2.244   4.241  0.4963  1.5583 -1.4145
   96MOL    H2240112   5.737   2.349   4.375 -1.7564  0.4894 -0.7697
   96MOL    C2340113   5.793   2.369   4.107 -0.0906 -0.0413 -0.2808
   96MOL    O2440114   5.849   2.338   3.981 -0.2694  0.2954 -0.1042
   96MOL    C2540115   5.748   2.307   3.886 -0.4544 -0.1919 -0.6434
   96MOL    O2640116   5.675   2.204   3.930 -0.1507  0.2260 -0.1446
   96MOL    C2740117   5.647   2.099   3.842  0.2113 -0.1899 -0.1676
   96MOL    C2840118   5.604   2.115   3.713  0.3962 -0.3344 -0.9182
   96MOL    C2940119   5.560   2.003   3.639 -0.0082 -0.1846  0.0377
   96MOL    C3040120   5.570   1.872   3.697  0.0707  0.1776  0.0378
   96MOL    C3140121   5.615   1.852   3.827  0.0468  0.5206 -1.0668
   96MOL    C3240122   5.652   1.973   3.903 -0.0354  0.8803  0.5568
   96MOL    C3340123   5.866   2.489   4.164 -0.0037 -0.2388  0.3102
   96MOL    H3440124   5.688   2.396   4.102 -0.3450 -0.8383  0.6308
   96MOL    H3540125   5.796   2.292   3.790  0.5495 -0.4962 -0.0974
   96MOL    H3640126   5.674   2.386   3.877 -1.2715 -0.7628  0.8627
   96MOL    H3740127   5.597   2.216   3.678 -0.5830 -0.6202 -1.5914
   96MOL    H3840128   5.520   2.013   3.539  0.3826 -2.9268 -0.4476
   96MOL    H3940129   5.534   1.785   3.644  0.3802  0.5193 -0.7527
   96MOL    H4040130   5.606   1.760   3.883 -0.6121  0.3124 -1.5037
   96MOL    H4140131   5.681   1.960   4.007  1.5625 -0.3218 -0.0245
   96MOL    H4240132   5.972   2.464   4.175  0.1289  0.1236 -0.1393
   96MOL    H4340133   5.829   2.510   4.264 -0.6682 -2.3210  0.5292
   96MOL    C4440134   5.864   2.616   4.078 -0.1408 -0.0546  0.0646
   96MOL    O4540135   5.979   2.694   4.094  0.0590  0.6910 -0.0827
   96MOL    C4640136   6.058   2.717   3.983 -0.2629  0.5169 -0.6380
   96MOL    O4740137   5.991   2.779   3.876  0.1408 -0.1476  0.1921
   96MOL    C4840138   5.960   2.917   3.875 -0.1911  0.3986  0.7772
   96MOL    C4940139   5.964   2.993   3.992  0.1757 -0.8292 -0.0406
   96MOL    C5040140   5.926   3.126   3.995 -0.6585 -0.4877  0.0234
   96MOL    C5140141   5.896   3.187   3.871  0.1063 -0.8124 -0.4295
   96MOL    C5240142   5.892   3.111   3.756 -0.1475 -0.6812 -0.1750
   96MOL    C5340143   5.921   2.977   3.755 -0.1365 -0.1432 -0.3351
   96MOL    C5440144   5.746   2.707   4.119 -1.0393  0.4844 -0.2877
   96MOL    H5540145   5.861   2.593   3.972 -1.5151  1.8800 -0.3370
   96MOL    H5640146   6.112   2.631   3.942 -0.0809  0.2453  0.1673
   96MOL    H5740147   6.139   2.784   4.010 -0.0516 -0.3437  0.9325
   96MOL    H5840148   5.990   2.947   4.086  0.9273  0.7707  0.5686
   96MOL    H5940149   5.917   3.192   4.079 -2.4610  0.4836 -0.9135
   96MOL    H6040150   5.868   3.291   3.873  2.5727 -0.1338  0.8974
   96MOL    H6140151   5.856   3.150   3.661  0.5401 -0.2756 -0.2739
   96MOL    H6240152   5.925   2.912   3.669 -1.8636 -0.1126 -0.4513
   96MOL    H6340153   5.730   2.695   4.226 -0.0926 -1.3630 -0.3346
   96MOL    H6440154   5.769   2.810   4.094  1.5643  0.1124  0.4437
   96MOL    C6540155   5.617   2.684   4.037  0.3349 -0.5394  0.2784
   96MOL    O6640156   5.503   2.698   4.123 -0.3456  0.3927  0.0227
   96MOL    C6740157   5.465   2.581   4.190  0.1546  0.4923  0.5877
   96MOL    O6840158   5.419   2.482   4.107  0.1579 -0.0640 -0.2203
   96MOL    C6940159   5.391   2.364   4.165 -0.3682 -0.3146  0.1817
   96MOL    C7040160   5.357   2.343   4.301 -0.5609  0.3166  0.0350
   96MOL    C7140161   5.304   2.220   4.341  0.2965  1.0520 -0.1226
   96MOL    C7240162   5.295   2.118   4.248 -0.1689 -0.0805  0.1652
   96MOL    C7340163   5.351   2.128   4.119 -0.1349 -0.1276 -0.3711
   96MOL    C7440164   5.388   2.255   4.071  0.4566 -0.0659 -0.9681
   96MOL    C7540165   5.615   2.771   3.910 -0.2579  0.8392 -0.0050
   96MOL    H7640166   5.614   2.582   3.997  3.9184 -1.5788  2.4432
   96MOL    H7740167   5.382   2.615   4.252 -0.8876  0.6262 -0.8585
   96MOL    H7840168   5.537   2.523   4.247 -0.9787 -1.4606  0.0568
   96MOL    H7940169   5.352   2.421   4.376  0.2600 -0.2455  0.6737
   96MOL    H8040170   5.282   2.200   4.445 -3.3657  0.7129 -0.9030
   96MOL    H8140171   5.251   2.020   4.264  3.1005 -1.6779 -0.1586
   96MOL    H8240172   5.346   2.043   4.052  1.5303 -0.6345  0.1010
   96MOL    H8340173   5.420   2.277   3.970 -2.5622  2.8167 -1.3895
   96MOL    H8440174   5.641   2.874   3.937 -0.7392  0.4284  2.0870
   96MOL    H8540175   5.689   2.738   3.837 -1.2109 -2.7373  0.5859
   96MOL    C8640176   5.484   2.766   3.822 -0.1878  0.7079  0.1086
   96MOL    O8740177   5.501   2.871   3.721  0.0419 -0.2654 -0.1851
   96MOL    C8840178   5.372   2.904   3.674  0.1217 -0.2400 -0.4285
   96MOL    O8940179   5.375   3.025   3.597 -0.1668  0.4313  0.0722
   96MOL    C9040180   5.455   3.130   3.647 -0.0120 -0.2666  0.0880
   96MOL    C9140181   5.508   3.227   3.554 -0.4745  0.0673 -0.3453
   96MOL    C9240182   5.584   3.335   3.611  0.3110 -0.4376 -0.5809
   96MOL    C9340183   5.615   3.340   3.747 -0.2209 -0.8258 -0.3198
   96MOL    C9440184   5.562   3.241   3.836  1.4399 -0.6201 -0.4054
   96MOL    C9540185   5.474   3.144   3.789 -0.1681 -0.1590  0.4697
   96MOL    C9640186   5.450   2.629   3.753  0.6845 -0.4614  0.2059
   96MOL    H9740187   5.405   2.794   3.891  1.3281  4.0608  0.5999
   96MOL    H9840188   5.300   2.929   3.751 -0.5474  1.2135 -1.5147
   96MOL    H9940189   5.328   2.823   3.615 -1.4779  1.0027 -0.9580
   96MOL   H10040190   5.481   3.214   3.451  1.1193 -3.0076 -0.4393
   96MOL   H10140191   5.617   3.404   3.534  0.4997 -0.6979 -0.7351
   96MOL   H10240192   5.685   3.414   3.783 -0.6341 -0.4183 -0.3480
   96MOL   H10340193   5.589   3.233   3.941  0.4068 -3.1534 -0.2961
   96MOL   H10440194   5.432   3.070   3.856  1.5724 -0.7550  0.9117
   96MOL   H10540195   5.457   2.548   3.825  1.1996 -0.6335 -0.0401
   96MOL   H10640196   5.343   2.636   3.730  0.9451 -2.6175 -1.8628
   96MOL   C10740197   5.538   2.596   3.625  0.3732 -1.2091 -0.0433
   96MOL   O10840198   5.648   2.528   3.678 -0.1202  0.0453  0.2592
   96MOL   C10940199   5.769   2.560   3.624  0.2700 -0.5680 -0.1037
   96MOL   O11040200   5.860   2.473   3.674  0.7830  0.5176  0.1333
   96MOL   C11140201   5.989   2.506   3.675 -1.2912  0.3339  0.4063
   96MOL   C11240202   6.079   2.429   3.747  0.3531 -0.1651 -0.0447
   96MOL   C11340203   6.219   2.457   3.750  0.3023 -0.0905  1.0157
   96MOL   C11440204   6.267   2.556   3.664  0.6228 -0.0443  0.4029
   96MOL   C11540205   6.179   2.640   3.596 -0.4900  0.2814  0.7421
   96MOL   C11640206   6.042   2.607   3.593 -0.1217  0.1582  0.9130
   96MOL   C11740207   5.451   2.511   3.533  0.0511 -0.4482 -0.1876
   96MOL   H11840208   5.567   2.690   3.577  0.7925 -1.6740 -0.6999
   96MOL   H11940209   5.791   2.662   3.655  3.0309 -1.4956  1.1108
   96MOL   H12040210   5.766   2.555   3.515  4.0018  0.3173 -0.3308
   96MOL   H12140211   6.040   2.348   3.806  1.6193 -0.8815 -0.1662
   96MOL   H12240212   6.296   2.405   3.806 -0.2277 -1.5503  0.4144
   96MOL   H12340213   6.373   2.577   3.671  0.1933  2.4605 -0.2170
   96MOL   H12440214   6.205   2.733   3.548  1.1722 -2.0649 -3.1520
   96MOL   H12540215   5.977   2.673   3.537 -1.4516 -2.4072 -0.6320
   96MOL   H12640216   5.353   2.556   3.518 -0.0590 -0.0801  1.5289
   96MOL   H12740217   5.415   2.430   3.597 -0.3843  1.5984  2.2207
   96MOL   C12840218   5.516   2.468   3.401  0.5085  0.1484  0.5847
   96MOL   O12940219   5.413   2.453   3.303  0.6456 -0.1191 -0.2100
   96MOL   C13040220   5.410   2.549   3.194 -0.1675  0.2569 -0.1918
   96MOL   O13140221   5.405   2.678   3.241  0.1810  0.1793  0.0345
   96MOL   C13240222   5.274   2.725   3.274  0.2281  0.0011  0.4654
   96MOL   C13340223   5.265   2.859   3.314  0.2295 -0.2676  0.7919
   96MOL   C13440224   5.133   2.918   3.337 -0.2758  0.2445 -0.1321
   96MOL   C13540225   5.018   2.839   3.330  0.7224  0.0950 -0.2156
   96MOL   C13640226   5.024   2.704   3.305 -0.1302  0.5956  0.4358
   96MOL   C13740227   5.152   2.651   3.267 -0.2018 -0.0463  0.4647
   96MOL   C13840228   5.593   2.327   3.400 -0.2689 -0.5213  0.0644
   96MOL   H13940229   5.585   2.548   3.375  2.1793 -1.5886 -0.4610
   96MOL   H14040230   5.335   2.523   3.120  0.1256  0.5718 -0.6019
   96MOL   H14140231   5.501   2.548   3.134 -0.3723  0.2328 -0.5054
   96MOL   H14240232   5.360   2.910   3.311 -0.8623  1.7054 -2.9058
   96MOL   H14340233   5.103   3.022   3.337 -0.3014  0.2431 -1.4895
   96MOL   H14440234   4.925   2.889   3.355  1.9814  2.3941  0.0673
   96MOL   H14540235   4.932   2.648   3.310 -0.1133  0.5958  0.7921
   96MOL   H14640236   5.152   2.548   3.236  1.1570  0.4322 -1.2035
   96MOL   H14740237   5.660   2.329   3.486 -2.5413 -1.0836  1.9002
   96MOL   H14840238   5.522   2.250   3.432  0.3163 -1.3809 -0.6618
   96MOL   C14940239   5.662   2.278   3.268 -0.2265  0.3307 -1.2764
   96MOL   O15040240   5.793   2.256   3.309 -0.4561  0.2836 -0.1074
   96MOL   C15140241   5.877   2.342   3.247 -0.1604  0.0131 -0.0767
   96MOL   O15240242   5.842   2.474   3.282  0.3274 -0.7076 -0.4900
   96MOL   C15340243   5.917   2.581   3.235  0.3405 -0.2965 -0.4161
   96MOL   C15440244   5.868   2.710   3.261  0.1366 -0.0669  0.3347
   96MOL   C15540245   5.929   2.820   3.201 -0.6880  0.3324 -0.6804
   96MOL   C15640246   6.055   2.807   3.135  0.2183 -0.1597  0.1100
   96MOL   C15740247   6.110   2.681   3.119  0.1931  0.1487  0.5496
   96MOL   C15840248   6.034   2.569   3.161 -0.2170  0.6624 -0.8956
   96MOL   C15940249   5.610   2.146   3.206  0.0003  0.2749  0.1167
   96MOL   H16040250   5.642   2.351   3.190 -1.2989  0.5605 -0.7881
   96MOL   H16140251   5.977   2.317   3.283 -0.3777 -0.6330  0.0704
   96MOL   H16240252   5.876   2.320   3.140 -0.8946  0.2149 -0.1137
   96MOL   H16340253   5.776   2.723   3.317  0.8457  3.4719  0.7947
   96MOL   H16440254   5.888   2.919   3.205  0.6476  0.8853 -0.5485
   96MOL   H16540255   6.103   2.894   3.091 -0.3784  1.5183  2.6122
   96MOL   H16640256   6.206   2.662   3.072  0.5406  1.7532  0.6019
   96MOL   H16740257   6.091   2.479   3.145 -1.0287 -0.0182 -0.0102
   96MOL   H16840258   5.501   2.153   3.209 -0.1560 -1.8255 -0.4159
   96MOL   H16940259   5.631   2.070   3.281 -1.2483 -0.8859 -0.6937
   96MOL   C17040260   5.631   2.108   3.058  0.7012 -0.2681 -0.0575
   96MOL   O17140261   5.773   2.085   3.046  0.4916  0.0336 -0.7302
   96MOL   C17240262   5.834   2.113   2.924  0.7404  0.4620  0.1829
   96MOL   O17340263   5.834   2.245   2.898 -0.3901 -0.2476 -0.5478
   96MOL   C17440264   5.902   2.293   2.791 -0.8088  0.3202  0.4639
   96MOL   C17540265   5.960   2.219   2.686  0.7568 -0.1508 -0.3431
   96MOL   C17640266   6.016   2.290   2.582 -0.4637  0.3700  0.2159
   96MOL   C17740267   6.027   2.429   2.576  0.0529  0.9973  0.0650
   96MOL   C17840268   5.979   2.501   2.689  0.9054  0.0353  0.1892
   96MOL   C17940269   5.908   2.431   2.787 -0.8913  0.0552  0.0714
   96MOL   C18040270   5.551   1.983   2.997  0.4561 -0.5459  0.6584
   96MOL   H18140271   5.602   2.199   3.005  0.8186  0.4157  1.0246
   96MOL   H18240272   5.767   2.070   2.850  1.2966 -1.9381  1.0290
   96MOL   H18340273   5.940   2.085   2.920  0.5216 -0.4236  0.3369
   96MOL   H18440274   5.962   2.111   2.680  1.1179 -0.0550 -2.3193
   96MOL   H18540275   6.077   2.242   2.506  1.2911 -1.3807  2.6388
   96MOL   H18640276   6.059   2.476   2.484 -1.0661  1.7117  0.0272
   96MOL   H18740277   5.984   2.609   2.686  1.3891  0.1330  3.1231
   96MOL   H18840278   5.860   2.494   2.860 -0.0493  0.4112  0.3239
   96MOL   H18940279   5.445   2.009   2.997  0.5946  0.0255  1.0751
   96MOL   H19040280   5.587   1.952   2.899 -2.2136 -1.7008 -0.0195
   96MOL   C19140281   5.564   1.860   3.090 -0.4044 -0.1234 -0.4545
   96MOL   O19240282   5.554   1.735   3.024 -0.2572  0.4207 -0.0268
   96MOL   C19340283   5.663   1.690   2.953  0.0339 -0.9989  0.3393
   96MOL   O19440284   5.691   1.756   2.835  0.0184  0.4333 -0.6313
   96MOL   C19540285   5.603   1.737   2.727 -0.0990  0.1460  0.0810
   96MOL   C19640286   5.473   1.682   2.737  0.0032 -0.1563  0.6432
   96MOL   C19740287   5.394   1.665   2.622 -0.1781 -0.0972 -0.5367
   96MOL   C19840288   5.444   1.704   2.495 -0.3288  0.0318  0.3419
   96MOL   C19940289   5.567   1.770   2.492  0.8367 -0.0789  0.1858
   96MOL   C20040290   5.651   1.786   2.601 -0.4164 -0.1598 -0.0425
   96MOL   C20140291   5.460   1.846   3.200 -0.0196 -0.0727  0.4776
   96MOL   H20240292   5.666   1.860   3.128 -0.6978  0.2708  0.3456
   96MOL   H20340293   5.643   1.584   2.937  2.0510 -1.2164 -0.8173
   96MOL   H20440294   5.757   1.693   3.007 -0.3720  4.0564  1.0262
   96MOL   H20540295   5.438   1.659   2.836  0.6755 -0.2453  0.8642
   96MOL   H20640296   5.293   1.629   2.636 -0.1746  0.1632  0.1755
   96MOL   H20740297   5.387   1.701   2.403 -0.8505  0.6627  0.6377
   96MOL   H20840298   5.589   1.807   2.393 -0.4753 -1.4290 -0.6276
   96MOL   H20940299   5.741   1.846   2.603  0.3661 -1.2554 -1.5166
   96MOL   H21040300   5.453   1.940   3.255  0.5736  0.1037  0.2642
   96MOL   H21140301   5.367   1.826   3.147  0.1365  1.7180 -0.5376
   96MOL   C21240302   5.495   1.734   3.301 -0.3330  0.4459  0.1686
   96MOL   O21340303   5.625   1.764   3.356 -0.3384  0.0025  0.0392
   96MOL   C21440304   5.709   1.656   3.394  0.5729  0.4037 -0.0955
   96MOL   O21540305   5.774   1.606   3.279  0.0568 -0.2512  0.1264
   96MOL   C21640306   5.885   1.676   3.235  0.2160  0.6740 -0.1259
   96MOL   C21740307   5.922   1.808   3.271  0.6449 -0.0881  0.1779
   96MOL   C21840308   6.042   1.866   3.224 -0.0254 -0.0838  0.0508
   96MOL   C21940309   6.128   1.785   3.141 -0.2731  0.5643 -0.1023
   96MOL   C22040310   6.098   1.654   3.109 -0.4872 -0.2266 -1.3418
   96MOL   C22140311   5.968   1.602   3.153 -0.1392 -0.7283 -0.5442
   96MOL   C22240312   5.395   1.726   3.427  0.2011  0.1391  0.5044
   96MOL   H22340313   5.501   1.645   3.237 -0.3748 -0.2830  1.1741
   96MOL   H22440314   5.650   1.578   3.442  0.4460 -0.1139 -1.0633
   96MOL   H22540315   5.778   1.691   3.470  2.5152 -3.0462 -0.1670
   96MOL   H22640316   5.865   1.873   3.335 -1.7398 -3.1488  1.3252
   96MOL   H22740317   6.078   1.961   3.261  1.3893 -1.0509  1.2006
   96MOL   H22840318   6.227   1.822   3.118  0.4142 -0.9605  0.3831
   96MOL   H22940319   6.173   1.600   3.054 -0.3648  1.6976 -3.1395
   96MOL   H23040320   5.934   1.502   3.131 -3.1720 -0.3393  2.0797
   96MOL   H23140321   5.420   1.646   3.496 -0.5187 -1.4072 -0.9909
   96MOL   H23240322   5.404   1.815   3.489  0.2790  0.6698 -0.2537
   96MOL   C23340323   5.250   1.714   3.391  0.4442 -0.6958 -0.1176
   96MOL   O23440324   5.192   1.649   3.504 -0.3844  0.1571 -0.3789
   96MOL   C23540325   5.143   1.526   3.483 -0.3773  0.7203 -0.4025
   96MOL   O23640326   5.240   1.430   3.471 -0.1894  0.1280 -0.4363
   96MOL   C23740327   5.343   1.418   3.561  0.3984 -0.2433 -0.0947
   96MOL   C23840328   5.461   1.368   3.509  0.2270  0.4814  0.2531
   96MOL   C23940329   5.578   1.355   3.592 -0.2284 -0.2520  0.2784
   96MOL   C24040330   5.573   1.400   3.728 -0.1259  0.2112  0.6277
   96MOL   C24140331   5.448   1.436   3.781 -0.1719  0.1177 -0.3298
   96MOL   C24240332   5.333   1.450   3.701 -0.7743 -0.7440  0.1981
   96MOL   C24340333   5.177   1.846   3.381  0.6230 -0.3773 -0.7371
   96MOL   H24440334   5.241   1.656   3.299  1.8189 -1.1986  0.0528
   96MOL   H24540335   5.085   1.537   3.392 -1.4248  0.6624  0.2566
   96MOL   H24640336   5.069   1.515   3.562 -1.0745  0.2450 -1.1224
   96MOL   H24740337   5.457   1.333   3.407  4.0156  1.4477 -0.2857
   96MOL   H24840338   5.673   1.324   3.552  0.8036  1.6192  1.2303
   96MOL   H24940339   5.665   1.400   3.786  0.6670 -1.6857 -0.5997
   96MOL   H25040340   5.443   1.452   3.888  1.2293  0.3537 -0.2910
   96MOL   H25140341   5.236   1.482   3.738 -0.0126 -0.6130  2.1580
   96MOL   H25240342   5.114   1.860   3.469  0.8152  0.6742 -0.7527
   96MOL   H25340343   5.257   1.920   3.379  0.2048  0.1681  1.4917
   96MOL   C25440344   5.095   1.866   3.249 -0.1959  0.0348  0.0029
   96MOL   O25540345   4.958   1.886   3.275 -0.0180  0.4020 -0.0061
   96MOL   C25640346   4.892   1.767   3.312 -0.1279  0.3856 -0.1820
   96MOL   O25740347   4.893   1.744   3.445 -0.2518  0.0638  0.2132
   96MOL   C25840348   4.831   1.832   3.533  0.4064  0.3377  0.2282
   96MOL   C25940349   4.748   1.774   3.634  1.0154 -0.8009 -0.4907
   96MOL   C26040350   4.675   1.853   3.723  0.4072  0.2049 -0.7433
   96MOL   C26140351   4.685   1.992   3.707  0.4504  0.1360 -0.4009
   96MOL   C26240352   4.756   2.050   3.603 -0.4477 -0.9101  0.5972
   96MOL   C26340353   4.831   1.972   3.518  0.2946 -0.1481 -0.6096
   96MOL   C26440354   5.144   1.994   3.184  0.8183  0.4530 -0.4069
   96MOL   H26540355   5.113   1.781   3.183 -1.0129  0.1243 -0.3511
   96MOL   H26640356   4.927   1.677   3.261 -2.1356 -0.5045 -0.0289
   96MOL   H26740357   4.790   1.776   3.274 -0.9459 -0.3703  1.7965
   96MOL   H26840358   4.726   1.669   3.629  3.0461 -1.2848  0.1796
   96MOL   H26940359   4.601   1.819   3.795  1.6768 -0.4009  0.2916
   96MOL   H27040360   4.641   2.060   3.779 -0.3630 -1.8853  1.0759
   96MOL   H27140361   4.772   2.157   3.596 -0.3638 -0.9278  0.5118
   96MOL   H27240362   4.876   2.027   3.436 -2.1688  1.7954 -0.7176
   96MOL   H27340363   5.114   2.077   3.249  1.0261  1.1519 -1.1879
   96MOL   H27440364   5.252   2.005   3.181  0.8943 -0.5406 -1.4119
   96MOL   C27540365   5.079   2.012   3.042  0.4031 -0.1072 -0.3102
   96MOL   O27640366   5.105   2.145   3.002 -0.1916 -0.2447  0.0632
   96MOL   C27740367   5.004   2.240   3.015 -0.0112 -0.4256  0.3040
   96MOL   O27840368   4.960   2.251   3.154 -0.1446 -0.1222 -0.1593
   96MOL   C27940369   4.848   2.332   3.172  0.8861 -1.1152  0.5581
   96MOL   C28040370   4.783   2.324   3.296 -0.7892  0.4555 -0.2170
   96MOL   C28140371   4.679   2.407   3.330 -0.8020 -0.3676  0.3804
   96MOL   C28240372   4.634   2.505   3.237  0.4461  0.3275  0.6534
   96MOL   C28340373   4.690   2.511   3.111 -0.6762  0.4149  0.1327
   96MOL   C28440374   4.795   2.424   3.080  0.2268  0.0292  0.1085
   96MOL   C28540375   5.139   1.922   2.938  0.5142 -0.3593  0.5710
   96MOL   H28640376   4.971   2.005   3.048  0.4211 -0.7040 -0.5950
   96MOL   H28740377   4.927   2.206   2.947  1.8127  0.2328 -2.1506
   96MOL   H28840378   5.038   2.338   2.981 -0.2934 -0.6771 -0.7223
   96MOL   H28940379   4.823   2.253   3.367  2.9428  1.5041 -1.1459
   96MOL   H29040380   4.622   2.401   3.421 -2.4168  1.8440 -0.4329
   96MOL   H29140381   4.549   2.566   3.262 -0.4371  0.4380 -2.4948
   96MOL   H29240382   4.657   2.580   3.035 -1.3252 -0.3537 -0.2943
   96MOL   H29340383   4.840   2.445   2.984 -0.7396 -0.3161 -0.4327
   96MOL   H29440384   5.188   1.829   2.969  0.5705 -0.1055  1.2333
   96MOL   H29540385   5.221   1.977   2.891 -0.6067  0.3045 -0.6432
   96MOL   C29640386   5.033   1.877   2.833  0.2964  1.1186  0.1220
   96MOL   O29740387   5.105   1.807   2.727 -0.0742  0.0496  0.2936
   96MOL   C29840388   5.131   1.878   2.606 -0.0449 -0.2502 -0.4327
   96MOL   O29940389   5.020   1.923   2.551  0.5042  0.6088  0.6177
   96MOL   C30040390   5.014   1.993   2.432  0.1646 -0.0129  0.3044
   96MOL   C30140391   5.132   1.999   2.351 -0.3582 -0.0205  0.3414
   96MOL   C30240392   5.131   2.066   2.230  0.3926  0.2139 -0.2137
   96MOL   C30340393   5.012   2.122   2.180 -0.2408 -0.8183 -0.6562
   96MOL   C30440394   4.896   2.117   2.259  0.0366 -0.2586  0.6039
   96MOL   C30540395   4.894   2.052   2.385  0.1279 -0.8748  0.6400
   96MOL   C30640396   4.930   1.777   2.897  0.3629  0.0750  0.1008
   96MOL   H30740397   4.974   1.957   2.789 -1.8114 -0.2969  0.3125
   96MOL   H30840398   5.182   1.804   2.543  0.0458  0.6754 -1.4549
   96MOL   H30940399   5.187   1.969   2.627  1.5267 -1.3927  0.4477
   96MOL   H31040400   5.224   1.948   2.374  0.2219  1.6668  1.8647
   96MOL   H31140401   5.216   2.065   2.164 -0.0083 -0.6049 -0.7263
   96MOL   H31240402   5.013   2.181   2.090  1.2831  0.8387  0.4112
   96MOL   H31340403   4.805   2.155   2.215 -1.0599 -3.4082  0.0476
   96MOL   H31440404   4.801   2.048   2.441  0.9092 -0.7755  1.9783
   96MOL   H31540405   4.898   1.801   2.999 -1.8024  1.2154 -0.8156
   96MOL   H31640406   4.991   1.688   2.912  0.4099 -0.4178 -2.7125
   96MOL   C31740407   4.810   1.729   2.814  0.5125  0.0499  0.4895
   96MOL   O31840408   4.739   1.841   2.760  0.1317 -0.2215 -0.6266
   96MOL   C31940409   4.712   1.830   2.628 -0.4112 -0.8394 -0.0862
   96MOL   O32040410   4.628   1.716   2.602 -0.3600  0.2188  1.1308
   96MOL   C32140411   4.490   1.724   2.622  0.8597 -0.1274  0.3111
   96MOL   C32240412   4.398   1.642   2.552 -0.3895 -0.4704  0.0256
   96MOL   C32340413   4.256   1.654   2.560 -0.3890 -0.5423 -0.3310
   96MOL   C32440414   4.204   1.737   2.661  0.3688 -0.4613 -0.9826
   96MOL   C32540415   4.293   1.822   2.730 -0.0330  0.2141  0.0623
   96MOL   C32640416   4.430   1.821   2.710  0.1536 -0.7783  0.9171
   96MOL   C32740417   4.704   1.669   2.909 -0.0782  0.3479  0.3275
   96MOL   H32840418   4.841   1.665   2.732  0.1092  1.1515 -0.5435
   96MOL   H32940419   4.798   1.834   2.561 -1.3415  1.1057 -1.2319
   96MOL   H33040420   4.658   1.919   2.594 -1.0337 -1.8136 -1.7370
   96MOL   H33140421   4.437   1.586   2.468 -1.6736  0.2952 -1.1084
   96MOL   H33240422   4.189   1.592   2.502 -0.9504 -2.0958  1.9074
   96MOL   H33340423   4.097   1.740   2.676  0.5314 -0.6076  0.2114
   96MOL   H33440424   4.259   1.893   2.804  0.3215 -0.1901  0.6219
   96MOL   H33540425   4.490   1.890   2.768  0.2281 -0.0165 -0.0518
   96MOL   H33640426   4.695   1.734   2.997  0.6614  1.5620 -0.4766
   96MOL   H33740427   4.602   1.676   2.872  0.0145 -2.3470 -0.5364
   96MOL   C33840428   4.724   1.524   2.945 -0.1951 -0.1089 -0.0427
   96MOL   O33940429   4.803   1.532   3.062  0.7064 -0.1256  0.3580
   96MOL   C34040430   4.869   1.413   3.104  0.2487  0.0370  0.7724
   96MOL   O34140431   5.005   1.435   3.142 -1.0838 -0.0742 -0.1456
   96MOL   C34240432   5.107   1.422   3.052 -0.3262 -0.0742 -0.1244
   96MOL   C34340433   5.237   1.449   3.097  0.7933 -0.4942  0.6123
   96MOL   C34440434   5.347   1.441   3.014  0.1758 -0.7077  0.6088
   96MOL   C34540435   5.325   1.425   2.875  0.7200 -0.3200  0.2176
   96MOL   C34640436   5.193   1.402   2.825 -0.5852 -0.3818 -0.4801
   96MOL   C34740437   5.091   1.409   2.918  0.4728 -0.6608 -0.4116
   96MOL   C34840438   4.592   1.450   2.977  0.2602  0.4508  0.3222
   96MOL   H34940439   4.779   1.481   2.862  0.1720 -0.3780  0.3354
   96MOL   H35040440   4.849   1.331   3.034 -2.8435  0.8093  0.6856
   96MOL   H35140441   4.813   1.378   3.190 -0.9778 -1.7535 -0.6939
   96MOL   H35240442   5.253   1.456   3.204 -0.2185 -1.1313  0.8033
   96MOL   H35340443   5.447   1.432   3.054 -0.6048 -0.5714  2.6818
   96MOL   H35440444   5.404   1.419   2.802 -0.0600 -0.6727 -0.6101
   96MOL   H35540445   5.154   1.400   2.725 -3.4127  1.1334  0.5320
   96MOL   H35640446   4.992   1.415   2.875 -0.5638 -0.8904  1.9094
   96MOL   H35740447   4.552   1.511   3.058  0.1015  1.8880 -0.8330
   96MOL   H35840448   4.627   1.363   3.034 -0.2288  0.6165  0.8716
   96MOL   C35940449   4.493   1.411   2.864 -0.1553 -0.6709 -0.1305
   96MOL   O36040450   4.365   1.401   2.932  0.2129  0.1431 -0.0321
   96MOL   C36140451   4.254   1.410   2.851  0.0946 -0.4990 -0.4110
   96MOL   O36240452   4.203   1.288   2.829 -0.2200 -0.5431 -0.5793
   96MOL   C36340453   4.069   1.273   2.817 -0.5019  0.1280  0.9273
   96MOL   C36440454   3.987   1.380   2.769 -0.1042  0.0971 -0.0360
   96MOL   C36540455   3.848   1.366   2.742 -0.7352 -0.1054 -0.1636
   96MOL   C36640456   3.794   1.235   2.758 -0.8306  0.5839 -0.1323
   96MOL   C36740457   3.869   1.131   2.814  0.1219 -0.7091 -0.3397
   96MOL   C36840458   4.006   1.152   2.840  0.1459 -0.3674  0.3438
   96MOL   C36940459   4.522   1.268   2.800 -0.0634 -0.1248 -0.0877
   96MOL   H37040460   4.482   1.495   2.795 -2.3967  0.8262  1.9689
   96MOL   H37140461   4.263   1.466   2.759  0.2975  2.7802  1.5335
   96MOL   H37240462   4.184   1.462   2.917  0.6157  0.2634 -0.4567
   96MOL   H37340463   4.026   1.479   2.750 -1.7541  0.5492 -1.2118
   96MOL   H37440464   3.790   1.452   2.711 -0.0123  0.5345  0.2509
   96MOL   H37540465   3.692   1.216   2.728 -0.8154 -2.2699  1.4577
   96MOL   H37640466   3.827   1.034   2.839 -2.3267  0.5297  0.4911
   96MOL   H37740467   4.077   1.070   2.842 -2.1386 -2.5175 -2.0836
   96MOL   H37840468   4.448   1.241   2.725  1.9566 -1.7653 -1.5383
   96MOL   H37940469   4.509   1.199   2.884 -0.1923  2.0876  1.7433
   96MOL   C38040470   4.657   1.238   2.734  0.1798 -0.2190  0.1700
   96MOL   O38140471   4.680   1.288   2.599 -0.2429  0.4321  0.2284
   96MOL   C38240472   4.691   1.427   2.580 -0.0185  0.2094 -0.1622
   96MOL   O38340473   4.821   1.469   2.588 -0.1310 -0.0272  0.1240
   96MOL   C38440474   4.913   1.410   2.499 -0.2645 -0.8004 -0.7925
   96MOL   C38540475   4.895   1.304   2.403 -0.0430 -0.0929 -0.3511
   96MOL   C38640476   4.995   1.261   2.319 -0.5452  1.1871 -0.4737
   96MOL   C38740477   5.116   1.326   2.313 -0.4555  0.8098 -0.4118
   96MOL   C38840478   5.145   1.428   2.410  0.3837 -0.4913 -0.1101
   96MOL   C38940479   5.043   1.465   2.502 -0.4603 -0.1630 -0.1535
   96MOL   C39040480   4.695   1.082   2.730 -0.7338  0.4693  0.1642
   96MOL   H39140481   4.735   1.281   2.797 -0.9306 -0.8939  2.0835
   96MOL   H39240482   4.642   1.438   2.483 -2.1869 -2.6061  0.5523
   96MOL   H39340483   4.630   1.487   2.648  1.2286 -1.4520  2.4841
   96MOL   H39440484   4.797   1.259   2.391  1.0795 -2.9633  0.6419
   96MOL   H39540485   4.983   1.184   2.245  1.7299 -1.4493  1.7728
   96MOL   H39640486   5.201   1.305   2.249 -0.1928  2.5683 -0.6754
   96MOL   H39740487   5.244   1.472   2.414 -0.3953  1.2499  0.2820
   96MOL   H39840488   5.056   1.543   2.577  1.5169 -1.0897  0.5089
   96MOL   H39940489   4.635   1.032   2.654  1.8380  0.9645 -2.2537
   96MOL   H40040490   4.671   1.037   2.826 -1.2104  0.1194 -0.1209
   96MOL   C40140491   4.849   1.051   2.702  0.0509 -0.6576  0.2808
   96MOL   O40240492   4.941   1.105   2.795 -0.4170 -0.2950  0.2741
   96MOL   C40340493   4.931   1.046   2.923 -0.8055 -0.0354 -0.0548
   96MOL   O40440494   4.825   1.109   2.987 -0.1169 -0.5489 -0.6003
   96MOL   C40540495   4.790   1.065   3.108 -0.0957  0.2444 -0.6342
   96MOL   C40640496   4.886   1.054   3.210 -0.2844 -0.2236 -0.2084
   96MOL   C40740497   4.844   1.013   3.339  0.3114 -0.0137 -0.2200
   96MOL   C40840498   4.708   0.986   3.366  0.3390 -0.0611  0.0022
   96MOL   C40940499   4.614   0.992   3.260  0.5835 -0.2531 -0.0129
   96MOL   C41040500   4.654   1.036   3.136 -0.4676  0.1393 -0.2039
   96MOL   C41140501   4.874   0.907   2.651 -0.7786  0.0841 -0.2390
   96MOL   H41240502   4.881   1.109   2.615  0.9756 -1.1282  0.2985
   96MOL   H41340503   5.026   1.066   2.972  0.7051 -1.3190 -2.3692
   96MOL   H41440504   4.931   0.937   2.919  0.1431 -0.1102  1.3456
   96MOL   H41540505   4.989   1.077   3.190 -0.1795 -0.6624 -0.1691
   96MOL   H41640506   4.923   1.009   3.412  1.3757 -1.5102 -1.4273
   96MOL   H41740507   4.680   0.949   3.463  1.1231 -0.4086  0.1039
   96MOL   H41840508   4.510   0.966   3.275  0.5562 -0.8698 -1.2513
   96MOL   H41940509   4.591   1.028   3.049  0.2161 -1.3109 -0.5772
   96MOL   H42040510   4.843   0.896   2.547 -1.0031  1.4129 -0.3117
   96MOL   H42140511   4.836   0.827   2.714  0.6237  0.2539  0.8353
   96MOL   H42240512   4.980   0.884   2.640 -0.7457 -0.1023  0.4357
   97MOL     C140513   1.523   3.694   4.911  0.4560  0.4205  0.5222
   97MOL     O240514   1.420   3.611   4.966 -0.6555  0.2833  1.1593
   97MOL     C340515   1.465   3.484   4.994 -0.2490  0.5968 -0.5536
   97MOL     O440516   1.508   3.416   4.881  0.0662  0.2456  0.1760
   97MOL     C540517   1.553   3.288   4.882 -0.3943  0.5080 -0.5195
   97MOL     C640518   1.592   3.248   4.758  0.3938 -0.0642  0.1002
   97MOL     C740519   1.644   3.119   4.743 -0.6403  0.3345  0.1642
   97MOL     C840520   1.641   3.028   4.856 -0.6953  0.2742  0.2659
   97MOL     C940521   1.589   3.071   4.976  0.2967  0.2444 -0.4657
   97MOL    C1040522   1.560   3.209   4.997 -0.1606 -0.2120 -0.2352
   97MOL    C1140523   1.469   3.839   4.902 -0.5900 -0.2949  0.1577
   97MOL    H1240524   1.613   3.693   4.972 -0.1815  1.4146  1.4872
   97MOL    H1340525   1.538   3.486   5.075  0.9047 -2.7590 -1.4361
   97MOL    H1440526   1.376   3.430   5.027 -0.3224  0.0336 -1.6529
   97MOL    H1540527   1.575   3.316   4.676  0.4750 -1.6130 -1.2234
   97MOL    H1640528   1.686   3.084   4.650  1.1775  0.3175  0.9631
   97MOL    H1740529   1.683   2.929   4.847  0.2581  0.6088  0.9984
   97MOL    H1840530   1.582   3.012   5.065 -0.4506  4.1305  2.1934
   97MOL    H1940531   1.523   3.247   5.091  0.4195 -0.2810  0.0229
   97MOL    H2040532   1.447   3.869   5.005 -1.6208  0.5020 -0.2784
   97MOL    H2140533   1.377   3.851   4.845  1.5238  1.2610 -3.1292
   97MOL    H2240534   1.544   3.654   4.812  2.2828  0.1659  1.0063
   97MOL    C2340535   1.575   3.937   4.846 -0.5421  0.0367 -0.4633
   97MOL    O2440536   1.684   3.940   4.943  0.6013  0.4029 -0.4321
   97MOL    C2540537   1.819   3.943   4.902  0.3985  0.6396  0.4401
   97MOL    O2640538   1.861   4.076   4.870 -0.0990  0.3626 -0.0199
   97MOL    C2740539   1.875   4.170   4.971  0.0031  0.9265  0.2936
   97MOL    C2840540   1.910   4.300   4.929  0.3165  0.1772 -0.6097
   97MOL    C2940541   1.951   4.389   5.035  0.4210  0.2889 -0.2576
   97MOL    C3040542   1.955   4.352   5.169 -0.6643  0.1562 -0.1913
   97MOL    C3140543   1.914   4.224   5.209  0.3859  0.4123 -0.1992
   97MOL    C3240544   1.863   4.140   5.108  0.2916  0.6143  0.2423
   97MOL    C3340545   1.512   4.075   4.852  0.1226  0.0135  0.8121
   97MOL    H3440546   1.606   3.912   4.745  2.1938 -5.4996  1.5016
   97MOL    H3540547   1.820   3.887   4.808  1.9356  0.9483  0.2640
   97MOL    H3640548   1.880   3.899   4.981  2.6273  2.3416 -0.2850
   97MOL    H3740549   1.918   4.324   4.824  0.6800 -1.6216 -1.0007
   97MOL    H3840550   1.981   4.487   4.999 -1.0916  0.2957 -1.5417
   97MOL    H3940551   1.990   4.423   5.243  1.2898  0.8633 -1.7567
   97MOL    H4040552   1.901   4.198   5.313 -1.1756  1.5028 -0.1049
   97MOL    H4140553   1.815   4.051   5.145 -4.6660  3.0347  0.0107
   97MOL    H4240554   1.576   4.158   4.881  0.0400  0.5220 -0.4343
   97MOL    H4340555   1.439   4.080   4.933 -0.8667 -0.3520 -0.0553
   97MOL    C4440556   1.436   4.099   4.720 -0.1343  0.3215  0.1508
   97MOL    O4540557   1.531   4.102   4.614  0.5228 -0.3054  0.3384
   97MOL    C4640558   1.477   4.068   4.487  0.1264  0.6368  0.1700
   97MOL    O4740559   1.433   3.936   4.482 -0.0368 -0.0390 -0.8883
   97MOL    C4840560   1.519   3.829   4.498  0.4299 -0.2909  0.2792
   97MOL    C4940561   1.660   3.854   4.491  0.1112 -0.1417 -0.5073
   97MOL    C5040562   1.739   3.742   4.528  0.3657  0.3783 -0.6693
   97MOL    C5140563   1.688   3.609   4.547  0.4635  0.4145  0.0501
   97MOL    C5240564   1.550   3.590   4.529 -0.0904 -0.5095  0.2170
   97MOL    C5340565   1.469   3.701   4.512 -0.1696  0.5184 -0.2817
   97MOL    C5440566   1.363   4.233   4.729  0.7504 -0.4277  0.1841
   97MOL    H5540567   1.365   4.019   4.703  1.6058 -1.1885 -0.1598
   97MOL    H5640568   1.541   4.098   4.404  0.9453  0.4185  0.7113
   97MOL    H5740569   1.398   4.141   4.473  0.2449  1.2258  2.3574
   97MOL    H5840570   1.703   3.950   4.464 -0.0383 -0.0722 -0.5028
   97MOL    H5940571   1.846   3.759   4.531  0.4365 -0.3156  1.2489
   97MOL    H6040572   1.754   3.525   4.560  1.3616  1.3816  2.0583
   97MOL    H6140573   1.497   3.496   4.534 -1.0295 -0.0247 -0.3877
   97MOL    H6240574   1.361   3.695   4.507 -0.1861  0.3239  0.2383
   97MOL    H6340575   1.352   4.270   4.831  0.9290 -0.9702  0.4018
   97MOL    H6440576   1.436   4.310   4.704  0.7111 -0.0238  1.2830
   97MOL    C6540577   1.236   4.244   4.642 -0.0141  0.3792 -0.0323
   97MOL    O6640578   1.121   4.259   4.726  0.3827  0.0892 -0.2329
   97MOL    C6740579   1.093   4.160   4.825  0.4414 -0.2910 -0.0908
   97MOL    O6840580   1.156   4.183   4.950  0.5774 -0.4802  0.5865
   97MOL    C6940581   1.101   4.287   5.026  0.4212  0.0985 -0.1366
   97MOL    C7040582   1.168   4.314   5.145  0.5725  0.1616 -0.2799
   97MOL    C7140583   1.111   4.394   5.245  0.5479 -0.7330  0.1548
   97MOL    C7240584   0.984   4.448   5.227 -1.1441  0.7379  0.6140
   97MOL    C7340585   0.924   4.435   5.097 -0.5567  0.3139 -0.4546
   97MOL    C7440586   0.980   4.355   4.997  0.0978 -0.2099 -0.0014
   97MOL    C7540587   1.252   4.359   4.538  0.5533 -0.3477 -0.6233
   97MOL    H7640588   1.214   4.160   4.576  0.9758  2.2284 -2.8391
   97MOL    H7740589   1.123   4.071   4.770  0.7177  0.4430 -1.1541
   97MOL    H7840590   0.988   4.141   4.843  0.0373  1.7031 -0.1659
   97MOL    H7940591   1.264   4.269   5.165  0.2550 -0.6299 -0.5380
   97MOL    H8040592   1.173   4.403   5.333  0.6267 -1.2465  0.1528
   97MOL    H8140593   0.936   4.496   5.311  3.6676  0.5438  3.6409
   97MOL    H8240594   0.823   4.470   5.078 -0.4088  0.0908 -1.6724
   97MOL    H8340595   0.923   4.342   4.906 -1.3539  1.3896  0.6576
   97MOL    H8440596   1.344   4.350   4.481 -0.1963 -2.8760 -1.5059
   97MOL    H8540597   1.164   4.351   4.473 -0.8734 -0.3448  1.2526
   97MOL    C8640598   1.246   4.498   4.591 -0.3035  0.4724  0.1367
   97MOL    O8740599   1.309   4.585   4.498  0.1836  0.3657 -0.1032
   97MOL    C8840600   1.434   4.639   4.528 -0.1494  0.8287  0.4010
   97MOL    O8940601   1.522   4.545   4.575 -0.5812  0.4932 -0.0834
   97MOL    C9040602   1.588   4.461   4.489  0.3509  0.5643 -0.0350
   97MOL    C9140603   1.678   4.372   4.547  0.0396 -0.3074  0.7003
   97MOL    C9240604   1.760   4.289   4.469 -0.5269  0.5010 -0.1762
   97MOL    C9340605   1.743   4.273   4.336 -0.0177 -0.0900 -0.2933
   97MOL    C9440606   1.645   4.354   4.274  0.9688 -0.5260 -0.0779
   97MOL    C9540607   1.572   4.451   4.348  0.1004  0.4335  1.1020
   97MOL    C9640608   1.104   4.554   4.613  0.1770 -0.4777  0.0942
   97MOL    H9740609   1.302   4.513   4.683  0.7368 -1.0519 -0.2271
   97MOL    H9840610   1.420   4.724   4.596 -0.5011  0.1410  1.1977
   97MOL    H9940611   1.461   4.683   4.432  0.5304  2.1393  1.1779
   97MOL   H10040612   1.688   4.361   4.654 -1.7626 -0.6759  0.8490
   97MOL   H10140613   1.824   4.227   4.530 -2.3588  0.4187  1.7625
   97MOL   H10240614   1.797   4.206   4.271  2.2550  1.0791  0.3690
   97MOL   H10340615   1.641   4.351   4.166 -0.8757 -2.7061  0.0034
   97MOL   H10440616   1.501   4.509   4.290  0.8736 -0.2557 -0.5665
   97MOL   H10540617   1.047   4.557   4.521 -0.3667 -1.1076  0.4088
   97MOL   H10640618   1.035   4.492   4.669  0.2521 -0.5491  0.1082
   97MOL   C10740619   1.099   4.693   4.674 -0.2424 -0.1218  0.4291
   97MOL   O10840620   0.973   4.742   4.652 -0.0383 -0.4763  0.5956
   97MOL   C10940621   0.969   4.808   4.530  0.7242  0.7746  0.0989
   97MOL   O11040622   1.001   4.943   4.536 -0.2918  0.6748 -0.3838
   97MOL   C11140623   1.115   4.971   4.465  0.6946 -0.9002  0.6901
   97MOL   C11240624   1.227   5.019   4.533  0.0360  0.7135 -0.7281
   97MOL   C11340625   1.339   5.064   4.457 -0.7404 -0.1730 -0.2769
   97MOL   C11440626   1.341   5.065   4.318 -0.4243 -0.0130 -0.1923
   97MOL   C11540627   1.232   5.010   4.248 -0.3853  0.0287 -0.6979
   97MOL   C11640628   1.116   4.971   4.324  0.5369  0.2926  0.2386
   97MOL   C11740629   1.120   4.708   4.827 -0.2173  0.3773  0.2259
   97MOL   H11840630   1.173   4.759   4.627  0.3961  0.5824  2.3982
   97MOL   H11940631   0.864   4.811   4.498  0.7551  0.9802  0.0210
   97MOL   H12040632   1.026   4.757   4.452  0.9086  2.9699 -1.2312
   97MOL   H12140633   1.226   5.034   4.640  0.1350  1.9749 -0.9017
   97MOL   H12240634   1.424   5.100   4.513  1.2376 -0.7164 -2.8786
   97MOL   H12340635   1.424   5.108   4.264  0.3886 -0.5004  0.6463
   97MOL   H12440636   1.233   5.009   4.140 -0.7279 -0.8756 -0.6944
   97MOL   H12540637   1.023   4.938   4.280  0.1773  0.0202  1.1888
   97MOL   H12640638   1.209   4.649   4.848 -0.8177  0.0008  1.8250
   97MOL   H12740639   1.042   4.642   4.866 -0.1346 -1.4380 -2.5464
   97MOL   C12840640   1.117   4.856   4.882 -0.4994  0.4320 -0.4848
   97MOL   O12940641   1.215   4.889   4.981 -0.3111 -0.3207 -1.2460
   97MOL   C13040642   1.342   4.910   4.940 -0.7747 -0.2284  0.1675
   97MOL   O13140643   1.411   4.792   4.889  0.8553 -0.2394  0.4290
   97MOL   C13240644   1.456   4.702   4.980 -0.3780  0.4822 -0.0725
   97MOL   C13340645   1.539   4.595   4.935 -0.1547 -0.1101 -0.6064
   97MOL   C13440646   1.589   4.493   5.017  0.9911  1.1384  0.1863
   97MOL   C13540647   1.553   4.491   5.154 -0.1045 -0.5391 -0.1860
   97MOL   C13640648   1.463   4.591   5.201  0.6984  0.5065 -0.0600
   97MOL   C13740649   1.417   4.696   5.116 -0.5294  0.2387 -0.1147
   97MOL   C13840650   0.983   4.896   4.946 -0.1119  0.7415  0.7973
   97MOL   H13940651   1.137   4.930   4.804  1.9558 -0.7215 -0.9818
   97MOL   H14040652   1.394   4.964   5.020 -1.6755 -2.1641  2.1112
   97MOL   H14140653   1.345   4.980   4.856  0.6698  0.0549  0.4345
   97MOL   H14240654   1.568   4.585   4.832  2.5892  1.3075 -0.0119
   97MOL   H14340655   1.656   4.421   4.971  0.8579  1.4676 -0.5373
   97MOL   H14440656   1.590   4.405   5.209  0.0155 -0.9165 -0.8503
   97MOL   H14540657   1.416   4.579   5.298  0.7115 -2.5309 -0.4107
   97MOL   H14640658   1.352   4.763   5.171  1.3680  1.5644  0.5449
   97MOL   H14740659   0.898   4.839   4.907  3.0830 -3.7668  0.0409
   97MOL   H14840660   0.989   4.867   5.051 -0.2137 -1.4599  0.2287
   97MOL   C14940661   0.949   5.047   4.944 -1.2393  0.0340  0.9063
   97MOL   O15040662   0.813   5.054   4.963 -0.4676 -0.6517  0.2548
   97MOL   C15140663   0.737   5.068   4.840 -0.5085  0.2330 -0.3617
   97MOL   O15240664   0.772   5.168   4.752 -0.4442 -1.1160  0.0131
   97MOL   C15340665   0.774   5.301   4.806 -0.3006  0.3513 -0.1949
   97MOL   C15440666   0.723   5.341   4.931  0.0316 -0.7084  0.1102
   97MOL   C15540667   0.731   5.470   4.968 -0.1072 -0.2879 -0.2010
   97MOL   C15640668   0.771   5.572   4.885  0.2423  0.0970 -0.5283
   97MOL   C15740669   0.820   5.537   4.760 -0.9040 -0.3903 -0.2830
   97MOL   C15840670   0.820   5.404   4.719 -0.0596  0.5237 -0.7372
   97MOL   C15940671   1.018   5.123   5.059 -0.2513 -0.4831 -1.1075
   97MOL   H16040672   0.982   5.082   4.846 -3.0522 -1.1101 -0.1334
   97MOL   H16140673   0.747   4.970   4.794 -0.4032 -0.1183  0.3938
   97MOL   H16240674   0.630   5.078   4.858 -0.4675 -1.2056  0.8040
   97MOL   H16340675   0.681   5.265   4.996 -2.2021 -0.3857 -0.8938
   97MOL   H16440676   0.705   5.495   5.070 -3.1372  1.1046 -1.2384
   97MOL   H16540677   0.786   5.673   4.921  1.4389 -0.5824  0.9852
   97MOL   H16640678   0.860   5.613   4.694  0.9152  0.5616  1.8536
   97MOL   H16740679   0.842   5.378   4.616  0.0411  0.5773 -0.7299
   97MOL   H16840680   1.113   5.076   5.083  1.5163  3.7896  0.6735
   97MOL   H16940681   0.956   5.122   5.150  2.7318 -0.1086  0.9986
   97MOL   C17040682   1.057   5.273   5.039  0.3836 -0.0284 -0.6796
   97MOL   O17140683   1.095   5.336   5.162 -0.5701 -0.5743  0.7911
   97MOL   C17240684   0.999   5.404   5.231  0.1063  0.2688 -0.2870
   97MOL   O17340685   0.957   5.521   5.166 -0.6139  0.0715 -0.8769
   97MOL   C17440686   0.898   5.623   5.244  0.4847  0.1665  0.4495
   97MOL   C17540687   0.901   5.752   5.189 -0.0636  0.1546 -0.9014
   97MOL   C17640688   0.834   5.861   5.251 -0.0042  0.1685 -0.1712
   97MOL   C17740689   0.758   5.834   5.363  0.3107  0.4255 -0.1140
   97MOL   C17840690   0.751   5.708   5.418 -0.0854 -0.4376 -0.3654
   97MOL   C17940691   0.824   5.601   5.362 -0.3748  0.0705  0.2190
   97MOL   C18040692   1.160   5.293   4.927 -0.3238 -0.4086 -0.3155
   97MOL   H18140693   0.962   5.316   5.005 -0.1194 -1.6819 -1.4255
   97MOL   H18240694   1.038   5.412   5.332 -0.4247 -0.5661 -0.0073
   97MOL   H18340695   0.908   5.346   5.241 -1.3694  2.6896  0.7267
   97MOL   H18440696   0.970   5.765   5.107  1.1194  1.0748  0.2205
   97MOL   H18540697   0.853   5.957   5.205  0.5651 -0.4175 -1.1664
   97MOL   H18640698   0.708   5.913   5.417 -1.7695 -0.2852 -0.9477
   97MOL   H18740699   0.695   5.697   5.510  1.1013 -0.8240  0.3240
   97MOL   H18840700   0.817   5.502   5.404 -0.4906  0.1339  0.3492
   97MOL   H18940701   1.261   5.274   4.965  0.5499  1.6611 -1.5352
   97MOL   H19040702   1.140   5.222   4.848  1.3202 -1.3101  0.0396
   97MOL   C19140703   1.158   5.436   4.866 -1.1260 -0.1006 -0.8417
   97MOL   O19240704   1.238   5.420   4.748 -0.4283  0.6712 -0.4137
   97MOL   C19340705   1.183   5.379   4.625 -0.1952  0.1485  0.2071
   97MOL   O19440706   1.103   5.480   4.567  0.1783 -0.0341  0.3574
   97MOL   C19540707   1.159   5.594   4.512 -0.5207 -0.1453  0.8507
   97MOL   C19640708   1.290   5.645   4.526 -0.4189 -0.0061  0.2038
   97MOL   C19740709   1.336   5.768   4.467 -0.3924 -0.3204 -0.5281
   97MOL   C19840710   1.244   5.835   4.385 -1.0841  0.1719 -1.0236
   97MOL   C19940711   1.114   5.790   4.373  0.4041 -0.1292  0.6566
   97MOL   C20040712   1.072   5.678   4.444  0.0825  0.0699 -0.1611
   97MOL   C20140713   1.223   5.546   4.953  0.3304 -0.2388 -0.4676
   97MOL   H20240714   1.058   5.465   4.834 -0.7309  1.6133 -0.5623
   97MOL   H20340715   1.126   5.289   4.649  0.0965  0.1150  0.7686
   97MOL   H20440716   1.262   5.347   4.557  0.4245  1.5327  0.2577
   97MOL   H20540717   1.360   5.600   4.593  0.2404  0.7828  0.0577
   97MOL   H20640718   1.440   5.800   4.468  0.0526 -1.6080 -2.4502
   97MOL   H20740719   1.272   5.918   4.322 -0.1734  0.3538 -0.3838
   97MOL   H20840720   1.052   5.850   4.308  0.9631 -0.4243 -0.1453
   97MOL   H20940721   0.974   5.637   4.425  0.2731 -0.1625 -0.6431
   97MOL   H21040722   1.172   5.541   5.049  2.1612 -0.4806  0.5161
   97MOL   H21140723   1.327   5.513   4.967  0.6452  0.4685 -1.1297
   97MOL   C21240724   1.216   5.681   4.899  0.1793 -0.7108  0.3653
   97MOL   O21340725   1.084   5.718   4.872 -0.0203 -0.0556 -0.1849
   97MOL   C21440726   1.062   5.817   4.786 -0.7005  0.0647  0.0690
   97MOL   O21540727   1.065   5.950   4.838  0.3812 -0.5465  0.2276
   97MOL   C21640728   1.044   6.056   4.757 -0.2256  0.0820  0.0001
   97MOL   C21740729   0.998   6.049   4.621 -0.8670 -0.4889 -0.6546
   97MOL   C21840730   0.988   6.172   4.546  0.4544 -0.1377  0.5295
   97MOL   C21940731   1.008   6.300   4.607  0.8964 -0.1868 -0.1737
   97MOL   C22040732   1.043   6.307   4.743  0.0497  0.5662  0.0454
   97MOL   C22140733   1.065   6.185   4.813  0.6599  0.0913  0.6025
   97MOL   C22240734   1.291   5.778   4.993  0.1680 -0.3509 -0.3384
   97MOL   H22340735   1.269   5.681   4.804  1.7938 -1.1979  1.2574
   97MOL   H22440736   0.965   5.792   4.742  0.4130 -1.2995 -1.6845
   97MOL   H22540737   1.138   5.818   4.707  1.1783 -0.4041  1.8334
   97MOL   H22640738   0.978   5.955   4.574  2.7571 -1.0092 -1.2817
   97MOL   H22740739   0.956   6.157   4.444  0.9414 -1.9279  0.6146
   97MOL   H22840740   0.981   6.396   4.563  1.9267  0.8107  1.3141
   97MOL   H22940741   1.058   6.402   4.793 -0.3511 -0.3902  2.0396
   97MOL   H23040742   1.103   6.194   4.913 -0.5171  0.2641  1.0373
   97MOL   H23140743   1.261   5.879   4.966 -0.7643 -0.5572 -0.0735
   97MOL   H23240744   1.247   5.766   5.091 -0.5322  2.7889 -0.2291
   97MOL   C23340745   1.442   5.761   5.007  0.1234  0.8409 -0.0247
   97MOL   O23440746   1.497   5.894   5.023 -0.2095 -0.3326 -0.5640
   97MOL   C23540747   1.604   5.923   4.936  0.5670  1.1987  0.2554
   97MOL   O23640748   1.676   6.036   4.967 -0.4073  0.7358 -0.1975
   97MOL   C23740749   1.623   6.159   4.969  0.2926 -0.3866 -0.3482
   97MOL   C23840750   1.713   6.267   4.955 -0.9437  0.0155  0.3832
   97MOL   C23940751   1.665   6.398   4.949 -0.6033  0.0322  0.6692
   97MOL   C24040752   1.527   6.429   4.955 -0.8005 -0.4981 -0.1195
   97MOL   C24140753   1.441   6.324   4.958  0.5415  0.3389  0.3448
   97MOL   C24240754   1.487   6.188   4.960 -0.5662 -0.6151 -0.0204
   97MOL   C24340755   1.474   5.700   5.147  0.1024 -0.2335  0.6249
   97MOL   H24440756   1.483   5.706   4.922 -1.9113 -0.1995 -0.3506
   97MOL   H24540757   1.555   5.936   4.839 -0.1645 -1.4976  0.2122
   97MOL   H24640758   1.664   5.833   4.924  0.6562  1.0922  1.4111
   97MOL   H24740759   1.819   6.247   4.943 -0.8761  0.6302 -0.0867
   97MOL   H24840760   1.733   6.481   4.946 -1.8450  1.0015 -2.1621
   97MOL   H24940761   1.492   6.531   4.963 -0.6087 -0.3575 -1.0131
   97MOL   H25040762   1.339   6.348   4.935  0.8319  0.3761 -0.9771
   97MOL   H25140763   1.410   6.114   4.944 -0.7553 -0.1962 -1.0587
   97MOL   H25240764   1.451   5.771   5.227 -1.6849  0.3428 -0.3904
   97MOL   H25340765   1.400   5.623   5.168 -1.3653  1.2252  0.8451
   97MOL   C25440766   1.607   5.635   5.177  0.2630 -0.7524  0.4537
   97MOL   O25540767   1.620   5.617   5.321 -0.4346 -0.0578 -0.2612
   97MOL   C25640768   1.707   5.703   5.385  0.5521 -0.1129 -0.8722
   97MOL   O25740769   1.841   5.658   5.370  0.0207  0.4019 -0.8083
   97MOL   C25840770   1.940   5.720   5.438 -0.1819  0.2163 -0.1885
   97MOL   C25940771   1.922   5.830   5.528  0.6700 -0.6164 -0.9815
   97MOL   C26040772   2.030   5.872   5.610  0.5701  0.0176  0.2658
   97MOL   C26140773   2.158   5.819   5.588  0.0555  0.1928  0.1148
   97MOL   C26240774   2.173   5.722   5.496 -0.0416  0.4822 -0.3921
   97MOL   C26340775   2.065   5.673   5.420 -0.1217  0.8786 -0.2558
   97MOL   C26440776   1.630   5.495   5.121  0.1328  0.2280 -0.4307
   97MOL   H26540777   1.684   5.705   5.142 -0.0625 -0.2669  0.7067
   97MOL   H26640778   1.683   5.695   5.491  1.4029  1.7190 -0.5189
   97MOL   H26740779   1.694   5.804   5.346  0.7006 -0.7011 -2.4688
   97MOL   H26840780   1.825   5.877   5.537  0.9492 -0.4952  1.7472
   97MOL   H26940781   2.038   5.954   5.679  0.7958 -0.8935  1.3400
   97MOL   H27040782   2.239   5.858   5.648  2.4954 -1.4395 -2.0043
   97MOL   H27140783   2.272   5.678   5.492 -0.5642 -0.8990  1.2766
   97MOL   H27240784   2.089   5.586   5.360 -1.5711  0.9027 -0.8853
   97MOL   H27340785   1.699   5.440   5.185 -1.8326  0.9437  2.4001
   97MOL   H27440786   1.535   5.442   5.131 -0.0686  0.3129 -1.8201
   97MOL   C27540787   1.684   5.491   4.981  0.2363  1.0796  0.1530
   97MOL   O27640788   1.826   5.483   4.975 -1.4416  0.7141  0.0449
   97MOL   C27740789   1.896   5.597   5.013 -0.2433  0.1068 -0.6765
   97MOL   O27840790   2.025   5.594   4.961 -0.4350 -0.0106 -0.4226
   97MOL   C27940791   2.117   5.517   5.029 -0.1174 -0.6635  0.4106
   97MOL   C28040792   2.089   5.430   5.135  0.1998  0.3481  0.0273
   97MOL   C28140793   2.197   5.366   5.214  0.0187  0.7052  1.2301
   97MOL   C28240794   2.331   5.388   5.168  0.4849 -0.0702 -0.4023
   97MOL   C28340795   2.363   5.463   5.056 -0.0602 -0.1396 -0.1342
   97MOL   C28440796   2.254   5.524   4.992  0.0065  0.1308 -0.0493
   97MOL   C28540797   1.627   5.371   4.911  0.4962  0.7821  0.2929
   97MOL   H28640798   1.648   5.571   4.916 -0.2585  1.5342  0.9781
   97MOL   H28740799   1.904   5.610   5.121  1.7756 -2.9806 -0.3838
   97MOL   H28840800   1.855   5.689   4.972  0.1162  1.2144  1.4098
   97MOL   H28940801   1.988   5.412   5.169 -0.1065  0.8660 -0.6173
   97MOL   H29040802   2.167   5.294   5.289 -1.6629 -3.8654 -3.5521
   97MOL   H29140803   2.409   5.338   5.224  0.2712 -1.2823 -1.1591
   97MOL   H29240804   2.467   5.470   5.027  0.3151  1.1993  1.4354
   97MOL   H29340805   2.286   5.595   4.917 -1.5418  1.5763  0.6172
   97MOL   H29440806   1.521   5.396   4.918  0.5427  0.4904  2.4149
   97MOL   H29540807   1.642   5.277   4.965 -2.4668 -0.7052 -1.3265
   97MOL   C29640808   1.683   5.358   4.765  0.4576 -0.7089  0.2167
   97MOL   O29740809   1.660   5.219   4.727 -0.2874 -0.3090 -0.1552
   97MOL   C29840810   1.771   5.138   4.715 -0.5300 -0.9044  0.0357
   97MOL   O29940811   1.741   5.007   4.675 -0.4081 -0.8691  0.0761
   97MOL   C30040812   1.729   4.983   4.541 -0.0663  0.1030 -0.1074
   97MOL   C30140813   1.732   5.081   4.438 -0.2083 -0.4361  0.3163
   97MOL   C30240814   1.707   5.041   4.305  0.5655 -0.2844  0.0025
   97MOL   C30340815   1.692   4.906   4.274 -0.1846  0.2965  0.6397
   97MOL   C30440816   1.696   4.809   4.380 -0.9282 -0.4973 -0.1721
   97MOL   C30540817   1.709   4.850   4.515 -0.1669 -0.6894  0.4025
   97MOL   C30640818   1.611   5.452   4.668 -0.0062 -0.0715 -0.1128
   97MOL   H30740819   1.790   5.380   4.759  0.3495 -0.7690 -2.6456
   97MOL   H30840820   1.809   5.132   4.817  0.8444 -0.1555 -0.4201
   97MOL   H30940821   1.853   5.178   4.655 -1.2419 -1.5475 -1.3784
   97MOL   H31040822   1.745   5.188   4.447 -1.5535  0.0791 -3.0884
   97MOL   H31140823   1.701   5.111   4.223  0.1216  0.3869  0.6047
   97MOL   H31240824   1.673   4.874   4.172 -0.3375  0.9801  0.4526
   97MOL   H31340825   1.682   4.704   4.359 -1.5814 -0.6453  0.9789
   97MOL   H31440826   1.717   4.779   4.597 -1.0922 -0.0195  1.0891
   97MOL   H31540827   1.545   5.522   4.719 -0.9353 -0.8195 -0.2765
   97MOL   H31640828   1.544   5.389   4.609 -1.4442 -1.8380  3.2353
   97MOL   C31740829   1.695   5.534   4.572 -0.1773 -0.3698  0.7468
   97MOL   O31840830   1.704   5.656   4.640 -0.1893 -0.0261 -0.1182
   97MOL   C31940831   1.833   5.698   4.660  0.0633  0.0649  0.0127
   97MOL   O32040832   1.838   5.820   4.720  0.4441  0.1036  0.0301
   97MOL   C32140833   1.962   5.866   4.750 -0.3172  0.1396  0.7475
   97MOL   C32240834   1.971   5.996   4.799 -0.1449 -0.6026  0.3408
   97MOL   C32340835   2.096   6.061   4.817  0.1206  0.2501  0.2102
   97MOL   C32440836   2.216   5.989   4.804  0.4728 -0.4642  0.1655
   97MOL   C32540837   2.213   5.857   4.755  0.3191  0.1731  0.5906
   97MOL   C32640838   2.086   5.796   4.727 -0.2650  0.0521 -0.4725
   97MOL   C32740839   1.639   5.536   4.433 -0.5587 -0.0747 -0.3232
   97MOL   H32840840   1.790   5.480   4.561  0.1732  0.4711 -0.4397
   97MOL   H32940841   1.882   5.692   4.563 -0.2712 -1.1043 -0.0871
   97MOL   H33040842   1.881   5.628   4.730 -2.1719 -1.0086  0.5033
   97MOL   H33140843   1.884   6.041   4.844  0.2642 -0.0793  0.6047
   97MOL   H33240844   2.096   6.164   4.850  0.5151  0.1354  0.5712
   97MOL   H33340845   2.315   6.030   4.819  0.1996  0.1130  0.4392
   97MOL   H33440846   2.303   5.803   4.733  0.8256  1.4161 -0.5120
   97MOL   H33540847   2.086   5.694   4.691 -0.6726  0.9951 -3.3103
   97MOL   H33640848   1.602   5.441   4.395 -0.0536 -0.3437 -0.1317
   97MOL   H33740849   1.550   5.599   4.441  1.2900  2.4022  1.4315
   97MOL   C33840850   1.729   5.590   4.321  0.5470  0.3889 -0.5425
   97MOL   O33940851   1.814   5.473   4.289 -0.2400 -0.1217 -0.3704
   97MOL   C34040852   1.947   5.512   4.275  0.2635  0.1036  0.2036
   97MOL   O34140853   2.009   5.512   4.401 -1.1921 -0.1130 -0.0677
   97MOL   C34240854   2.030   5.388   4.464  0.6142 -0.5601  0.1590
   97MOL   C34340855   2.077   5.382   4.598  0.5150  0.4381  0.9431
   97MOL   C34440856   2.119   5.267   4.664  1.1673  0.7027 -0.2580
   97MOL   C34540857   2.104   5.145   4.587 -0.2845  0.0827 -0.2498
   97MOL   C34640858   2.038   5.140   4.462 -0.4543  0.4451 -0.0957
   97MOL   C34740859   2.009   5.263   4.398  0.3518 -1.6520  0.1106
   97MOL   C34840860   1.635   5.628   4.200  0.2612 -0.2499 -1.4129
   97MOL   H34940861   1.782   5.673   4.368  1.6737  0.3751 -1.7395
   97MOL   H35040862   1.963   5.612   4.235 -0.7072  0.8722  1.6881
   97MOL   H35140863   2.003   5.448   4.207 -0.6014 -1.6235  1.0510
   97MOL   H35240864   2.078   5.476   4.652  0.1934  0.2720  1.2359
   97MOL   H35340865   2.159   5.276   4.764 -0.5474  1.5878  0.3689
   97MOL   H35440866   2.138   5.048   4.622  1.8546  0.8969 -0.0224
   97MOL   H35540867   2.020   5.045   4.413 -2.4062  0.5916  0.3106
   97MOL   H35640868   1.967   5.260   4.298  0.4303  2.4018 -0.1156
   97MOL   H35740869   1.554   5.688   4.239  0.4851 -0.3349 -0.8122
   97MOL   H35840870   1.594   5.542   4.147 -1.2002 -0.8299  0.6040
   97MOL   C35940871   1.669   5.726   4.096  0.3289 -0.2056  0.0970
   97MOL   O36040872   1.738   5.847   4.145  0.2612  0.3593 -0.6455
   97MOL   C36140873   1.828   5.917   4.048 -0.5940  0.9988 -0.2578
   97MOL   O36240874   1.911   5.831   3.979  0.4510 -0.1632  0.5815
   97MOL   C36340875   1.977   5.875   3.870 -0.0098 -0.0385  0.5213
   97MOL   C36440876   1.995   6.007   3.847  0.1975 -0.5267 -0.4921
   97MOL   C36540877   2.070   6.058   3.739  0.1129 -0.2678  0.0491
   97MOL   C36640878   2.130   5.963   3.656  1.3416  0.0090  0.2094
   97MOL   C36740879   2.113   5.826   3.674  0.4415 -0.4218 -0.0752
   97MOL   C36840880   2.037   5.781   3.785  0.6374 -0.1256 -0.2192
   97MOL   C36940881   1.558   5.777   4.007 -0.9062 -0.2390  0.5097
   97MOL   H37040882   1.738   5.662   4.040  0.5337  0.2329 -0.1520
   97MOL   H37140883   1.889   5.989   4.102  1.2959  0.7389 -1.9734
   97MOL   H37240884   1.767   5.980   3.984  2.8574  2.0060 -2.7365
   97MOL   H37340885   1.958   6.079   3.919 -1.4438 -1.1299 -0.7078
   97MOL   H37440886   2.106   6.160   3.732  0.4809 -0.4857 -1.3092
   97MOL   H37540887   2.195   5.992   3.575 -0.9471 -1.2049 -2.1471
   97MOL   H37640888   2.167   5.750   3.619  0.7245  0.6433 -1.2822
   97MOL   H37740889   2.022   5.678   3.814 -1.7420  0.3883  0.4892
   97MOL   H37840890   1.608   5.829   3.926 -1.2600 -1.2365 -0.3505
   97MOL   H37940891   1.500   5.853   4.061 -0.7581  0.6309 -0.5419
   97MOL   C38040892   1.472   5.671   3.934 -0.7965 -0.3103  0.6644
   97MOL   O38140893   1.398   5.725   3.824  0.1598 -0.3065 -0.6022
   97MOL   C38240894   1.443   5.696   3.699 -0.6717 -0.2427  0.6645
   97MOL   O38340895   1.569   5.745   3.679 -0.1539  0.0226 -0.1173
   97MOL   C38440896   1.631   5.716   3.556  0.2908  0.5644 -0.1460
   97MOL   C38540897   1.573   5.686   3.437  0.8150  0.4503  0.7998
   97MOL   C38640898   1.652   5.647   3.327 -0.2243 -0.1546  0.4975
   97MOL   C38740899   1.789   5.644   3.335 -0.1920 -1.1899  0.6601
   97MOL   C38840900   1.852   5.673   3.457 -0.3888  0.0254 -1.0428
   97MOL   C38940901   1.770   5.715   3.561  0.2831  0.3107 -0.4697
   97MOL   C39040902   1.359   5.613   4.020 -0.6896  0.2659 -0.0919
   97MOL   H39140903   1.539   5.590   3.903  0.5500  0.8231  0.5570
   97MOL   H39240904   1.441   5.588   3.681  1.0637 -0.0837 -0.6020
   97MOL   H39340905   1.370   5.738   3.630 -0.3580 -0.0859  0.4242
   97MOL   H39440906   1.465   5.684   3.429  0.6940  0.4608  2.4154
   97MOL   H39540907   1.608   5.634   3.229 -0.0563  0.1319  0.3869
   97MOL   H39640908   1.851   5.631   3.248 -0.5292  0.5122  0.1522
   97MOL   H39740909   1.958   5.667   3.472 -0.1303  0.6110 -2.4888
   97MOL   H39840910   1.820   5.750   3.650 -1.8751  0.3521  0.7588
   97MOL   H39940911   1.281   5.689   4.017  0.9460  1.9691 -0.3078
   97MOL   H40040912   1.394   5.605   4.123  2.1402 -0.8768 -1.0866
   97MOL   C40140913   1.305   5.478   3.970  0.2584  0.8210  0.0798
   97MOL   O40240914   1.387   5.371   4.005  0.7530  0.1234  0.4740
   97MOL   C40340915   1.403   5.277   3.896  0.1157 -0.3843  0.2544
   97MOL   O40440916   1.490   5.328   3.809 -0.3213  0.3565 -0.3721
   97MOL   C40540917   1.630   5.341   3.838 -0.0794  1.3758 -0.0801
   97MOL   C40640918   1.687   5.318   3.962 -0.3881  0.6071 -0.5054
   97MOL   C40740919   1.824   5.343   3.982 -0.9112  0.6652  0.1159
   97MOL   C40840920   1.907   5.374   3.882  0.3289 -0.6739  0.0685
   97MOL   C40940921   1.857   5.384   3.752  0.4582 -0.1453 -0.1475
   97MOL   C41040922   1.717   5.370   3.732  0.2081 -1.0797 -0.2794
   97MOL   C41140923   1.172   5.447   4.032 -0.2199  0.2349  0.0570
   97MOL   H41240924   1.292   5.488   3.862 -0.7654 -2.0853 -0.1070
   97MOL   H41340925   1.304   5.253   3.858  1.4245 -2.7725 -1.7953
   97MOL   H41440926   1.453   5.190   3.939 -1.3496 -1.1097  0.5155
   97MOL   H41540927   1.622   5.290   4.044 -1.3908 -1.5171 -1.9789
   97MOL   H41640928   1.869   5.343   4.081 -0.0449 -0.2746 -0.2733
   97MOL   H41740929   2.011   5.393   3.904  0.2119  1.7403 -1.2694
   97MOL   H41840930   1.921   5.402   3.667  2.6503 -2.2435  1.0022
   97MOL   H41940931   1.672   5.383   3.635  0.2294  0.0570 -0.1447
   97MOL   H42040932   1.122   5.354   4.007  0.2436 -0.5666  2.0479
   97MOL   H42140933   1.101   5.524   4.004 -1.5658 -0.7330  0.7513
   97MOL   H42240934   1.193   5.435   4.138 -0.9407  0.2324  0.2009
   98MOL     C140935   1.074   0.061   0.905 -0.3548  0.0067 -0.2229
   98MOL     O240936   0.945   0.019   0.958 -0.1060 -0.2210 -0.1231
   98MOL     C340937   0.898   7.868   0.913 -1.0404  0.2869 -0.4350
   98MOL     O440938   0.895   7.856   0.774 -0.0643  0.0735 -0.2375
   98MOL     C540939   0.810   7.937   0.705  0.3174  0.5377 -0.0918
   98MOL     C640940   0.791   7.903   0.571 -0.0806  0.2407  0.1574
   98MOL     C740941   0.696   0.000   0.491 -1.3874 -0.2343 -0.2840
   98MOL     C840942   0.613   0.092   0.553 -0.4178 -0.7638 -0.4797
   98MOL     C940943   0.627   0.131   0.682  0.1332  0.8932 -0.5511
   98MOL    C1040944   0.733   0.066   0.755  1.0214 -0.2372  0.3109
   98MOL    C1140945   1.183   7.959   0.980 -0.1308 -0.1173  0.0467
   98MOL    H1240946   1.078   0.041   0.798 -0.0338  1.4672 -0.5025
   98MOL    H1340947   0.967   7.790   0.945 -1.0127  0.2386 -0.6121
   98MOL    H1440948   0.798   7.846   0.952 -1.3916  0.6467 -1.1279
   98MOL    H1540949   0.859   7.832   0.526  1.8069  1.3324  1.2500
   98MOL    H1640950   0.696   7.958   0.385 -1.5229 -1.9947  0.0055
   98MOL    H1740951   0.536   0.147   0.502 -0.1770 -0.5063 -0.5691
   98MOL    H1840952   0.572   0.207   0.735  0.5317  0.7715  0.0399
   98MOL    H1940953   0.748   0.100   0.857  1.3901  1.8214 -0.4210
   98MOL    H2040954   1.167   7.851   0.983  0.3291 -0.2221 -1.0722
   98MOL    H2140955   1.178   0.016   1.084 -0.6569  2.3472 -0.7089
   98MOL    H2240956   1.090   0.167   0.926 -1.7530 -0.2873  2.4696
   98MOL    C2340957   1.330   0.014   0.927  0.1371 -0.2213  0.0722
   98MOL    O2440958   1.341   7.936   0.806 -0.0368 -0.2180  0.4714
   98MOL    C2540959   1.446   0.004   0.728 -0.1191  0.2145 -0.6453
   98MOL    O2640960   1.424   0.129   0.673  0.1765  0.4868  0.5334
   98MOL    C2740961   1.332   0.139   0.566  0.1540 -0.2038  0.2492
   98MOL    C2840962   1.226   0.052   0.546  0.3951  0.0423  0.7217
   98MOL    C2940963   1.133   0.070   0.439 -0.2705  0.1039 -0.0890
   98MOL    C3040964   1.139   0.188   0.362 -0.3662 -0.2062  0.3737
   98MOL    C3140965   1.235   0.285   0.386 -0.2325  0.5639  0.6296
   98MOL    C3240966   1.334   0.257   0.483 -0.4118  0.6560 -0.7760
   98MOL    C3340967   1.439   7.935   1.028  0.4555  0.5137  0.0066
   98MOL    H3440968   1.335   0.121   0.909  0.9235 -0.1730  0.5205
   98MOL    H3540969   1.470   7.909   0.648  1.0101  0.5795 -0.6447
   98MOL    H3640970   1.537   0.031   0.782 -0.5226  1.8780 -0.7816
   98MOL    H3740971   1.223   7.941   0.611 -1.4302 -0.9161 -0.5926
   98MOL    H3840972   1.049   0.005   0.420 -0.2274  0.3282 -1.0649
   98MOL    H3940973   1.077   0.197   0.275  1.1802  2.0771 -0.5539
   98MOL    H4040974   1.247   0.370   0.320  1.9758  0.2726  0.6198
   98MOL    H4140975   1.417   0.324   0.502  0.8700 -0.9072 -0.7186
   98MOL    H4240976   1.539   7.932   0.984  0.4111  1.4441 -0.1624
   98MOL    H4340977   1.422   7.832   1.059  0.1476  0.7356  0.5811
   98MOL    C4440978   1.452   0.033   1.164  1.0928 -0.4875 -0.7265
   98MOL    O4540979   1.337   0.012   1.245 -0.4549  0.0157  0.3314
   98MOL    C4640980   1.357   7.942   1.373 -0.3606  0.4181 -0.0039
   98MOL    O4740981   1.409   7.817   1.378 -0.2687 -0.3819  0.4275
   98MOL    C4840982   1.351   7.721   1.297  0.0100 -0.2023 -0.0593
   98MOL    C4940983   1.226   7.731   1.236  0.0549  0.2769  0.1370
   98MOL    C5040984   1.180   7.633   1.141 -0.1656 -0.7353 -0.3402
   98MOL    C5140985   1.262   7.526   1.113  0.2919  1.0207 -0.0180
   98MOL    C5240986   1.379   7.506   1.177  0.1264  0.2205 -0.6828
   98MOL    C5340987   1.421   7.605   1.273 -0.8375  0.3144  0.3303
   98MOL    C5440988   1.473   0.185   1.139 -0.7995  0.2244 -0.1875
   98MOL    H5540989   1.537   7.965   1.217  0.2666  0.2930  1.2580
   98MOL    H5640990   1.270   7.946   1.440  0.5320 -0.6596  1.2436
   98MOL    H5740991   1.432   0.028   1.424  0.3761 -0.6200  0.1760
   98MOL    H5840992   1.170   7.822   1.250 -0.9098 -0.1845 -0.7348
   98MOL    H5940993   1.088   7.647   1.087 -0.2825 -0.8680 -0.1737
   98MOL    H6040994   1.245   7.456   1.032  1.8716 -0.3363  0.7904
   98MOL    H6140995   1.447   7.424   1.155 -0.8082 -0.6237 -0.4762
   98MOL    H6240996   1.507   7.580   1.333  0.8906  0.5280 -1.9812
   98MOL    H6340997   1.519   0.206   1.043 -3.3960  1.3332 -1.2327
   98MOL    H6440998   1.374   0.228   1.125 -1.4457 -1.1395  0.1096
   98MOL    C6540999   1.548   0.263   1.253  0.5588 -0.6196  0.5419
   98MOL    O6641000   1.675   0.211   1.252 -0.1903  0.1700  0.4756
   98MOL    C6741001   1.759   0.226   1.366  0.2414 -0.5832 -0.3603
   98MOL    O6841002   1.878   0.147   1.356  0.2350 -0.0617 -0.3555
   98MOL    C6941003   1.859   0.013   1.365 -0.7598 -0.1251 -0.3017
   98MOL    C7041004   1.974   7.905   1.316  0.5132  0.1808 -0.2070
   98MOL    C7141005   1.971   7.763   1.312  0.0992 -0.5169  0.4022
   98MOL    C7241006   1.860   7.703   1.370 -0.5091 -0.2617 -0.1726
   98MOL    C7341007   1.747   7.778   1.419  0.9437 -0.3121  0.4462
   98MOL    C7441008   1.745   7.919   1.402 -0.2313 -0.2424 -0.4466
   98MOL    C7541009   1.533   0.416   1.229  0.8923  0.6974 -0.2049
   98MOL    H7641010   1.495   0.240   1.345 -3.8717  0.9008 -1.4858
   98MOL    H7741011   1.718   0.201   1.463  1.0295 -0.4998  0.0008
   98MOL    H7841012   1.784   0.331   1.380  1.3451 -0.6737 -1.5844
   98MOL    H7941013   2.063   7.956   1.282  0.9300 -1.5817 -1.8633
   98MOL    H8041014   2.055   7.716   1.264  0.7046 -0.8517  1.7579
   98MOL    H8141015   1.850   7.596   1.378  2.7153 -0.6230 -0.2643
   98MOL    H8241016   1.664   7.724   1.462 -1.7422  2.2421 -1.2806
   98MOL    H8341017   1.656   7.973   1.427  1.0989  2.1702 -0.7296
   98MOL    H8441018   1.637   0.443   1.210  1.1874  0.5449  1.1432
   98MOL    H8541019   1.481   0.441   1.136  0.1542  3.0068  0.7937
   98MOL    C8641020   1.478   0.498   1.345 -0.4352  0.3817  0.7210
   98MOL    O8741021   1.458   0.631   1.296  0.1698  0.0730 -0.3209
   98MOL    C8841022   1.521   0.730   1.377  0.5495 -0.2352  0.5519
   98MOL    O8941023   1.657   0.713   1.363 -0.1689 -0.3599 -0.0502
   98MOL    C9041024   1.723   0.756   1.246 -0.0225 -0.3363 -0.3351
   98MOL    C9141025   1.659   0.798   1.131  0.8818 -0.9178 -0.0139
   98MOL    C9241026   1.731   0.855   1.018 -0.0479  0.1963 -0.9085
   98MOL    C9341027   1.868   0.861   1.032 -0.3237  0.2447 -0.0854
   98MOL    C9441028   1.931   0.818   1.146  0.7474  0.4154 -0.2154
   98MOL    C9541029   1.861   0.763   1.255  1.0421  0.1418 -0.0528
   98MOL    C9641030   1.335   0.452   1.395  0.3205 -0.3867 -0.3202
   98MOL    H9741031   1.546   0.483   1.429 -0.3918  0.8849  0.7805
   98MOL    H9841032   1.493   0.715   1.481  2.8685  1.5572  1.4592
   98MOL    H9941033   1.495   0.828   1.337 -2.2716 -0.0986  2.5254
   98MOL   H10041034   1.551   0.792   1.127  0.9796 -2.2352 -0.8261
   98MOL   H10141035   1.675   0.888   0.932 -1.1444  1.1748  0.1565
   98MOL   H10241036   1.927   0.897   0.949  0.1433 -0.8118 -0.2151
   98MOL   H10341037   2.039   0.813   1.143  0.7541 -2.3632  1.9600
   98MOL   H10441038   1.915   0.720   1.338  1.2755 -1.0876 -0.8151
   98MOL   H10541039   1.327   0.346   1.418  2.3728 -0.4563  0.1444
   98MOL   H10641040   1.333   0.513   1.485  0.9461  0.5625 -0.9364
   98MOL   C10741041   1.213   0.478   1.304  0.5834 -0.1079 -0.2909
   98MOL   O10841042   1.156   0.347   1.267  0.1268 -0.2814  0.4729
   98MOL   C10941043   1.063   0.354   1.163 -0.3881 -0.8484 -0.1954
   98MOL   O11041044   0.935   0.363   1.222  0.4319  0.5487  0.0647
   98MOL   C11141045   0.822   0.375   1.146 -0.0669  0.0291 -0.9136
   98MOL   C11241046   0.813   0.362   1.004  0.5468 -0.1115  0.7164
   98MOL   C11341047   0.691   0.386   0.934  0.4800 -0.6626 -0.0029
   98MOL   C11441048   0.584   0.438   1.007 -0.5869 -0.3092 -0.2033
   98MOL   C11541049   0.593   0.442   1.146 -0.3491 -0.3574 -0.4056
   98MOL   C11641050   0.707   0.415   1.220 -0.3086 -0.4721 -0.2553
   98MOL   C11741051   1.106   0.568   1.375  0.2293 -0.9329 -0.3174
   98MOL   H11841052   1.245   0.527   1.212 -1.4641 -0.2712 -1.1132
   98MOL   H11941053   1.072   0.261   1.105  0.7771 -1.2377  0.5875
   98MOL   H12041054   1.078   0.436   1.094  1.0751  0.8701  2.1069
   98MOL   H12141055   0.902   0.326   0.952  0.5959 -0.5824  1.1167
   98MOL   H12241056   0.680   0.363   0.829  1.1847  1.2365 -0.5098
   98MOL   H12341057   0.497   0.470   0.952 -0.9459 -0.2531  0.3948
   98MOL   H12441058   0.513   0.482   1.206 -0.0412  3.3791 -2.3593
   98MOL   H12541059   0.715   0.434   1.326  1.6038  2.0353 -0.8122
   98MOL   H12641060   1.085   0.521   1.471 -3.1467  3.2985  1.1934
   98MOL   H12741061   1.011   0.563   1.320 -0.5964 -2.3022  1.2098
   98MOL   C12841062   1.145   0.713   1.379  0.0329  0.1405  1.1561
   98MOL   O12941063   1.089   0.784   1.495  0.1369  0.3240  0.7161
   98MOL   C13041064   1.121   0.736   1.629  0.9109  0.1446  0.2541
   98MOL   O13141065   1.262   0.739   1.657  0.2973 -0.2125 -0.1130
   98MOL   C13241066   1.302   0.720   1.790 -0.2907  0.5416  0.7728
   98MOL   C13341067   1.415   0.788   1.830  0.2005  0.0017 -0.3467
   98MOL   C13441068   1.468   0.775   1.956 -0.4335  1.3804  0.9548
   98MOL   C13541069   1.406   0.686   2.045  0.3952  0.1372 -1.0303
   98MOL   C13641070   1.282   0.624   2.009 -0.5503 -0.4697 -0.2034
   98MOL   C13741071   1.236   0.641   1.882 -0.5351 -0.2187  0.2103
   98MOL   C13841072   1.102   0.793   1.255 -0.1882  0.1357 -0.8065
   98MOL   H13941073   1.253   0.722   1.374 -0.0079 -0.6196 -3.6794
   98MOL   H14041074   1.075   0.638   1.643  0.7266  0.3321  0.9690
   98MOL   H14141075   1.072   0.803   1.700  2.2190  1.7501 -0.3239
   98MOL   H14241076   1.472   0.839   1.753 -2.1733 -0.4425 -2.4707
   98MOL   H14341077   1.557   0.833   1.975  1.7299 -1.6993  0.4932
   98MOL   H14441078   1.437   0.666   2.147  0.1816  1.0634 -0.7824
   98MOL   H14541079   1.228   0.562   2.079  0.7969  0.7911  1.9776
   98MOL   H14641080   1.146   0.590   1.851  0.5849 -0.8616 -2.1386
   98MOL   H14741081   1.102   0.722   1.173 -1.3366  0.9692 -1.5424
   98MOL   H14841082   1.002   0.832   1.273  0.5085  0.9639  1.5454
   98MOL   C14941083   1.201   0.898   1.205  0.0062  0.2736 -0.6821
   98MOL   O15041084   1.147   0.940   1.076  0.1764 -0.1165  0.0499
   98MOL   C15141085   1.245   0.971   0.976 -0.5589 -0.8156 -0.0602
   98MOL   O15241086   1.324   0.856   0.948 -0.4816  0.3814 -0.0689
   98MOL   C15341087   1.269   0.731   0.923 -0.1100 -0.5540 -0.1199
   98MOL   C15441088   1.349   0.617   0.929 -0.6206  0.3870 -0.2535
   98MOL   C15541089   1.299   0.493   0.875  0.6872  0.2675 -0.2381
   98MOL   C15641090   1.168   0.482   0.837 -0.3282 -0.4673 -0.1746
   98MOL   C15741091   1.080   0.596   0.849 -0.8291 -1.0110  0.7594
   98MOL   C15841092   1.131   0.721   0.890  0.0968 -0.3358  0.4296
   98MOL   C15941093   1.237   1.023   1.292  0.4474 -0.1952  0.7029
   98MOL   H16041094   1.293   0.840   1.194  0.7730  1.2781  0.2814
   98MOL   H16141095   1.203   1.014   0.886 -0.0028  3.9930  1.8261
   98MOL   H16241096   1.317   1.050   0.997 -1.2356 -0.6522  1.7170
   98MOL   H16341097   1.453   0.623   0.956 -0.7022  1.9837 -0.2385
   98MOL   H16441098   1.360   0.405   0.860  0.2032 -0.1961  0.4625
   98MOL   H16541099   1.134   0.390   0.791 -1.6583 -0.5994  1.0538
   98MOL   H16641100   0.976   0.577   0.826 -1.6013  2.7881  0.7793
   98MOL   H16741101   1.068   0.808   0.877  2.1902  1.0431 -0.6950
   98MOL   H16841102   1.308   1.087   1.240 -0.3665 -0.5573 -0.8712
   98MOL   H16941103   1.277   0.983   1.385 -1.8137  0.1216  1.8361
   98MOL   C17041104   1.126   1.115   1.338 -0.3242  0.6011  0.1994
   98MOL   O17141105   1.181   1.212   1.427  0.1436 -0.0140  0.5996
   98MOL   C17241106   1.183   1.183   1.561 -0.7731  0.0345 -0.1982
   98MOL   O17341107   1.053   1.184   1.611 -0.2656 -0.7140 -0.2070
   98MOL   C17441108   1.038   1.126   1.737 -0.2997 -0.1657 -0.1128
   98MOL   C17541109   1.142   1.073   1.818  0.5285 -0.7404 -0.2698
   98MOL   C17641110   1.122   1.028   1.952  0.6999  0.0513 -0.2618
   98MOL   C17741111   0.999   1.035   2.006  0.7090 -0.3692 -0.2681
   98MOL   C17841112   0.886   1.084   1.929 -0.0972 -0.6944 -1.1064
   98MOL   C17941113   0.911   1.136   1.793 -0.2375  0.4386 -0.4754
   98MOL   C18041114   1.052   1.190   1.220  0.5496 -0.7838  0.2762
   98MOL   H18141115   1.063   1.047   1.396  0.3281 -1.4265 -1.3743
   98MOL   H18241116   1.249   1.257   1.605  1.2581 -1.2609 -1.0095
   98MOL   H18341117   1.223   1.082   1.573 -1.1316 -0.2595 -1.4341
   98MOL   H18441118   1.244   1.067   1.782 -0.1154  1.3048 -2.5221
   98MOL   H18541119   1.207   0.998   2.012  1.4075 -2.0726 -2.2646
   98MOL   H18641120   0.975   1.001   2.105  3.1062  1.7599  1.0927
   98MOL   H18741121   0.784   1.086   1.963  0.2086 -0.1782 -0.1864
   98MOL   H18841122   0.829   1.176   1.735 -1.0723 -1.3449 -0.5730
   98MOL   H18941123   1.119   1.252   1.161 -1.6872  0.4403 -1.0367
   98MOL   H19041124   1.017   1.104   1.163 -1.9017 -0.4391  1.1984
   98MOL   C19141125   0.915   1.255   1.264 -0.1450  0.0693  0.4093
   98MOL   O19241126   0.817   1.235   1.153  0.3015  0.2648 -0.1739
   98MOL   C19341127   0.708   1.155   1.189  0.1879  0.0987  0.2103
   98MOL   O19441128   0.740   1.017   1.204 -0.8241  0.3281 -0.5426
   98MOL   C19541129   0.765   0.952   1.082  0.0657  0.6047  0.5298
   98MOL   C19641130   0.791   1.019   0.957  0.0002  0.7811 -0.2154
   98MOL   C19741131   0.801   0.938   0.849 -0.3735  0.0720  0.3143
   98MOL   C19841132   0.795   0.798   0.851  0.4466  0.7898 -0.0307
   98MOL   C19941133   0.763   0.734   0.973  0.3159 -0.4791  0.5907
   98MOL   C20041134   0.741   0.811   1.083 -0.3470  0.4557  0.3150
   98MOL   C20141135   0.933   1.412   1.285 -0.5149 -0.1261  0.5727
   98MOL   H20241136   0.878   1.202   1.352 -1.4776 -1.3392 -0.9847
   98MOL   H20341137   0.626   1.164   1.118  1.0376 -0.4147 -0.8598
   98MOL   H20441138   0.660   1.200   1.276 -1.3900 -3.7178  1.4312
   98MOL   H20541139   0.802   1.126   0.946 -0.2004  0.8265  0.0349
   98MOL   H20641140   0.833   0.991   0.760  1.6486 -1.9306 -0.1871
   98MOL   H20741141   0.810   0.744   0.758 -1.1803  1.3117 -0.6059
   98MOL   H20841142   0.763   0.627   0.984 -1.2186 -0.3401  2.1768
   98MOL   H20941143   0.711   0.757   1.172  2.5592  1.0186  1.7157
   98MOL   H21041144   0.986   1.442   1.376  1.1324  1.8288 -0.9861
   98MOL   H21141145   0.997   1.461   1.212  0.1234 -0.8046  0.6620
   98MOL   C21241146   0.798   1.487   1.277 -0.4070  0.8088  0.5304
   98MOL   O21341147   0.699   1.424   1.368  0.4598 -0.3733 -0.1222
   98MOL   C21441148   0.735   1.420   1.497 -0.8160 -0.4794 -1.1476
   98MOL   O21541149   0.632   1.365   1.579  0.0864 -0.2078 -0.0975
   98MOL   C21641150   0.645   1.379   1.719  0.1607  0.8659 -0.5192
   98MOL   C21741151   0.530   1.337   1.795 -0.6818  0.5380 -0.5009
   98MOL   C21841152   0.534   1.355   1.934  0.6520 -0.0322 -0.0963
   98MOL   C21941153   0.644   1.392   1.999 -0.9294  0.1701  0.3994
   98MOL   C22041154   0.757   1.432   1.927  0.0034 -0.3322  0.6253
   98MOL   C22141155   0.754   1.433   1.789 -0.2935  0.1263  0.8598
   98MOL   C22241156   0.815   1.639   1.301 -0.2512 -0.4891  0.0801
   98MOL   H22341157   0.755   1.470   1.178  0.7068  2.0628 -0.1800
   98MOL   H22441158   0.746   1.523   1.532  2.2129 -0.2540 -2.6132
   98MOL   H22541159   0.828   1.372   1.526 -0.7222  1.3609  1.9221
   98MOL   H22641160   0.444   1.297   1.743 -1.7510  1.3401  0.5990
   98MOL   H22741161   0.448   1.323   1.991  0.4896 -0.1213 -0.3901
   98MOL   H22841162   0.644   1.393   2.107 -1.5162 -2.0456  0.4493
   98MOL   H22941163   0.844   1.471   1.977 -1.4283 -0.1522  3.0662
   98MOL   H23041164   0.839   1.466   1.731 -1.7323  0.4176 -1.1256
   98MOL   H23141165   0.850   1.666   1.401  1.4414  1.2022 -0.9303
   98MOL   H23241166   0.892   1.660   1.227 -0.1523  0.3026  0.4051
   98MOL   C23341167   0.693   1.715   1.257  0.4520 -0.5293  0.1997
   98MOL   O23441168   0.578   1.677   1.344 -0.7842  0.2693 -0.1191
   98MOL   C23541169   0.460   1.659   1.276  0.0391  0.0859 -0.3509
   98MOL   O23641170   0.463   1.566   1.171 -0.1633  0.1217 -0.0886
   98MOL   C23741171   0.418   1.434   1.171  0.7833  0.2709 -0.1048
   98MOL   C23841172   0.399   1.368   1.047  0.0294 -0.1392 -0.0409
   98MOL   C23941173   0.375   1.226   1.048 -0.0431 -0.0008  0.1408
   98MOL   C24041174   0.363   1.153   1.172  0.9757 -0.3122 -0.1221
   98MOL   C24141175   0.396   1.224   1.293 -0.0719  0.5981  0.8188
   98MOL   C24241176   0.421   1.361   1.292  0.3362 -0.4734 -0.3136
   98MOL   C24341177   0.715   1.862   1.279  0.2646 -0.2894  0.1723
   98MOL   H24441178   0.676   1.694   1.152  0.6715  1.5192 -0.2709
   98MOL   H24541179   0.428   1.762   1.257  2.9653  1.1412  0.0450
   98MOL   H24641180   0.384   1.630   1.348 -0.2955  0.2952 -0.6172
   98MOL   H24741181   0.396   1.416   0.950 -1.3938  0.8698  0.4869
   98MOL   H24841182   0.361   1.176   0.954 -1.0962  1.3995 -0.4577
   98MOL   H24941183   0.336   1.049   1.179  1.0744 -0.2859  0.7469
   98MOL   H25041184   0.380   1.166   1.383 -1.3858  0.1162  0.2924
   98MOL   H25141185   0.435   1.407   1.389 -0.3577 -1.5684  0.3083
   98MOL   H25241186   0.620   1.914   1.264  1.6803  1.8260 -1.8253
   98MOL   H25341187   0.748   1.888   1.380  0.1191  1.7047 -0.2672
   98MOL   C25441188   0.809   1.936   1.178 -0.1402 -0.2183 -0.2139
   98MOL   O25541189   0.769   1.915   1.042 -0.2295  0.7311  0.4687
   98MOL   C25641190   0.874   1.908   0.948  0.1264 -0.4048  0.1584
   98MOL   O25741191   0.946   1.793   0.954  0.5881  0.4802 -0.1020
   98MOL   C25841192   0.878   1.674   0.915 -0.2658  0.1661  0.3532
   98MOL   C25941193   0.746   1.671   0.866  0.1381  0.2470 -0.5597
   98MOL   C26041194   0.688   1.542   0.840  0.3418 -0.1379  0.3996
   98MOL   C26141195   0.757   1.422   0.860 -0.4607  0.0076  0.0780
   98MOL   C26241196   0.894   1.431   0.896 -0.2528  0.5130  0.0278
   98MOL   C26341197   0.952   1.554   0.925 -0.3167 -0.5808 -0.5263
   98MOL   C26441198   0.813   2.093   1.190  0.2734 -0.0889 -0.1161
   98MOL   H26541199   0.912   1.906   1.199  0.9580  3.3352 -0.0469
   98MOL   H26641200   0.941   1.993   0.953 -0.7913  0.3188  0.2900
   98MOL   H26741201   0.841   1.913   0.844  1.6194 -0.6892 -0.3375
   98MOL   H26841202   0.679   1.755   0.856 -1.4508 -0.9569 -0.3398
   98MOL   H26941203   0.583   1.544   0.814  0.4952  2.1806 -0.1846
   98MOL   H27041204   0.700   1.331   0.849 -1.3329  0.6569 -0.9555
   98MOL   H27141205   0.959   1.345   0.911  0.5029  1.1560  0.4535
   98MOL   H27241206   1.057   1.563   0.948 -0.2509  1.6122 -1.5216
   98MOL   H27341207   0.863   2.138   1.104 -0.8696 -0.3352 -0.9116
   98MOL   H27441208   0.711   2.131   1.187 -0.3089 -1.4856  1.3314
   98MOL   C27541209   0.864   2.162   1.321  0.6963  0.2362  0.6187
   98MOL   O27641210   1.003   2.152   1.324 -0.4346 -0.2095  0.3450
   98MOL   C27741211   1.084   2.198   1.432 -0.1370  0.0373  0.2926
   98MOL   O27841212   1.016   2.203   1.549 -0.4120  0.1948  0.1338
   98MOL   C27941213   0.997   2.086   1.615 -0.9264 -0.0490  0.4291
   98MOL   C28041214   1.022   1.958   1.562 -0.4698 -0.4114 -0.4647
   98MOL   C28141215   1.001   1.836   1.630 -0.1821 -0.2415  0.2585
   98MOL   C28241216   0.937   1.849   1.760  0.2367  0.0958 -0.5123
   98MOL   C28341217   0.913   1.973   1.812 -0.3937 -0.1712  0.2322
   98MOL   C28441218   0.941   2.091   1.743 -0.5526 -0.0655 -0.5162
   98MOL   C28541219   0.823   2.304   1.334 -0.2708 -0.2549  0.7279
   98MOL   H28641220   0.824   2.101   1.403 -1.8180 -1.1242 -1.5316
   98MOL   H28741221   1.120   2.296   1.402 -0.1177  0.3495  1.3277
   98MOL   H28841222   1.172   2.133   1.430 -0.8596 -0.9655  0.8072
   98MOL   H28941223   1.072   1.947   1.467  0.7751  0.0002  0.1354
   98MOL   H29041224   1.012   1.736   1.592 -0.5471 -0.0331 -0.4158
   98MOL   H29141225   0.911   1.762   1.819  2.4476 -0.2315 -0.0119
   98MOL   H29241226   0.866   1.979   1.909  1.1439 -1.2361  1.0643
   98MOL   H29341227   0.921   2.185   1.793 -0.3567 -1.2991  1.9435
   98MOL   H29441228   0.837   2.366   1.246  1.8641 -1.2750  0.2876
   98MOL   H29541229   0.894   2.357   1.398  0.0826 -0.3179  0.3927
   98MOL   C29641230   0.685   2.316   1.395  0.7506  0.1208  0.3645
   98MOL   O29741231   0.709   2.361   1.535  0.0852  0.0794  0.5616
   98MOL   C29841232   0.674   2.286   1.646 -0.2757 -0.4530 -0.2123
   98MOL   O29941233   0.542   2.290   1.669  0.4005 -0.4453 -0.1445
   98MOL   C30041234   0.497   2.249   1.793 -0.2339 -0.3337 -0.0934
   98MOL   C30141235   0.557   2.132   1.845 -0.5416  0.4474  0.1312
   98MOL   C30241236   0.520   2.084   1.971  0.5461 -0.5850 -0.9316
   98MOL   C30341237   0.405   2.140   2.037  1.2007  0.6422 -0.1794
   98MOL   C30441238   0.339   2.255   1.983 -0.2831  0.2361 -0.4022
   98MOL   C30541239   0.382   2.299   1.858  0.8908 -0.6174 -0.0568
   98MOL   C30641240   0.590   2.412   1.321  0.8952 -0.3204  0.1724
   98MOL   H30741241   0.635   2.219   1.395 -0.2045  0.6000 -1.4229
   98MOL   H30841242   0.723   2.329   1.733 -0.8075 -0.6122  0.1629
   98MOL   H30941243   0.703   2.183   1.629 -2.1074 -1.0208  0.0583
   98MOL   H31041244   0.645   2.082   1.808 -0.1229  2.2379 -1.3306
   98MOL   H31141245   0.576   2.001   2.012  0.1319  0.1675  1.2104
   98MOL   H31241246   0.380   2.096   2.133 -0.1608  0.5860 -0.5550
   98MOL   H31341247   0.255   2.304   2.030 -0.6695 -0.4750 -0.3512
   98MOL   H31441248   0.329   2.386   1.822 -0.0731 -1.6693 -1.2302
   98MOL   H31541249   0.647   2.498   1.288 -0.1731  0.4840  0.3823
   98MOL   H31641250   0.529   2.450   1.404  2.6577 -1.3804  2.0021
   98MOL   C31741251   0.501   2.351   1.219 -0.5877 -0.1793  0.9143
   98MOL   O31841252   0.437   2.447   1.133  0.3925  0.1672 -0.3381
   98MOL   C31941253   0.511   2.485   1.023  0.4893  0.0213 -0.2405
   98MOL   O32041254   0.549   2.367   0.946 -0.2771  0.4565  0.2821
   98MOL   C32141255   0.660   2.377   0.872  0.4919  0.1379 -1.1430
   98MOL   C32241256   0.695   2.496   0.800 -0.8006 -0.2356 -0.0786
   98MOL   C32341257   0.807   2.499   0.718 -0.7678  0.0708  0.1633
   98MOL   C32441258   0.899   2.390   0.716  0.4196 -0.6049  0.5662
   98MOL   C32541259   0.862   2.270   0.782 -0.0077 -0.2613  0.0860
   98MOL   C32641260   0.751   2.266   0.861  0.4251  0.6917 -0.2854
   98MOL   C32741261   0.383   2.277   1.291 -0.3434 -0.4984  1.2952
   98MOL   H32841262   0.557   2.277   1.161 -0.5855  1.6210 -1.4684
   98MOL   H32941263   0.593   2.552   1.049 -0.0826  0.3506  0.7316
   98MOL   H33041264   0.441   2.552   0.973 -0.3077 -0.1019  0.6867
   98MOL   H33141265   0.637   2.587   0.802 -0.0237  0.3127 -1.5820
   98MOL   H33241266   0.839   2.583   0.657 -1.3331 -0.3556 -0.7322
   98MOL   H33341267   0.986   2.398   0.652  0.3693 -1.2849  0.4045
   98MOL   H33441268   0.925   2.183   0.784  1.4555  0.7984  1.5341
   98MOL   H33541269   0.729   2.174   0.913 -0.5387  1.0395 -0.0702
   98MOL   H33641270   0.418   2.229   1.382  0.4882 -0.9471  0.7363
   98MOL   H33741271   0.319   2.359   1.324  1.1815  1.2033  0.1520
   98MOL   C33841272   0.309   2.171   1.199  0.1452 -0.3155  0.0382
   98MOL   O33941273   0.408   2.080   1.155 -0.1696 -0.0880  0.0902
   98MOL   C34041274   0.419   2.071   1.016  0.0461  0.2993 -0.5088
   98MOL   O34141275   0.302   2.046   0.945  0.8934  0.0948  0.4884
   98MOL   C34241276   0.246   1.924   0.943  0.1459  0.6501 -0.0592
   98MOL   C34341277   0.128   1.917   0.860 -0.7986  0.4071  0.6454
   98MOL   C34441278   0.043   1.806   0.861 -0.2458 -0.0286 -0.1816
   98MOL   C34541279   0.097   1.689   0.925  0.9570 -0.0399 -0.0605
   98MOL   C34641280   0.223   1.685   0.985  0.2528  0.2745  0.0123
   98MOL   C34741281   0.297   1.803   0.999 -0.0577  0.5306  0.3404
   98MOL   C34841282   0.204   2.098   1.275  0.1484  0.1700 -0.1698
   98MOL   H34941283   0.265   2.231   1.120  1.5457  0.3444 -0.2711
   98MOL   H35041284   0.495   1.997   0.989  0.0337  1.0633 -2.7312
   98MOL   H35141285   0.461   2.166   0.982 -0.2609 -0.1801 -2.3084
   98MOL   H35241286   0.098   2.002   0.801 -1.0980 -0.2364 -0.1249
   98MOL   H35341287   7.924   1.813   0.810  0.1690 -0.2945 -0.9927
   98MOL   H35441288   0.025   1.608   0.931 -0.7035  1.4510  0.5494
   98MOL   H35541289   0.257   1.593   1.029 -1.1650 -0.0102  0.5539
   98MOL   H35641290   0.392   1.795   1.050  0.1150 -0.3291 -0.1138
   98MOL   H35741291   0.251   2.045   1.357 -1.7814 -0.0383  0.8211
   98MOL   H35841292   0.159   2.016   1.219 -0.5350 -0.1248  0.8019
   98MOL   C35941293   0.086   2.182   1.325  0.4743  0.5285 -0.4590
   98MOL   O36041294   0.043   2.113   1.448  0.0159 -0.0489  0.4389
   98MOL   C36141295   0.101   2.160   1.565 -0.3682 -0.2243 -0.0471
   98MOL   O36241296   0.024   2.262   1.619  0.0137  0.0188 -0.1403
   98MOL   C36341297   7.905   2.242   1.712  0.4730 -0.4332  0.1667
   98MOL   C36441298   7.862   2.354   1.786  0.4197 -0.6727  0.8094
   98MOL   C36541299   7.760   2.347   1.882 -0.2550 -0.4555  0.1587
   98MOL   C36641300   7.704   2.221   1.910  0.6419 -0.0757 -0.2427
   98MOL   C36741301   7.740   2.106   1.837 -0.1514 -0.0388  0.3270
   98MOL   C36841302   7.843   2.120   1.743  0.1629  1.0775  0.3699
   98MOL   C36941303   7.949   2.197   1.216  0.0337  0.1702  0.0839
   98MOL   H37041304   0.110   2.284   1.353 -0.8525  0.6905  0.1311
   98MOL   H37141305   0.202   2.200   1.556 -0.4952  0.5471  1.7690
   98MOL   H37241306   0.111   2.083   1.642  2.2709  1.2728  1.1821
   98MOL   H37341307   7.907   2.451   1.774 -1.1673 -0.0541 -0.3036
   98MOL   H37441308   7.725   2.439   1.928  3.9770  1.1109  0.4643
   98MOL   H37541309   7.635   2.204   1.991  1.4856  1.7844  0.9298
   98MOL   H37641310   7.682   2.016   1.857  0.7173 -1.1669 -2.0972
   98MOL   H37741311   7.857   2.038   1.675  0.6107  1.5561 -0.1133
   98MOL   H37841312   7.919   2.099   1.178  2.8929 -0.7201 -0.0022
   98MOL   H37941313   0.035   2.250   1.144  0.5775 -0.9084 -0.2502
   98MOL   C38041314   7.821   2.279   1.249 -0.3090  0.0511  0.6541
   98MOL   O38141315   7.746   2.201   1.344  0.4659 -0.0451  0.4797
   98MOL   C38241316   7.699   2.283   1.445  0.2032  0.4574  0.0972
   98MOL   O38341317   7.596   2.365   1.400 -0.2791  0.3179 -0.1095
   98MOL   C38441318   7.589   2.490   1.453  0.1324  0.1144 -0.1626
   98MOL   C38541319   7.581   2.597   1.363  0.0622 -0.2738 -0.1297
   98MOL   C38641320   7.570   2.727   1.409  0.2431  0.9445 -0.4072
   98MOL   C38741321   7.554   2.747   1.547  0.2217  0.1703  0.7003
   98MOL   C38841322   7.548   2.633   1.630  0.1204 -0.4091 -0.4157
   98MOL   C38941323   7.567   2.507   1.586  0.0762  0.6584  0.6718
   98MOL   C39041324   7.727   2.301   1.125 -1.1370  0.0867 -0.4284
   98MOL   H39141325   7.868   2.367   1.293 -0.1140  0.6690 -0.7889
   98MOL   H39241326   7.657   2.221   1.524  0.1310  0.3110 -0.0556
   98MOL   H39341327   7.777   2.346   1.488  0.3089 -0.0364  0.6352
   98MOL   H39441328   7.587   2.576   1.257  3.3338  0.0348 -0.0536
   98MOL   H39541329   7.563   2.817   1.350  0.2681  1.2301  0.0226
   98MOL   H39641330   7.541   2.850   1.578  0.5073  0.5691 -0.4958
   98MOL   H39741331   7.537   2.658   1.735  1.6750  1.7790 -0.7240
   98MOL   H39841332   7.586   2.428   1.657  0.5550  0.8183  0.7191
   98MOL   H39941333   7.625   2.320   1.158 -2.1497  0.3285 -3.4988
   98MOL   H40041334   7.716   2.210   1.067 -3.5144 -1.1471  1.8521
   98MOL   C40141335   7.763   2.422   1.035  0.1604 -0.3832 -0.3866
   98MOL   O40241336   7.896   2.412   0.982  0.3991 -0.1645 -0.0697
   98MOL   C40341337   7.932   2.330   0.880  0.4658 -0.0143  0.1729
   98MOL   O40441338   0.097   2.335   0.872 -0.3644 -0.4714  0.4695
   98MOL   C40541339   0.152   2.281   0.755 -0.7683 -0.0263  0.0012
   98MOL   C40641340   0.294   2.271   0.739 -0.6024  0.2246 -0.1892
   98MOL   C40741341   0.356   2.223   0.620 -0.1187  0.5809 -0.2592
   98MOL   C40841342   0.272   2.178   0.514 -0.8109  0.5037  0.0903
   98MOL   C40941343   0.133   2.192   0.526 -0.1860  0.2829  0.3409
   98MOL   C41041344   0.079   2.231   0.644 -0.1117  0.3598  0.6699
   98MOL   C41141345   7.656   2.438   0.925  0.3004 -0.0590 -0.5188
   98MOL   H41241346   7.761   2.507   1.102  0.0762 -0.8243  0.1711
   98MOL   H41341347   7.883   2.370   0.791 -0.3025  2.4654  1.6714
   98MOL   H41441348   7.897   2.228   0.900  0.4154 -0.0466 -0.0667
   98MOL   H41541349   0.356   2.296   0.824  1.1972 -0.4251 -1.2723
   98MOL   H41641350   0.463   2.226   0.606  0.2627  1.0622  2.4420
   98MOL   H41741351   0.315   2.139   0.422 -0.2127  0.1396  0.5180
   98MOL   H41841352   0.057   2.175   0.451 -0.5104  4.3385 -0.3855
   98MOL   H41941353   7.948   2.223   0.652 -0.2194  1.1350  0.0680
   98MOL   H42041354   7.673   2.516   0.851 -0.9360  2.2433  1.5609
   98MOL   H42141355   7.562   2.462   0.975  2.0669  0.8355  2.5315
   98MOL   H42241356   7.652   2.344   0.869 -0.8581  1.2339 -2.6430
   99MOL     C141357   6.404   6.760   3.765  0.6959  0.2665  0.1564
   99MOL     O241358   6.509   6.684   3.832 -0.0167 -0.3145 -0.0491
   99MOL     C341359   6.617   6.673   3.740  0.3988  0.1188 -0.2803
   99MOL     O441360   6.723   6.613   3.796  0.2381  0.4865  0.8618
   99MOL     C541361   6.720   6.484   3.822 -0.0993 -0.1661 -0.7411
   99MOL     C641362   6.831   6.435   3.894 -0.2081  0.0506 -0.4809
   99MOL     C741363   6.839   6.299   3.937 -0.1047 -0.6921  0.0378
   99MOL     C841364   6.727   6.216   3.908 -0.5458  0.0612  0.7777
   99MOL     C941365   6.607   6.269   3.847  0.0302  0.8682 -0.9641
   99MOL    C1041366   6.608   6.400   3.800 -0.4413 -0.4558 -0.3310
   99MOL    C1141367   6.275   6.735   3.842  0.2191 -0.2277  0.0373
   99MOL    H1241368   6.432   6.865   3.764 -0.5442  0.6149  1.4034
   99MOL    H1341369   6.595   6.623   3.646  1.8636 -0.5534 -0.2855
   99MOL    H1441370   6.651   6.769   3.703  1.8061  0.0067  0.6795
   99MOL    H1541371   6.917   6.495   3.918 -1.0036  1.6382 -1.4797
   99MOL    H1641372   6.926   6.257   3.987 -1.8150 -3.5946  0.6962
   99MOL    H1741373   6.728   6.113   3.938  0.9684 -0.2652 -0.3370
   99MOL    H1841374   6.514   6.215   3.856  0.0473  0.8013 -1.1896
   99MOL    H1941375   6.526   6.427   3.735  0.3536 -0.3207 -1.2904
   99MOL    H2041376   6.202   6.797   3.789 -0.0557  2.8685  3.8082
   99MOL    H2141377   6.288   6.771   3.944  1.7218 -0.9413  0.1082
   99MOL    H2241378   6.387   6.730   3.661  1.3671  1.2946 -0.2558
   99MOL    C2341379   6.226   6.587   3.838  0.8588 -0.1739 -0.3780
   99MOL    O2441380   6.162   6.566   3.710 -0.4547 -0.0155  0.0224
   99MOL    C2541381   6.184   6.444   3.653  0.4552 -0.1985 -0.1992
   99MOL    O2641382   6.313   6.441   3.592  0.2863 -0.4000 -0.3044
   99MOL    C2741383   6.322   6.497   3.469  0.3287  0.1496 -0.0972
   99MOL    C2841384   6.449   6.488   3.404 -1.0435 -0.8005 -0.4017
   99MOL    C2941385   6.463   6.557   3.282 -0.4545 -0.4859 -0.6026
   99MOL    C3041386   6.363   6.624   3.216 -0.0215  0.3007 -0.6638
   99MOL    C3141387   6.240   6.639   3.283  0.0720  0.1145  0.2541
   99MOL    C3241388   6.226   6.587   3.407  0.7030  0.4323 -0.1708
   99MOL    C3341389   6.120   6.551   3.943 -0.1966  0.1287  0.6615
   99MOL    H3441390   6.316   6.528   3.852  1.5591  1.2534  1.3061
   99MOL    H3541391   6.099   6.425   3.588  0.5743 -0.4273 -0.2880
   99MOL    H3641392   6.201   6.360   3.720 -1.6962 -0.9312 -0.5260
   99MOL    H3741393   6.531   6.431   3.446  0.6979 -0.6556 -3.4655
   99MOL    H3841394   6.563   6.550   3.240  1.7708  1.2291  4.0583
   99MOL    H3941395   6.379   6.663   3.116  0.6259  2.2915  0.1932
   99MOL    H4041396   6.155   6.688   3.238 -0.9128 -1.6784  0.0983
   99MOL    H4141397   6.139   6.619   3.463  1.3999 -1.6825  2.2228
   99MOL    H4241398   6.088   6.451   3.915  0.3806 -0.8611  3.3757
   99MOL    H4341399   6.031   6.613   3.931 -0.3188 -0.1842 -0.0183
   99MOL    C4441400   6.154   6.547   4.093  0.0748  0.5656  1.4888
   99MOL    O4541401   6.251   6.439   4.116 -0.0677  0.0488 -0.2013
   99MOL    C4641402   6.385   6.478   4.141  0.0604 -0.2695  0.3574
   99MOL    O4741403   6.454   6.365   4.157 -0.1839  0.0772  0.1202
   99MOL    C4841404   6.587   6.366   4.194  0.0076  0.3652 -0.1471
   99MOL    C4941405   6.664   6.488   4.197  0.7192 -0.3881 -0.3502
   99MOL    C5041406   6.805   6.475   4.217 -0.2993  0.2569  0.0518
   99MOL    C5141407   6.860   6.351   4.256  0.0558  0.3611 -0.2283
   99MOL    C5241408   6.780   6.236   4.265 -0.2377  0.0824 -0.2753
   99MOL    C5341409   6.641   6.241   4.234  0.3818  0.1954  0.4802
   99MOL    C5441410   6.042   6.523   4.194 -0.5545 -0.3973 -0.0435
   99MOL    H5541411   6.192   6.644   4.123 -1.8201  1.9741 -0.5318
   99MOL    H5641412   6.395   6.536   4.233 -1.6728  0.2463  0.2383
   99MOL    H5741413   6.432   6.534   4.060  0.2680  0.1246  0.7488
   99MOL    H5841414   6.628   6.585   4.168  1.3456 -0.3574 -1.0437
   99MOL    H5941415   6.863   6.566   4.214  0.5743 -0.2178  1.9290
   99MOL    H6041416   6.968   6.361   4.259  0.0601  0.0884  0.6734
   99MOL    H6141417   6.819   6.140   4.293  0.4007  0.7575  1.2285
   99MOL    H6241418   6.576   6.154   4.230 -1.2299  1.2057  3.4224
   99MOL    H6341419   5.963   6.596   4.177 -0.4003 -0.4122 -0.8753
   99MOL    H6441420   6.003   6.421   4.183 -1.5714 -0.0439  0.1962
   99MOL    C6541421   6.090   6.556   4.337  0.5669  0.1649  0.3521
   99MOL    O6641422   6.102   6.702   4.355 -0.1485 -0.0532  0.2656
   99MOL    C6741423   6.217   6.752   4.416  0.0577  0.3325  0.0675
   99MOL    O6841424   6.325   6.749   4.329 -0.4009  0.2411  0.0939
   99MOL    C6941425   6.335   6.846   4.236 -0.4924  0.0719 -0.6810
   99MOL    C7041426   6.455   6.855   4.162 -0.0142  0.4822  0.0263
   99MOL    C7141427   6.467   6.957   4.065 -1.0264 -0.4458  0.7433
   99MOL    C7241428   6.364   7.058   4.051  0.3931 -0.3086  0.3927
   99MOL    C7341429   6.253   7.055   4.128  0.9055 -0.1592 -0.0138
   99MOL    C7441430   6.239   6.948   4.220 -0.7290  0.4563  0.4627
   99MOL    C7541431   5.989   6.518   4.449 -0.5808 -0.5160  0.8364
   99MOL    H7641432   6.188   6.511   4.351  0.6366 -0.3342 -1.7078
   99MOL    H7741433   6.250   6.691   4.501 -0.8700 -0.4149 -0.0938
   99MOL    H7841434   6.202   6.852   4.456 -0.6432  0.7959 -1.3418
   99MOL    H7941435   6.539   6.790   4.182 -0.3702 -1.0979 -3.3171
   99MOL    H8041436   6.557   6.967   4.007  0.0323 -1.4694  2.1669
   99MOL    H8141437   6.379   7.146   3.989  0.7983 -0.6984 -0.0615
   99MOL    H8241438   6.174   7.128   4.124 -1.3623 -2.4527  0.7147
   99MOL    H8341439   6.146   6.952   4.277 -0.3668 -1.5004  1.2325
   99MOL    H8441440   6.044   6.530   4.542  2.1308 -1.2875 -0.6006
   99MOL    H8541441   5.911   6.594   4.456  0.5284  0.8873 -1.4627
   99MOL    C8641442   5.896   6.391   4.434 -0.2556  0.1622  0.2456
   99MOL    O8741443   5.795   6.407   4.326 -0.2014 -0.2247 -0.8206
   99MOL    C8841444   5.681   6.325   4.347 -0.6539  0.2763  0.5995
   99MOL    O8941445   5.583   6.373   4.263 -0.2626  0.1393 -0.4399
   99MOL    C9041446   5.607   6.372   4.127  0.1762 -0.2522  0.2735
   99MOL    C9141447   5.518   6.448   4.041  0.0873  0.0373 -0.3341
   99MOL    C9241448   5.545   6.442   3.902  0.9197  0.0995 -0.6748
   99MOL    C9341449   5.649   6.365   3.849 -0.9432 -0.0456 -0.3046
   99MOL    C9441450   5.730   6.290   3.936 -0.0331  0.5877 -0.4802
   99MOL    C9541451   5.706   6.293   4.074  0.3697 -0.7556  0.0871
   99MOL    C9641452   5.974   6.256   4.404  0.1752  0.2673  0.3478
   99MOL    H9741453   5.854   6.385   4.535  0.6434  1.4390  0.7069
   99MOL    H9841454   5.652   6.348   4.449  2.2144  1.1860  1.2542
   99MOL    H9941455   5.685   6.216   4.349  0.2108  0.2955  4.4743
   99MOL   H10041456   5.439   6.507   4.086  2.1399  2.5634  0.0824
   99MOL   H10141457   5.480   6.502   3.838 -0.8246 -1.5649 -0.5085
   99MOL   H10241458   5.670   6.380   3.744 -1.6327 -0.8233 -0.5549
   99MOL   H10341459   5.812   6.241   3.885 -0.3187  1.8740 -2.2014
   99MOL   H10441460   5.772   6.228   4.130  1.0009 -0.2357 -0.0469
   99MOL   H10541461   5.901   6.177   4.386  0.3294  0.3173 -0.4758
   99MOL   H10641462   6.029   6.272   4.312  2.1611  0.0935  1.4663
   99MOL   C10741463   6.066   6.206   4.516 -0.0142  0.0953 -0.0695
   99MOL   O10841464   5.985   6.177   4.635  0.1074  0.6422 -0.7851
   99MOL   C10941465   6.055   6.198   4.758  0.1561  0.1731  0.2945
   99MOL   O11041466   6.049   6.334   4.784 -0.0437  0.0708  0.2990
   99MOL   C11141467   6.095   6.385   4.906 -0.3327 -0.2803  0.2319
   99MOL   C11241468   6.072   6.520   4.942 -0.3001 -0.5236  0.6537
   99MOL   C11341469   6.120   6.577   5.058  0.8401  1.2909 -0.2436
   99MOL   C11441470   6.191   6.492   5.142  0.1246 -0.1972 -0.6267
   99MOL   C11541471   6.208   6.354   5.122 -0.2189  0.2972  0.9767
   99MOL   C11641472   6.168   6.300   4.999  0.2661  1.1138 -0.0864
   99MOL   C11741473   6.129   6.061   4.487 -0.6312  0.3643 -0.1555
   99MOL   H11841474   6.148   6.272   4.546 -1.0804  0.4888  2.0743
   99MOL   H11941475   6.160   6.168   4.752  0.7125  1.8178  1.4547
   99MOL   H12041476   6.012   6.124   4.825 -1.4063  0.7527 -0.0453
   99MOL   H12141477   6.017   6.588   4.880 -1.0884 -1.0009  0.8168
   99MOL   H12241478   6.105   6.679   5.091  0.2235  0.2570  2.8011
   99MOL   H12341479   6.227   6.520   5.239  1.2412 -1.5011 -0.6478
   99MOL   H12441480   6.256   6.293   5.197  0.1873 -0.5846  0.0314
   99MOL   H12541481   6.212   6.206   4.970 -3.4080 -1.1778  1.4552
   99MOL   H12641482   6.047   5.993   4.467  1.1683 -2.5041  1.8601
   99MOL   H12741483   6.163   6.021   4.582 -0.4191 -0.9895 -0.7927
   99MOL   C12841484   6.228   6.054   4.375 -0.4745  0.1750  0.0854
   99MOL   O12941485   6.165   6.076   4.252 -0.5333  0.1993  0.1400
   99MOL   C13041486   6.239   6.137   4.154  0.2180 -0.7862  0.3923
   99MOL   O13141487   6.282   6.047   4.059 -0.2088  0.1165 -0.3943
   99MOL   C13241488   6.200   6.021   3.955  0.5399 -0.0384  0.0642
   99MOL   C13341489   6.235   5.909   3.865  0.3936  0.0893 -0.1520
   99MOL   C13441490   6.170   5.876   3.745  0.4742  0.6362 -0.3690
   99MOL   C13541491   6.055   5.952   3.714 -0.4074 -0.3785  0.2443
   99MOL   C13641492   6.020   6.066   3.794 -0.2841 -0.1025  0.1244
   99MOL   C13741493   6.086   6.098   3.912  0.6441  0.1668 -0.3946
   99MOL   C13841494   6.314   5.930   4.384 -0.7526  0.1590 -0.2160
   99MOL   H13941495   6.292   6.141   4.389 -0.7416  0.5764 -1.1410
   99MOL   H14041496   6.330   6.184   4.193 -0.5414  0.6289  0.4630
   99MOL   H14141497   6.199   6.234   4.127  1.8672 -0.1106  0.2878
   99MOL   H14241498   6.326   5.854   3.883  1.0184  0.4374 -2.1445
   99MOL   H14341499   6.211   5.805   3.675  0.4071 -0.7159  0.9362
   99MOL   H14441500   6.014   5.921   3.619  0.4158  0.4794 -0.3889
   99MOL   H14541501   5.945   6.137   3.763  0.5733  0.8182  0.1568
   99MOL   H14641502   6.049   6.183   3.967  3.1249  1.2767 -0.3707
   99MOL   H14741503   6.385   5.931   4.302  0.1033  1.4420  0.5150
   99MOL   H14841504   6.384   5.949   4.466  1.3411 -2.6907 -1.2391
   99MOL   C14941505   6.241   5.796   4.389 -0.2036 -0.4109 -0.2734
   99MOL   O15041506   6.320   5.684   4.335 -0.3026  0.2714 -0.1562
   99MOL   C15141507   6.299   5.652   4.198 -0.0305  0.2571 -0.7359
   99MOL   O15241508   6.183   5.580   4.192  0.0949 -0.8743 -0.3943
   99MOL   C15341509   6.130   5.568   4.063 -0.2363 -0.0591 -0.1574
   99MOL   C15441510   5.992   5.574   4.058  0.3348  0.5133  0.5594
   99MOL   C15541511   5.923   5.547   3.941 -0.2986 -0.2408 -0.5216
   99MOL   C15641512   5.992   5.542   3.821 -0.3381 -0.3813 -0.5270
   99MOL   C15741513   6.132   5.547   3.820 -0.9025  0.0429  0.0901
   99MOL   C15841514   6.205   5.560   3.942  0.0615 -0.0658  0.9214
   99MOL   C15941515   6.205   5.738   4.529 -0.5715 -0.0743  0.2113
   99MOL   H16041516   6.144   5.798   4.340 -0.9557  0.5809  1.2188
   99MOL   H16141517   6.289   5.740   4.134 -2.1475 -1.0972 -2.3386
   99MOL   H16241518   6.371   5.586   4.150  1.1649  1.0563 -0.0553
   99MOL   H16341519   5.939   5.593   4.149 -0.3854  0.2992  0.1879
   99MOL   H16441520   5.815   5.546   3.944 -0.3345 -1.3055 -1.9649
   99MOL   H16541521   5.946   5.561   3.725  2.8127  0.7532 -1.8870
   99MOL   H16641522   6.180   5.528   3.725 -0.7931 -3.9065  0.8513
   99MOL   H16741523   6.313   5.557   3.943  0.1298  2.2199  1.1156
   99MOL   H16841524   6.163   5.817   4.591 -1.3041  0.4904 -0.9820
   99MOL   H16941525   6.293   5.707   4.585 -0.8675  1.0986  1.3520
   99MOL   C17041526   6.111   5.612   4.534 -0.1693 -0.6712 -0.4575
   99MOL   O17141527   6.101   5.586   4.678 -0.1035  0.1794  0.3022
   99MOL   C17241528   6.177   5.482   4.717  0.1862  0.1140  0.5757
   99MOL   O17341529   6.308   5.522   4.740  0.5576 -0.2667 -0.1156
   99MOL   C17441530   6.327   5.621   4.837  0.0142  1.4346  0.2209
   99MOL   C17541531   6.227   5.716   4.883 -0.4298  0.0132 -0.2719
   99MOL   C17641532   6.265   5.825   4.971 -0.1510 -0.3288  0.1035
   99MOL   C17741533   6.397   5.820   5.017 -0.2367  0.1583  0.0736
   99MOL   C17841534   6.492   5.724   4.982 -0.2346 -0.5100  0.3856
   99MOL   C17941535   6.458   5.631   4.886  0.0664 -0.8984 -0.5321
   99MOL   C18041536   5.972   5.653   4.499  0.3972 -0.0314 -0.3079
   99MOL   H18141537   6.157   5.534   4.472 -0.2243 -0.3091 -0.9579
   99MOL   H18241538   6.185   5.401   4.645  0.5221  1.7165 -1.2344
   99MOL   H18341539   6.143   5.432   4.808  0.4553 -3.6155 -1.2739
   99MOL   H18441540   6.124   5.706   4.851 -0.4437  1.2868 -0.6219
   99MOL   H18541541   6.191   5.901   4.995  1.4430  1.6704 -1.1139
   99MOL   H18641542   6.433   5.896   5.085 -1.7679 -1.7509  3.1142
   99MOL   H18741543   6.584   5.730   5.037 -1.2768  3.0242  1.8390
   99MOL   H18841544   6.539   5.570   4.850  0.9433 -0.5187  0.7455
   99MOL   H18941545   5.944   5.744   4.552 -0.7150  0.0592 -1.0161
   99MOL   H19041546   5.979   5.687   4.396 -0.2753  1.2930  0.0798
   99MOL   C19141547   5.873   5.541   4.481  1.0201  0.2919  0.4123
   99MOL   O19241548   5.898   5.472   4.353  0.1840  0.0043  0.0303
   99MOL   C19341549   5.975   5.354   4.354  0.0594  0.6136 -0.3152
   99MOL   O19441550   5.909   5.246   4.408  0.0087 -0.3093 -0.6066
   99MOL   C19541551   5.819   5.171   4.339 -0.2708 -0.3494  0.1758
   99MOL   C19641552   5.800   5.039   4.384  0.3158 -0.2729  0.9818
   99MOL   C19741553   5.712   4.950   4.318 -0.2446 -0.1919 -0.7726
   99MOL   C19841554   5.650   4.998   4.201 -0.1710  1.1807 -0.4938
   99MOL   C19941555   5.679   5.124   4.148  0.1805 -0.1198 -0.3817
   99MOL   C20041556   5.758   5.210   4.217 -0.7858 -1.4199  0.8244
   99MOL   C20141557   5.735   5.587   4.485 -1.2766  0.8006 -0.2721
   99MOL   H20241558   5.883   5.475   4.567 -1.2838  0.0112  0.4883
   99MOL   H20341559   6.068   5.353   4.411  1.2485 -0.0774 -2.2298
   99MOL   H20441560   5.996   5.325   4.251  0.0126  0.6416 -0.3327
   99MOL   H20541561   5.848   5.012   4.477 -0.6765  0.1595  1.6286
   99MOL   H20641562   5.694   4.851   4.358 -3.0878  0.0081 -1.4761
   99MOL   H20741563   5.587   4.939   4.137 -0.2711 -1.8007  2.2224
   99MOL   H20841564   5.644   5.160   4.052  0.6836 -0.2979 -0.6327
   99MOL   H20941565   5.786   5.309   4.183 -2.9703 -1.0006  0.1623
   99MOL   H21041566   5.731   5.639   4.580  0.9267 -1.2371  0.9888
   99MOL   H21141567   5.717   5.649   4.397 -0.5392 -1.9101 -2.3977
   99MOL   C21241568   5.635   5.474   4.496 -0.3232 -0.2165 -0.2708
   99MOL   O21341569   5.660   5.413   4.627 -0.4317 -0.2210 -0.7728
   99MOL   C21441570   5.607   5.288   4.646  0.3470 -0.6002  1.3242
   99MOL   O21541571   5.626   5.230   4.766  0.1124  0.4314 -0.3582
   99MOL   C21641572   5.548   5.257   4.879 -0.3148 -0.0523  0.0367
   99MOL   C21741573   5.605   5.216   4.995  0.2608  0.9460 -0.5026
   99MOL   C21841574   5.541   5.237   5.122  0.4492  0.3313  0.1924
   99MOL   C21941575   5.415   5.304   5.128  0.4979  0.7218 -0.0103
   99MOL   C22041576   5.349   5.337   5.004  0.3933 -0.3090 -0.7103
   99MOL   C22141577   5.424   5.323   4.880  0.6911 -0.0973 -0.1248
   99MOL   C22241578   5.492   5.522   4.475  0.1785 -0.6237 -0.1394
   99MOL   H22341579   5.650   5.397   4.420 -1.9514  1.0593 -1.9353
   99MOL   H22441580   5.641   5.215   4.572 -0.9452 -2.1118  2.1787
   99MOL   H22541581   5.502   5.283   4.616  0.9146 -0.9728 -0.7332
   99MOL   H22641582   5.707   5.181   4.998  0.2111  0.8005 -0.5194
   99MOL   H22741583   5.599   5.211   5.210  2.4188  0.1944 -1.1246
   99MOL   H22841584   5.367   5.320   5.223  1.3083  0.1122  0.5096
   99MOL   H22941585   5.254   5.387   4.993 -0.0824 -1.6385 -2.8380
   99MOL   H23041586   5.370   5.353   4.791  0.3659  1.5855  0.6400
   99MOL   H23141587   5.417   5.455   4.516 -1.3218  0.2605 -1.3528
   99MOL   H23241588   5.483   5.617   4.528  0.0169 -0.6901 -0.0491
   99MOL   C23341589   5.455   5.557   4.326 -0.6686 -0.1320  0.3884
   99MOL   O23441590   5.482   5.439   4.239  0.3357  0.1099  0.6329
   99MOL   C23541591   5.549   5.476   4.120  0.6800 -0.8532  0.5447
   99MOL   O23641592   5.458   5.531   4.032  0.2276 -0.4197  0.1800
   99MOL   C23741593   5.384   5.442   3.960 -0.0946 -0.6297  0.3462
   99MOL   C23841594   5.317   5.484   3.840 -0.6366  0.3227 -0.0806
   99MOL   C23941595   5.242   5.388   3.765  0.0152 -0.3219 -0.0617
   99MOL   C24041596   5.212   5.261   3.811 -0.1471 -0.0292  0.4031
   99MOL   C24141597   5.263   5.223   3.939  0.2917 -0.1090 -0.5956
   99MOL   C24241598   5.351   5.313   4.005  0.3069  0.0924  0.6173
   99MOL   C24341599   5.312   5.584   4.308  0.1267 -0.3701 -0.2226
   99MOL   H24441600   5.516   5.644   4.299 -2.2866  1.1653  0.8408
   99MOL   H24541601   5.604   5.392   4.077  2.1585  1.0039 -1.2792
   99MOL   H24641602   5.633   5.540   4.145  0.0145 -0.7771  2.7000
   99MOL   H24741603   5.319   5.589   3.814 -1.3305  0.0494 -1.2606
   99MOL   H24841604   5.194   5.434   3.680  1.4837  1.1725 -0.1118
   99MOL   H24941605   5.153   5.195   3.749 -2.1348 -0.4697  2.7064
   99MOL   H25041606   5.245   5.124   3.979  1.7351 -0.9750 -2.0553
   99MOL   H25141607   5.379   5.281   4.104  0.4569 -0.2196  0.4727
   99MOL   H25241608   5.283   5.569   4.204  0.1553  0.5399 -0.3641
   99MOL   H25341609   5.254   5.509   4.362 -0.0252 -0.7750 -0.9315
   99MOL   C25441610   5.264   5.720   4.358 -0.6788  0.3918  0.2627
   99MOL   O25541611   5.330   5.817   4.281  0.0903  0.3916  0.4504
   99MOL   C25641612   5.389   5.926   4.345 -0.1198  0.3913  0.0080
   99MOL   O25741613   5.524   5.910   4.380  0.3637  0.4083 -0.2294
   99MOL   C25841614   5.619   5.896   4.281  0.5189 -0.0254 -1.4407
   99MOL   C25941615   5.749   5.940   4.321  0.4859 -0.2790 -0.6858
   99MOL   C26041616   5.853   5.945   4.228  0.1101 -0.0309 -0.5123
   99MOL   C26141617   5.838   5.900   4.094  0.6815 -1.0311  0.4930
   99MOL   C26241618   5.708   5.862   4.052  0.2132  0.2202  0.3341
   99MOL   C26341619   5.602   5.851   4.147  0.1015  0.4040 -0.2971
   99MOL   C26441620   5.116   5.739   4.338  0.0111  0.3014 -0.2337
   99MOL   H26541621   5.288   5.733   4.464 -1.7355  1.0517  0.4354
   99MOL   H26641622   5.335   5.957   4.434  0.2027  0.0368  0.3273
   99MOL   H26741623   5.387   6.007   4.272  1.4705  0.6476  0.2254
   99MOL   H26841624   5.756   5.978   4.421 -0.9569 -0.7111 -0.4084
   99MOL   H26941625   5.949   5.988   4.252  1.2861 -2.4544 -0.7480
   99MOL   H27041626   5.923   5.908   4.026 -0.0312  2.4937 -0.0917
   99MOL   H27141627   5.691   5.819   3.954 -0.7870  2.0376 -0.3272
   99MOL   H27241628   5.501   5.826   4.116 -0.7561 -0.5079  3.0140
   99MOL   H27341629   5.090   5.845   4.338  2.5759  0.9858 -1.4569
   99MOL   H27441630   5.113   5.701   4.236 -0.4905  1.8602 -0.8149
   99MOL   C27541631   5.020   5.672   4.425 -0.5650 -0.2977  0.1583
   99MOL   O27641632   5.016   5.767   4.534 -0.0202  0.2227  0.9452
   99MOL   C27741633   5.021   5.730   4.667 -0.7545  0.8819  0.3696
   99MOL   O27841634   5.144   5.661   4.699 -0.1340 -0.3394 -0.5886
   99MOL   C27941635   5.250   5.742   4.727  0.1979  0.3495 -0.6009
   99MOL   C28041636   5.258   5.880   4.706 -0.3558  0.5923 -0.3262
   99MOL   C28141637   5.369   5.949   4.750  0.9768  0.2535  0.3965
   99MOL   C28241638   5.475   5.882   4.811  0.2065  0.4472 -0.4779
   99MOL   C28341639   5.480   5.737   4.809  0.3372 -0.9160 -0.2280
   99MOL   C28441640   5.370   5.667   4.765 -0.1137 -0.4614 -0.7562
   99MOL   C28541641   4.871   5.661   4.366 -0.2191 -0.4252 -0.3034
   99MOL   H28641642   5.058   5.577   4.462  1.8959  2.4495  5.3786
   99MOL   H28741643   4.940   5.657   4.667 -0.7212  0.8310 -1.4310
   99MOL   H28841644   4.996   5.814   4.731 -2.4551  0.0237  0.8603
   99MOL   H28941645   5.184   5.930   4.645 -0.8465  2.5757  1.8361
   99MOL   H29041646   5.370   6.057   4.744  0.6803  0.2836  0.7926
   99MOL   H29141647   5.557   5.944   4.844  0.4748 -0.4974  0.6605
   99MOL   H29241648   5.574   5.691   4.836  0.8765 -0.9695 -2.1121
   99MOL   H29341649   5.360   5.561   4.777  0.5060 -0.2837  1.5613
   99MOL   H29441650   4.830   5.758   4.337 -2.3872 -0.9483  0.8825
   99MOL   H29541651   4.794   5.636   4.439 -0.5879  0.3077 -0.4319
   99MOL   C29641652   4.855   5.570   4.250  0.0997  0.5207 -0.0403
   99MOL   O29741653   4.821   5.441   4.304  0.4619 -0.4238  0.7070
   99MOL   C29841654   4.848   5.336   4.216  0.2510 -0.1462 -0.3454
   99MOL   O29941655   4.983   5.307   4.207  0.5986  0.3844 -0.2695
   99MOL   C30041656   5.046   5.259   4.318 -0.1311 -0.5434 -0.2421
   99MOL   C30141657   5.178   5.209   4.299 -0.9381 -0.4533 -0.4421
   99MOL   C30241658   5.262   5.166   4.403  0.3863 -0.3801 -0.4131
   99MOL   C30341659   5.219   5.185   4.536 -0.8000 -0.6090 -0.7333
   99MOL   C30441660   5.083   5.227   4.556 -0.2512  0.2782 -0.3708
   99MOL   C30541661   4.998   5.255   4.449  0.9331 -0.0642 -1.0295
   99MOL   C30641662   4.752   5.622   4.142  0.0529 -0.2977  0.2824
   99MOL   H30741663   4.947   5.543   4.199  0.4143  0.4464  0.5685
   99MOL   H30841664   4.804   5.356   4.119  1.6198 -1.1188 -1.1891
   99MOL   H30941665   4.800   5.245   4.250  0.8604 -0.2465  0.2630
   99MOL   H31041666   5.210   5.206   4.196 -1.4229  0.4511 -0.6195
   99MOL   H31141667   5.363   5.136   4.380  0.7656 -0.1858  0.9317
   99MOL   H31241668   5.289   5.169   4.617  0.7305 -1.9469 -2.2757
   99MOL   H31341669   5.052   5.224   4.659  0.6000 -0.3566 -0.1246
   99MOL   H31441670   4.894   5.277   4.470  0.6374 -1.3391 -1.1452
   99MOL   H31541671   4.745   5.731   4.148 -0.1983 -0.1446 -2.0975
   99MOL   H31641672   4.657   5.586   4.180  1.0601 -1.4593  1.7562
   99MOL   C31741673   4.776   5.596   3.992 -0.3873 -0.3821 -0.1453
   99MOL   O31841674   4.876   5.690   3.955  0.0642  0.0773  0.2091
   99MOL   C31941675   4.988   5.644   3.880 -0.5909  0.1163  0.1150
   99MOL   O32041676   4.968   5.605   3.748  0.5958  0.1462 -0.4328
   99MOL   C32141677   4.962   5.705   3.653 -0.0742  0.0048 -0.2928
   99MOL   C32241678   4.915   5.839   3.677  0.1426 -0.2234  0.0134
   99MOL   C32341679   4.907   5.925   3.564  0.4009  0.1351  0.5425
   99MOL   C32441680   4.938   5.878   3.434 -0.4052 -0.1202  0.0281
   99MOL   C32541681   4.986   5.747   3.419  0.5569 -0.5479  0.1773
   99MOL   C32641682   5.000   5.661   3.523 -0.6196 -0.6120  0.5477
   99MOL   C32741683   4.652   5.613   3.901 -0.0594  0.6785 -0.4205
   99MOL   H32841684   4.816   5.496   3.980  0.8171 -0.1242  1.5933
   99MOL   H32941685   5.014   5.549   3.927 -3.6661 -2.2415 -2.6364
   99MOL   H33041686   5.059   5.727   3.878  1.2435 -1.4188 -0.4101
   99MOL   H33141687   4.893   5.867   3.778 -0.1571  0.0886 -0.1384
   99MOL   H33241688   4.887   6.025   3.600  0.6156 -0.4853  2.4805
   99MOL   H33341689   4.942   5.948   3.352  1.4950  0.8583  0.9232
   99MOL   H33441690   5.017   5.706   3.324  2.7972  1.5501 -0.0342
   99MOL   H33541691   5.041   5.563   3.506  0.0337  0.1184 -2.4234
   99MOL   H33641692   4.609   5.703   3.945 -3.3877 -0.3864 -1.4249
   99MOL   H33741693   4.690   5.637   3.802  0.6908  0.2521 -0.2412
   99MOL   C33841694   4.546   5.500   3.904 -0.4811 -0.1456 -0.0727
   99MOL   O33941695   4.462   5.512   4.015 -0.2865 -0.2035  0.0282
   99MOL   C34041696   4.414   5.395   4.068  0.1270  0.0900 -0.2508
   99MOL   O34141697   4.471   5.377   4.196  0.1004  0.2106 -0.4338
   99MOL   C34241698   4.455   5.260   4.260  0.8363 -0.0094  0.7995
   99MOL   C34341699   4.518   5.251   4.381 -0.8053 -0.7887 -0.3506
   99MOL   C34441700   4.523   5.131   4.455  0.4738  0.1789  1.0050
   99MOL   C34541701   4.446   5.020   4.411 -0.4094  0.8109  0.0341
   99MOL   C34641702   4.368   5.029   4.292 -0.5764 -0.2457  0.1287
   99MOL   C34741703   4.372   5.149   4.219 -0.2979  0.1557 -0.1382
   99MOL   C34841704   4.453   5.518   3.783 -0.0653 -0.0600 -0.1525
   99MOL   H34941705   4.603   5.407   3.899  0.4774  0.3799  0.7642
   99MOL   H35041706   4.424   5.306   4.007 -1.3756  0.3320 -0.8670
   99MOL   H35141707   4.308   5.414   4.083 -0.1074 -2.3565  1.4189
   99MOL   H35241708   4.566   5.339   4.422 -1.6042  0.5298 -2.1682
   99MOL   H35341709   4.582   5.126   4.544  0.1530 -1.4344  1.1425
   99MOL   H35441710   4.435   4.926   4.463  0.2679  0.3372 -0.6700
   99MOL   H35541711   4.308   4.945   4.262  0.4842 -0.7863 -0.5094
   99MOL   H35641712   4.328   5.148   4.120 -2.4238 -1.1915  0.8043
   99MOL   H35741713   4.498   5.577   3.703  2.1363 -0.6423  0.6232
   99MOL   H35841714   4.384   5.599   3.809 -0.5114 -0.1260 -1.0907
   99MOL   C35941715   4.380   5.395   3.723 -0.1632 -0.3492  0.1226
   99MOL   O36041716   4.485   5.295   3.684 -0.2987  0.8383  0.1881
   99MOL   C36141717   4.439   5.166   3.696  0.4103 -0.2242  0.6734
   99MOL   O36241718   4.443   5.113   3.824  0.2420  0.0455  0.1357
   99MOL   C36341719   4.562   5.093   3.888  0.1887 -0.6099 -0.0735
   99MOL   C36441720   4.686   5.150   3.843  0.0795  0.1679  0.2206
   99MOL   C36541721   4.806   5.107   3.906 -0.5118  0.2478 -0.3717
   99MOL   C36641722   4.803   5.008   4.009 -0.0952 -0.0710  0.5687
   99MOL   C36741723   4.680   4.963   4.063 -0.8528 -0.1439 -0.6800
   99MOL   C36841724   4.561   5.001   3.996 -0.3104  0.4848  0.8802
   99MOL   C36941725   4.303   5.438   3.592  0.0835  0.3837 -0.1123
   99MOL   H37041726   4.307   5.359   3.795 -0.3486  2.0617  1.2024
   99MOL   H37141727   4.500   5.111   3.625 -0.6715 -0.0024 -0.4340
   99MOL   H37241728   4.333   5.159   3.671  0.9544 -1.1645 -1.4857
   99MOL   H37341729   4.696   5.220   3.762  2.0714 -1.0803 -0.6559
   99MOL   H37441730   4.903   5.151   3.884 -0.1499  0.2300  1.1113
   99MOL   H37541731   4.894   4.968   4.051 -1.0225 -1.0628  1.6465
   99MOL   H37641732   4.675   4.887   4.140 -1.8728  0.5990  0.0009
   99MOL   H37741733   4.469   4.947   4.014  0.3895 -0.4156  1.8498
   99MOL   H37841734   4.274   5.346   3.541  0.8259  0.1494 -0.1127
   99MOL   H37941735   4.371   5.494   3.528 -0.7017  2.1769  0.5914
   99MOL   C38041736   4.180   5.533   3.614 -0.3909  0.5339  0.3971
   99MOL   O38141737   4.088   5.487   3.716  0.1014  0.0779 -0.2030
   99MOL   C38241738   4.070   5.578   3.818  0.3827 -1.2098 -0.3193
   99MOL   O38341739   3.983   5.521   3.903 -0.4605 -0.6560 -0.4814
   99MOL   C38441740   3.951   5.587   4.020 -0.2578 -0.8368 -0.5541
   99MOL   C38541741   3.987   5.726   4.045  0.2685  0.2629  0.1534
   99MOL   C38641742   3.964   5.782   4.172  0.5484  0.1894  0.1447
   99MOL   C38741743   3.884   5.713   4.264 -0.0813 -0.3593 -0.0026
   99MOL   C38841744   3.835   5.581   4.240 -0.6835 -0.1677  0.1942
   99MOL   C38941745   3.873   5.516   4.117  0.3133 -0.2648 -0.1098
   99MOL   C39041746   4.104   5.557   3.481 -0.0502 -0.1759 -0.0239
   99MOL   H39141747   4.221   5.631   3.640 -1.0726  1.2563 -1.1938
   99MOL   H39241748   4.157   5.610   3.876  1.0142  0.6783 -2.2204
   99MOL   H39341749   4.032   5.671   3.776  1.6246 -0.8098 -0.5733
   99MOL   H39441750   4.044   5.778   3.969  1.7139  1.2504  1.8799
   99MOL   H39541751   3.994   5.885   4.181 -1.4526  0.7395  0.9225
   99MOL   H39641752   3.857   5.761   4.358 -0.2111  2.3377 -1.3783
   99MOL   H39741753   3.779   5.526   4.314  1.6946  0.1836  2.3130
   99MOL   H39841754   3.851   5.414   4.090  0.1885 -0.2595 -0.0264
   99MOL   H39941755   4.046   5.471   3.449  0.6221 -1.0440  1.1015
   99MOL   H40041756   4.179   5.575   3.403 -0.4769  3.0457  0.2419
   99MOL   C40141757   4.013   5.677   3.486 -0.1260 -0.1920  0.0722
   99MOL   O40241758   4.079   5.793   3.534  0.2147 -0.6674 -0.0601
   99MOL   C40341759   3.992   5.894   3.580  0.1909 -0.0236  0.1146
   99MOL   O40441760   3.928   5.854   3.698 -0.7996  0.0296 -0.5014
   99MOL   C40541761   3.855   5.954   3.764 -0.3460  0.4284  0.3964
   99MOL   C40641762   3.777   5.908   3.876  0.5102  0.0792  0.3606
   99MOL   C40741763   3.696   5.998   3.944  0.4639  0.3410 -0.0139
   99MOL   C40841764   3.683   6.133   3.901 -0.5269 -0.9541 -0.0922
   99MOL   C40941765   3.753   6.174   3.787 -0.0048  0.0026 -0.8407
   99MOL   C41041766   3.834   6.088   3.716 -0.3294 -0.2469 -0.9376
   99MOL   C41141767   3.953   5.703   3.346 -0.9090  0.0127  0.1734
   99MOL   H41241768   3.928   5.657   3.551 -1.7993  2.3037 -1.2974
   99MOL   H41341769   3.925   5.931   3.503 -0.5447  1.0052  1.2177
   99MOL   H41441770   4.055   5.981   3.604  1.7893 -0.7884 -1.2202
   99MOL   H41541771   3.784   5.807   3.914  0.8731 -0.4589 -1.1145
   99MOL   H41641772   3.646   5.975   4.037 -0.4455 -0.8810 -0.7919
   99MOL   H41741773   3.621   6.204   3.954  1.8343  1.5438 -0.5824
   99MOL   H41841774   3.764   6.279   3.763  0.8230 -0.5214 -2.9034
   99MOL   H41941775   3.886   6.126   3.630  1.7217 -1.4572 -0.2690
   99MOL   H42041776   4.033   5.722   3.275  0.7732 -1.6841  1.5540
   99MOL   H42141777   3.906   5.801   3.336  1.0461  0.8022 -1.7266
   99MOL   H42241778   3.898   5.617   3.307  1.2234 -0.8781 -0.9249
  100MOL     C141779   2.940   3.628   0.356 -0.0879 -0.7222  0.4378
  100MOL     O241780   3.048   3.701   0.306 -0.1874 -0.1806 -0.3801
  100MOL     C341781   3.121   3.619   0.211  0.0091 -0.0670  0.1258
  100MOL     O441782   3.133   3.490   0.241 -0.5371  0.2716 -0.3745
  100MOL     C541783   3.212   3.455   0.347  0.4814 -0.4416 -0.2643
  100MOL     C641784   3.290   3.541   0.430 -0.2600  0.1334 -0.5930
  100MOL     C741785   3.370   3.485   0.528 -0.6012 -0.2116 -0.8293
  100MOL     C841786   3.361   3.347   0.562 -0.3243 -0.4073 -0.1210
  100MOL     C941787   3.275   3.266   0.486 -0.4572 -0.5532 -0.4483
  100MOL    C1041788   3.196   3.322   0.386 -0.2886 -0.5220 -0.6863
  100MOL    C1141789   2.828   3.727   0.408  0.2311 -0.8166 -0.4405
  100MOL    H1241790   2.890   3.564   0.283  1.1345 -1.9043  0.6174
  100MOL    H1341791   3.062   3.624   0.120  0.6570  2.4109 -0.2145
  100MOL    H1441792   3.214   3.674   0.195 -0.3666  0.2140 -1.1395
  100MOL    H1541793   3.307   3.645   0.405  1.7726 -0.0930 -0.2079
  100MOL    H1641794   3.443   3.551   0.574 -0.6472 -1.5650  1.2578
  100MOL    H1741795   3.424   3.306   0.639 -0.9149  0.5611  0.8920
  100MOL    H1841796   3.273   3.160   0.506 -0.0397 -0.5067 -0.1612
  100MOL    H1941797   3.124   3.261   0.333  0.0237 -0.6667 -0.9437
  100MOL    H2041798   2.882   3.773   0.491 -0.8533 -0.3807  0.0333
  100MOL    H2141799   2.742   3.679   0.455 -0.2224  1.1945  0.8342
  100MOL    H2241800   2.975   3.572   0.443  0.9718  0.7417  0.9748
  100MOL    C2341801   2.794   3.838   0.305 -0.4002 -0.1766 -0.3876
  100MOL    O2441802   2.742   3.944   0.376  0.5859 -0.5978  0.3849
  100MOL    C2541803   2.825   4.052   0.398 -0.4797  0.4718 -0.2625
  100MOL    O2641804   2.862   4.103   0.279  0.1080 -0.5080 -0.3279
  100MOL    C2741805   2.782   4.191   0.221 -0.8630  0.0499 -0.2291
  100MOL    C2841806   2.834   4.250   0.100 -0.3471  0.2727 -0.4529
  100MOL    C2941807   2.756   4.337   0.020  0.3735 -0.1108 -0.5110
  100MOL    C3041808   2.630   4.371   0.071 -0.8894 -0.2567  0.0348
  100MOL    C3141809   2.577   4.322   0.189 -0.2808 -0.3628 -0.0956
  100MOL    C3241810   2.654   4.232   0.266 -0.2214  0.2290  0.4928
  100MOL    C3341811   2.690   3.794   0.203  0.0937  0.8762  0.2016
  100MOL    H3441812   2.891   3.864   0.262 -0.7304  2.4061  0.3450
  100MOL    H3541813   2.916   4.005   0.436 -0.4474  0.5071 -0.2954
  100MOL    H3641814   2.785   4.125   0.469 -1.2439 -0.3247  0.1346
  100MOL    H3741815   2.928   4.217   0.060 -0.1548  2.6837 -2.1308
  100MOL    H3841816   2.798   4.381   7.906 -0.1926  0.1096 -0.6693
  100MOL    H3941817   2.566   4.436   0.012 -0.5863  1.3875  1.4765
  100MOL    H4041818   2.479   4.349   0.226 -0.0305 -2.0017  1.8542
  100MOL    H4141819   2.606   4.198   0.356  0.4162  0.1147  0.7923
  100MOL    H4241820   2.595   3.777   0.254 -1.0707 -0.7001 -2.3658
  100MOL    H4341821   2.717   3.692   0.174 -0.2368  0.6269  0.7655
  100MOL    C4441822   2.665   3.892   0.084  0.2958  0.0149  0.2616
  100MOL    O4541823   2.553   3.853   0.011 -0.0191  1.0329  0.4383
  100MOL    C4641824   2.428   3.865   0.073  0.6869  0.2426  0.5807
  100MOL    O4741825   2.398   3.992   0.123 -0.2739  0.1860  0.7009
  100MOL    C4841826   2.262   4.014   0.152  0.1929  0.4011  0.4250
  100MOL    C4941827   2.158   3.912   0.152  0.1779 -0.2447 -0.1052
  100MOL    C5041828   2.026   3.941   0.189 -0.0936 -0.1987  0.0830
  100MOL    C5141829   1.993   4.075   0.215  0.7381  0.4881 -0.2894
  100MOL    C5241830   2.083   4.183   0.207 -0.1824 -0.0871  0.0143
  100MOL    C5341831   2.217   4.146   0.174  0.0775 -0.8503 -0.0319
  100MOL    C5441832   2.784   3.872   7.954  0.8827 -0.5183 -0.4004
  100MOL    H5541833   2.656   3.990   0.129 -2.0948  1.9499 -4.1106
  100MOL    H5641834   2.401   3.781   0.137 -1.3036  1.9038  1.9714
  100MOL    H5741835   2.367   3.857   7.959  0.8939 -2.0141  0.6055
  100MOL    H5841836   2.184   3.809   0.134  2.2480 -0.1400  2.0397
  100MOL    H5941837   1.956   3.861   0.204 -1.8169  1.0186 -1.2037
  100MOL    H6041838   1.888   4.085   0.236  0.4706 -0.4370 -1.1507
  100MOL    H6141839   2.051   4.284   0.225  0.3383  0.1784 -0.5415
  100MOL    H6241840   2.286   4.228   0.163 -2.0466  1.4693  3.0947
  100MOL    H6341841   2.884   3.868   0.023  0.7258  0.8132  0.0819
  100MOL    H6441842   2.767   3.775   7.907 -1.6261 -0.3192  0.0047
  100MOL    C6541843   2.775   3.969   7.838 -0.3438  0.3115 -0.1286
  100MOL    O6641844   2.899   3.956   7.772  0.1615 -0.1558 -0.3636
  100MOL    C6741845   2.955   4.078   7.736  0.1543  0.9396  0.4672
  100MOL    O6841846   2.895   4.149   7.635  0.2406  0.6839 -0.1046
  100MOL    C6941847   2.902   4.094   7.507  0.0288 -0.2031 -0.1003
  100MOL    C7041848   2.961   3.976   7.482  0.1989 -0.2838  0.5619
  100MOL    C7141849   2.958   3.914   7.354  0.2360 -0.1676  0.4564
  100MOL    C7241850   2.882   3.978   7.254 -0.3770  0.3801  0.1778
  100MOL    C7341851   2.822   4.108   7.274  0.4697  0.5568  0.1740
  100MOL    C7441852   2.830   4.162   7.403  1.2745  0.0183 -0.7039
  100MOL    C7541853   2.671   3.931   7.722 -0.2386  0.0764  0.0782
  100MOL    H7641854   2.756   4.065   7.886  3.2307  1.0159  0.0209
  100MOL    H7741855   3.062   4.078   7.715 -0.4274 -2.3341 -3.2143
  100MOL    H7841856   2.948   4.137   7.827  0.3382  1.8677 -0.1132
  100MOL    H7941857   3.022   3.926   7.556 -0.3414 -2.5791 -0.4901
  100MOL    H8041858   3.009   3.822   7.330  3.3990  1.5175  0.5032
  100MOL    H8141859   2.865   3.930   7.159  2.9120  0.0220 -0.2935
  100MOL    H8241860   2.776   4.170   7.198  0.6570  0.2516 -0.1928
  100MOL    H8341861   2.794   4.261   7.424  2.1817  0.0836  0.5803
  100MOL    H8441862   2.720   3.877   7.641 -0.5693  0.5302 -0.4272
  100MOL    H8541863   2.599   3.856   7.755 -0.7334 -0.0976 -1.3467
  100MOL    C8641864   2.582   4.043   7.662 -0.1251  0.3332 -0.5956
  100MOL    O8741865   2.488   3.993   7.571 -0.0691  0.2176 -0.4818
  100MOL    C8841866   2.529   3.989   7.438  0.3775 -0.6188  0.0643
  100MOL    O8941867   2.432   3.954   7.345 -0.9170  0.4251  0.4144
  100MOL    C9041868   2.462   3.904   7.216  0.4238 -0.0758 -0.1233
  100MOL    C9141869   2.572   3.822   7.190 -0.2312  0.1877  0.2461
  100MOL    C9241870   2.591   3.772   7.054  0.7628 -0.1149  0.3206
  100MOL    C9341871   2.506   3.806   6.951 -0.1148 -0.0486 -0.6013
  100MOL    C9441872   2.395   3.882   6.982  0.1304 -1.1515 -0.0181
  100MOL    C9541873   2.368   3.932   7.109 -0.1164  0.0880  0.1605
  100MOL    C9641874   2.494   4.119   7.767 -0.6112  0.0507 -0.1660
  100MOL    H9741875   2.656   4.115   7.625 -2.2769  1.4864 -2.7988
  100MOL    H9841876   2.613   3.919   7.435  0.1145 -0.8641 -2.7929
  100MOL    H9941877   2.564   4.088   7.410 -0.7680  0.0717  1.0258
  100MOL   H10041878   2.647   3.798   7.264 -0.9897  0.6449  1.1798
  100MOL   H10141879   2.690   3.735   7.030  1.2813  0.8616  0.9029
  100MOL   H10241880   2.517   3.778   6.848  1.0957  0.4949 -0.6205
  100MOL   H10341881   2.326   3.913   6.905  1.4116 -0.2761 -0.8342
  100MOL   H10441882   2.280   3.989   7.133 -1.7961 -1.8635 -1.2335
  100MOL   H10541883   2.424   4.040   7.796  0.0003 -0.5407 -0.2880
  100MOL   H10641884   2.548   4.143   7.859  3.3687  1.2802 -2.6850
  100MOL   C10741885   2.432   4.256   7.714 -0.6185  0.2608 -0.7029
  100MOL   O10841886   2.363   4.332   7.817  0.7468 -0.1579  0.4102
  100MOL   C10941887   2.238   4.285   7.846  0.2238 -0.0074  0.2046
  100MOL   O11041888   2.144   4.320   7.748 -0.0294 -0.0954 -0.3769
  100MOL   C11141889   2.005   4.284   7.764 -0.3918 -0.8117 -0.1699
  100MOL   C11241890   1.917   4.335   7.669  0.1850 -0.7229  0.2459
  100MOL   C11341891   1.780   4.287   7.663 -0.6685 -0.3624 -0.1116
  100MOL   C11441892   1.735   4.197   7.754  0.6965 -0.6338 -0.1820
  100MOL   C11541893   1.822   4.131   7.842  0.3011  0.0408  0.3341
  100MOL   C11641894   1.953   4.175   7.842 -0.4409  0.4664  0.4084
  100MOL   C11741895   2.551   4.342   7.666  0.4351  0.1938 -0.0956
  100MOL   H11841896   2.368   4.245   7.627 -1.7062  0.3195  0.0911
  100MOL   H11941897   2.238   4.339   7.941  1.2637 -1.4118  1.0164
  100MOL   H12041898   2.241   4.180   7.874  1.5451 -0.5214 -1.7798
  100MOL   H12141899   1.960   4.407   7.601  1.2223 -2.9147 -1.4789
  100MOL   H12241900   1.718   4.323   7.582  0.1403  0.0904 -0.5381
  100MOL   H12341901   1.629   4.175   7.754  0.5328  0.1227 -1.3262
  100MOL   H12441902   1.792   4.051   7.907  2.3869  1.6556  3.4029
  100MOL   H12541903   2.016   4.122   7.912 -0.1842  1.0038  0.5960
  100MOL   H12641904   2.569   4.299   7.567 -0.3649  1.1662 -0.6724
  100MOL   H12741905   2.633   4.318   7.734 -0.3367  1.9666  1.4869
  100MOL   C12841906   2.532   4.493   7.642 -0.7364  0.0796  0.1224
  100MOL   O12941907   2.482   4.533   7.520 -0.2541  0.1858  0.4527
  100MOL   C13041908   2.341   4.539   7.517 -0.2891 -0.8716  0.2998
  100MOL   O13141909   2.295   4.569   7.388  0.1627  0.9084 -0.1371
  100MOL   C13241910   2.294   4.469   7.291  0.6878 -0.4572 -0.3697
  100MOL   C13341911   2.239   4.502   7.165 -0.2986 -1.0147 -0.0457
  100MOL   C13441912   2.239   4.402   7.062  0.1601  0.2838 -0.0678
  100MOL   C13541913   2.307   4.280   7.078  0.9820 -0.7849  0.0398
  100MOL   C13641914   2.362   4.252   7.204 -0.0623  0.4822  0.2308
  100MOL   C13741915   2.352   4.345   7.315  0.2448 -0.4095  0.5967
  100MOL   C13841916   2.665   4.567   7.672  0.3155 -0.0097  0.1322
  100MOL   H13941917   2.478   4.550   7.718  0.5654  1.5695 -0.0417
  100MOL   H14041918   2.320   4.625   7.581 -2.0633 -0.1019 -1.2727
  100MOL   H14141919   2.291   4.450   7.555 -0.4174 -1.2112 -0.6509
  100MOL   H14241920   2.190   4.596   7.145 -1.7261 -1.0357  3.0581
  100MOL   H14341921   2.193   4.428   6.967  0.8336 -1.4616 -0.8881
  100MOL   H14441922   2.331   4.203   7.006  0.9943 -1.4369  0.7376
  100MOL   H14541923   2.406   4.157   7.230 -1.3110 -0.4143 -0.8390
  100MOL   H14641924   2.404   4.316   7.405  1.9913  0.9886  0.0668
  100MOL   H14741925   2.643   4.672   7.691 -0.5971 -0.2583  0.5248
  100MOL   H14841926   2.700   4.526   7.767  2.9906 -0.7291 -1.1390
  100MOL   C14941927   2.776   4.548   7.561  1.1095 -0.0686  0.1195
  100MOL   O15041928   2.743   4.627   7.447 -0.3233 -1.1586 -0.0378
  100MOL   C15141929   2.720   4.565   7.329 -0.0454 -0.2654  0.0415
  100MOL   O15241930   2.831   4.513   7.270 -0.2789  0.0171  0.6525
  100MOL   C15341931   2.815   4.439   7.158 -0.0695 -0.4617  1.0176
  100MOL   C15441932   2.687   4.395   7.100  0.2273 -0.1804  0.2626
  100MOL   C15541933   2.684   4.317   6.986 -0.1730  0.3273  1.3262
  100MOL   C15641934   2.805   4.271   6.930  0.1667 -0.5428 -0.6357
  100MOL   C15741935   2.928   4.303   6.988 -0.2191 -0.2040  0.5801
  100MOL   C15841936   2.931   4.384   7.097 -0.6296 -0.4585  0.2208
  100MOL   C15941937   2.919   4.576   7.608 -0.2631  0.1552  0.6707
  100MOL   H16041938   2.765   4.446   7.525  1.1736 -0.8394  2.2259
  100MOL   H16141939   2.658   4.477   7.345  0.9704 -0.9524  0.2548
  100MOL   H16241940   2.683   4.637   7.256 -0.3398 -0.2029  0.2551
  100MOL   H16341941   2.594   4.417   7.151  0.4600  0.7531  0.2938
  100MOL   H16441942   2.586   4.299   6.946 -0.4806  0.1191  2.1667
  100MOL   H16541943   2.808   4.206   6.844  0.1508 -1.2042 -0.1421
  100MOL   H16641944   3.018   4.264   6.941 -0.5981  0.0849 -0.3992
  100MOL   H16741945   3.025   4.418   7.138 -1.3790  0.6729  1.0373
  100MOL   H16841946   2.918   4.525   7.704 -1.9491 -1.2295 -0.0620
  100MOL   H16941947   2.938   4.681   7.628 -1.3936  0.4209  0.3821
  100MOL   C17041948   3.041   4.526   7.523 -0.1771  0.7267  0.1214
  100MOL   O17141949   3.122   4.639   7.484 -0.1783 -0.1991  0.2342
  100MOL   C17241950   3.076   4.709   7.368  0.0206  0.2823 -0.1423
  100MOL   O17341951   3.154   4.820   7.334 -0.3480 -0.5865  0.1177
  100MOL   C17441952   3.097   4.922   7.262 -0.0504  0.5073 -0.0713
  100MOL   C17541953   2.962   4.931   7.216  0.1165  0.4368  0.4106
  100MOL   C17641954   2.913   5.047   7.152  0.1265 -0.4211  0.0041
  100MOL   C17741955   3.013   5.144   7.102  0.3784 -0.6650 -0.4445
  100MOL   C17841956   3.147   5.134   7.148 -0.1674 -0.4484  0.0099
  100MOL   C17941957   3.183   5.022   7.222 -0.0916  0.5300  0.6927
  100MOL   C18041958   3.116   4.421   7.608  0.7690  0.0631  0.0715
  100MOL   H18141959   3.000   4.471   7.438  2.1919  0.8648 -1.1714
  100MOL   H18241960   2.981   4.751   7.400  1.4335  0.2665  4.4097
  100MOL   H18341961   3.076   4.641   7.283 -0.9519 -0.8249  0.7372
  100MOL   H18441962   2.886   4.858   7.240  0.8115 -0.6521 -0.6546
  100MOL   H18541963   2.807   5.058   7.131  0.0336 -1.3582 -0.0658
  100MOL   H18641964   2.987   5.230   7.043 -1.7258  0.2236  1.6990
  100MOL   H18741965   3.217   5.210   7.116  1.4161 -1.8777  0.0807
  100MOL   H18841966   3.284   5.020   7.260  0.2205  1.3578 -0.0702
  100MOL   H18941967   3.160   4.475   7.691 -2.0896  0.2302  1.5394
  100MOL   H19041968   3.044   4.353   7.654  0.5080  1.0348  1.1024
  100MOL   C19141969   3.228   4.341   7.530 -0.0868 -0.0310 -0.3900
  100MOL   O19241970   3.154   4.239   7.462 -0.3586 -0.2151  0.2574
  100MOL   C19341971   3.196   4.235   7.332  0.1969 -0.5700 -0.3124
  100MOL   O19441972   3.318   4.172   7.318 -0.0793 -0.1540 -0.3278
  100MOL   C19541973   3.396   4.222   7.219 -0.1342 -0.2989  0.6557
  100MOL   C19641974   3.537   4.248   7.236 -0.6440  0.0191 -0.2526
  100MOL   C19741975   3.612   4.286   7.124 -0.3416  0.1149  0.1746
  100MOL   C19841976   3.547   4.288   6.997  0.7485  1.0919 -0.0484
  100MOL   C19941977   3.411   4.264   6.977 -0.2486 -0.6912  0.2462
  100MOL   C20041978   3.341   4.224   7.093  0.1312  0.1910  1.2664
  100MOL   C20141979   3.330   4.270   7.618 -0.4682  0.2254 -0.2856
  100MOL   H20241980   3.279   4.412   7.465  1.6503 -1.5844 -0.7676
  100MOL   H20341981   3.174   4.327   7.277  2.5652  0.2545  0.0719
  100MOL   H20441982   3.130   4.163   7.284  0.1295 -2.1444  2.0995
  100MOL   H20541983   3.579   4.252   7.335 -0.4410 -0.7877 -0.3039
  100MOL   H20641984   3.718   4.296   7.139  0.0683 -2.9451 -0.1888
  100MOL   H20741985   3.610   4.325   6.917  0.9242  0.8390 -0.0288
  100MOL   H20841986   3.359   4.266   6.882  1.2274 -0.0455 -0.5629
  100MOL   H20941987   3.238   4.194   7.076 -0.0116  1.4590 -0.1676
  100MOL   H21041988   3.276   4.207   7.689  2.7157 -1.3644  0.8682
  100MOL   H21141989   3.370   4.186   7.562  0.8976 -0.2881  1.3880
  100MOL   C21241990   3.434   4.372   7.685  0.4499  0.4814  0.4932
  100MOL   O21341991   3.516   4.292   7.769  0.1585 -0.3801  0.4198
  100MOL   C21441992   3.535   4.323   7.907  0.2443  0.0418 -0.4351
  100MOL   O21541993   3.424   4.306   0.006 -0.0127 -1.0086  0.0788
  100MOL   C21641994   3.374   4.180   0.016  0.0376 -1.2250  0.8873
  100MOL   C21741995   3.422   4.065   7.915 -0.5611 -0.6976 -0.0763
  100MOL   C21841996   3.346   3.947   7.906 -0.2479 -0.5302  0.1589
  100MOL   C21941997   3.227   3.933   7.970 -0.0173 -0.0501 -0.6504
  100MOL   C22041998   3.184   4.041   0.069  0.0482 -0.0190 -0.0928
  100MOL   C22141999   3.251   4.163   0.081 -0.1292 -0.4597  0.0643
  100MOL   C22242000   3.532   4.440   7.593  0.0624 -0.1570  0.6829
  100MOL   H22342001   3.386   4.444   7.751 -1.5727  0.2764 -0.7025
  100MOL   H22442002   3.559   4.429   7.921 -0.8172  0.3622 -0.9923
  100MOL   H22542003   3.611   4.263   7.957  0.6139 -1.4683 -2.7263
  100MOL   H22642004   3.513   4.075   7.858 -1.0401  3.5270 -0.2326
  100MOL   H22742005   3.385   3.870   7.842  0.0951 -1.1599  1.1234
  100MOL   H22842006   3.182   3.834   7.970 -0.9594  0.3591  1.2893
  100MOL   H22942007   3.092   4.026   0.124 -0.0505 -0.5158 -0.3835
  100MOL   H23042008   3.203   4.238   0.142  1.5371 -0.4656  1.4030
  100MOL   H23142009   3.626   4.386   7.584  0.2412  0.2970 -0.3088
  100MOL   H23242010   3.507   4.430   7.487  0.9861 -2.6548  0.6575
  100MOL   C23342011   3.564   4.589   7.621  0.1931  0.3701 -0.3079
  100MOL   O23442012   3.631   4.641   7.509 -0.4765 -0.6463 -0.1703
  100MOL   C23542013   3.770   4.650   7.516 -0.6211 -0.7160 -0.5580
  100MOL   O23642014   3.822   4.526   7.537  0.4766 -0.1858 -0.5118
  100MOL   C23742015   3.954   4.506   7.514 -0.2888 -0.1820 -1.0889
  100MOL   C23842016   4.009   4.385   7.556  0.4559  0.0978 -0.1831
  100MOL   C23942017   4.142   4.358   7.556  0.7953  0.6098  0.3634
  100MOL   C24042018   4.233   4.440   7.496 -0.3952 -0.3713  0.6381
  100MOL   C24142019   4.180   4.562   7.438 -0.0363 -0.1401 -0.0024
  100MOL   C24242020   4.046   4.595   7.457  0.0323  0.4560 -0.3709
  100MOL   C24342021   3.439   4.673   7.636  0.5696 -0.1216 -0.0114
  100MOL   H24442022   3.623   4.599   7.712  2.3612 -0.6937 -1.5488
  100MOL   H24542023   3.801   4.713   7.600 -0.8518 -1.3043 -0.0269
  100MOL   H24642024   3.797   4.681   7.415 -2.1047  0.2653 -0.6704
  100MOL   H24742025   3.943   4.311   7.600 -0.3873  1.1802  0.3845
  100MOL   H24842026   4.176   4.263   7.596  0.6595  0.9040  1.1871
  100MOL   H24942027   4.337   4.412   7.492 -0.2059  0.3180  0.6133
  100MOL   H25042028   4.241   4.642   7.400  0.4180  0.5258  2.0467
  100MOL   H25142029   4.008   4.691   7.425 -0.8069  0.9431  1.9499
  100MOL   H25242030   3.384   4.690   7.543  1.2634  0.3354 -0.3474
  100MOL   H25342031   3.358   4.632   7.696  0.0924  1.5478  0.5065
  100MOL   C25442032   3.479   4.818   7.688 -0.4868  0.4678  0.3601
  100MOL   O25542033   3.375   4.911   7.654 -0.2321 -0.3927  0.1135
  100MOL   C25642034   3.374   4.965   7.525  0.0609  0.6103 -0.5445
  100MOL   O25742035   3.476   5.067   7.504  0.5243  0.5687 -0.0609
  100MOL   C25842036   3.449   5.193   7.554  0.1179  0.2243 -0.7109
  100MOL   C25942037   3.538   5.295   7.521 -0.3901 -0.0928  0.7146
  100MOL   C26042038   3.507   5.426   7.564  0.3799  0.2082  0.4659
  100MOL   C26142039   3.404   5.449   7.658 -0.2008 -0.1703  0.0002
  100MOL   C26242040   3.323   5.342   7.700  0.2070 -0.9155 -0.1695
  100MOL   C26342041   3.345   5.215   7.650  0.1299 -0.8156 -0.0870
  100MOL   C26442042   3.491   4.828   7.841  0.5083  0.5189 -0.0005
  100MOL   H26542043   3.575   4.855   7.654 -1.3837  3.5469  1.0102
  100MOL   H26642044   3.275   5.009   7.512 -0.0452  1.3490  2.3569
  100MOL   H26742045   3.377   4.884   7.452 -0.5311  0.5751 -0.5281
  100MOL   H26842046   3.619   5.283   7.451 -0.9133  0.4810 -0.0037
  100MOL   H26942047   3.562   5.513   7.532 -0.3857 -0.0171 -1.5022
  100MOL   H27042048   3.382   5.545   7.704 -0.4646 -1.0131  1.6664
  100MOL   H27142049   3.263   5.349   7.789 -2.2857 -2.3385 -1.6949
  100MOL   H27242050   3.283   5.135   7.686  0.2165 -0.9695 -0.2767
  100MOL   H27342051   3.393   4.793   7.874  0.9574 -2.3117 -1.5341
  100MOL   H27442052   3.557   4.755   7.889 -1.9711 -1.7044  0.1645
  100MOL   C27542053   3.525   4.971   7.897  0.5679 -0.1901  0.3794
  100MOL   O27642054   3.512   4.989   0.064  0.5217  0.3248 -0.5870
  100MOL   C27742055   3.382   5.017   0.111  0.2563 -1.0954 -0.7440
  100MOL   O27842056   3.345   5.139   0.054  0.4131  0.6883  0.1429
  100MOL   C27942057   3.218   5.186   0.069  0.4572 -0.0018  0.3067
  100MOL   C28042058   3.192   5.326   0.095 -0.1866  0.1939 -0.6495
  100MOL   C28142059   3.064   5.374   0.115 -0.7527  0.4072  0.2448
  100MOL   C28242060   2.956   5.283   0.115  0.2076  0.3354  0.7423
  100MOL   C28342061   2.979   5.155   0.074  0.5030  1.0388  0.1581
  100MOL   C28442062   3.109   5.100   0.057  0.2328 -0.6311 -0.2001
  100MOL   C28542063   3.663   5.021   7.862 -0.5697  1.1289 -0.0376
  100MOL   H28642064   3.459   5.045   7.852  0.9416 -1.4422 -2.3246
  100MOL   H28742065   3.374   5.007   0.220 -1.5958  1.5684 -0.5756
  100MOL   H28842066   3.326   4.934   0.067  0.4590 -0.7999 -1.5561
  100MOL   H28942067   3.275   5.395   0.093  0.5841 -0.7218 -0.7645
  100MOL   H29042068   3.052   5.475   0.151 -1.3719 -0.1932  1.8099
  100MOL   H29142069   2.852   5.308   0.129 -0.5766 -2.3578 -0.0168
  100MOL   H29242070   2.889   5.098   0.055  0.8791  0.2463  0.7222
  100MOL   H29342071   3.124   4.995   0.038  0.7421 -0.5116 -0.4768
  100MOL   H29442072   3.664   5.044   7.755 -1.0171  2.4160  0.2223
  100MOL   H29542073   3.736   4.946   7.892 -0.2864  1.5078  0.2274
  100MOL   C29642074   3.713   5.154   7.924 -0.5285  0.6549 -0.5841
  100MOL   O29742075   3.844   5.159   7.875 -0.4494 -0.5806 -0.5392
  100MOL   C29842076   3.940   5.209   7.953  0.1773 -0.4942 -0.1038
  100MOL   O29942077   3.988   5.114   0.061 -0.8522 -0.1379 -0.0877
  100MOL   C30042078   4.044   5.000   0.006  0.6975 -0.1923 -0.4556
  100MOL   C30142079   4.099   4.912   0.100  0.4186  0.3882  0.0835
  100MOL   C30242080   4.174   4.795   0.069 -0.4163  0.8597 -0.3477
  100MOL   C30342081   4.187   4.765   7.907 -0.4711 -0.1795 -0.2642
  100MOL   C30442082   4.138   4.850   7.810  0.1893  0.9628 -0.2477
  100MOL   C30542083   4.071   4.965   7.845  0.4834 -0.5560 -0.5934
  100MOL   C30642084   3.627   5.273   7.878 -0.3408  0.5311 -0.3919
  100MOL   H30742085   3.717   5.133   0.055  0.6405 -0.4448 -0.8319
  100MOL   H30842086   3.908   5.295   0.036  0.8148  0.2027 -0.7793
  100MOL   H30942087   4.023   5.236   7.889  0.2159 -1.2433 -0.3773
  100MOL   H31042088   4.089   4.951   0.200 -1.7974  1.1561 -0.4246
  100MOL   H31142089   4.210   4.730   0.146 -0.3642  2.9987  1.4897
  100MOL   H31242090   4.248   4.680   7.877 -3.3526 -2.6278  0.5435
  100MOL   H31342091   4.148   4.824   7.706 -0.2462 -1.9889  0.3899
  100MOL   H31442092   4.034   5.027   7.765 -0.7945 -0.0791  0.3475
  100MOL   H31542093   3.520   5.257   7.887 -0.3101  0.8286  0.5253
  100MOL   H31642094   3.637   5.286   7.770 -0.3010  1.1949 -0.3146
  100MOL   C31742095   3.648   5.414   7.941 -0.6398 -0.0931  0.6041
  100MOL   O31842096   3.778   5.467   7.911  0.6212 -0.8063  0.0718
  100MOL   C31942097   3.796   5.522   7.791 -0.2470  0.4543  0.3878
  100MOL   O32042098   3.749   5.651   7.781  0.0241 -0.5257 -0.0311
  100MOL   C32142099   3.811   5.748   7.855  0.0609 -0.2713  0.6122
  100MOL   C32242100   3.732   5.867   7.861 -0.1162  0.0610  0.1207
  100MOL   C32342101   3.795   5.979   7.918 -0.3916  0.2423 -0.2664
  100MOL   C32442102   3.920   5.975   0.005  0.2390 -0.1883  0.2262
  100MOL   C32542103   3.997   5.854   7.975  0.0882 -1.2452 -0.6931
  100MOL   C32642104   3.942   5.740   7.913  0.0474 -0.0738  0.0753
  100MOL   C32742105   3.620   5.413   0.118 -0.0339  0.7383  0.4469
  100MOL   H32842106   3.569   5.477   7.901 -1.8214 -1.1000  1.3241
  100MOL   H32942107   3.746   5.456   7.721  2.3036 -0.0259 -1.0395
  100MOL   H33042108   3.902   5.527   7.768 -0.0818 -1.4046  0.6522
  100MOL   H33142109   3.631   5.881   7.826 -0.3824  0.9690  1.2286
  100MOL   H33242110   3.739   6.072   7.918  1.6552  1.5529  2.3798
  100MOL   H33342111   3.963   6.064   0.048  0.1915 -0.1687  0.2337
  100MOL   H33442112   4.091   5.835   0.049  1.2751 -1.5903 -3.0302
  100MOL   H33542113   4.002   5.651   7.919 -0.0044 -0.0743  0.6605
  100MOL   H33642114   3.526   5.367   0.150  0.5802 -0.7512  0.1767
  100MOL   H33742115   3.691   5.334   0.143 -0.3469  0.2425 -0.2116
  100MOL   C33842116   3.652   5.546   0.184 -0.0707 -0.1685 -0.1752
  100MOL   O33942117   3.528   5.598   0.235 -0.3461  0.1069 -0.3921
  100MOL   C34042118   3.469   5.700   0.162  0.3533 -0.4637 -0.0245
  100MOL   O34142119   3.385   5.644   0.064  0.0339 -0.2185 -0.3989
  100MOL   C34242120   3.323   5.729   7.953  0.6637 -0.1813  0.6280
  100MOL   C34342121   3.233   5.676   7.857  0.3034 -0.7694 -0.4130
  100MOL   C34442122   3.179   5.757   7.756 -0.4831 -1.1357 -0.6372
  100MOL   C34542123   3.191   5.901   7.762 -0.3189  0.5394  0.3443
  100MOL   C34642124   3.282   5.956   7.853  0.2825  0.5852 -0.8263
  100MOL   C34742125   3.346   5.872   7.951 -0.0023 -0.0242  0.0253
  100MOL   C34842126   3.759   5.528   0.290  0.1709  0.3594  0.0149
  100MOL   H34942127   3.700   5.615   0.115  2.4003 -0.9219  0.7382
  100MOL   H35042128   3.547   5.764   0.119 -2.6039  1.4933 -2.7552
  100MOL   H35142129   3.414   5.752   0.240  0.9503  0.5266 -0.2511
  100MOL   H35242130   3.216   5.570   7.862  1.8933 -0.9875  0.8993
  100MOL   H35342131   3.108   5.714   7.688 -0.2517  0.4724 -1.9182
  100MOL   H35442132   3.144   5.971   7.695  0.7272  1.8330  0.9536
  100MOL   H35542133   3.286   6.063   7.864  0.9140  0.6399 -1.5501
  100MOL   H35642134   3.407   5.924   0.048 -0.0552  0.0882 -0.0102
  100MOL   H35742135   3.851   5.495   0.242  0.6548  0.4813  0.8453
  100MOL   H35842136   3.728   5.453   0.363 -1.1143  0.4256 -0.4495
  100MOL   C35942137   3.793   5.651   0.376  0.9268  0.7777 -0.3809
  100MOL   O36042138   3.683   5.696   0.451 -0.6044  0.0231 -0.8013
  100MOL   C36142139   3.629   5.608   0.544 -0.5899 -0.2988 -0.7649
  100MOL   O36242140   3.722   5.569   0.638 -0.0045 -0.0349 -0.6063
  100MOL   C36342141   3.787   5.659   0.724  0.3233  0.1855  0.4101
  100MOL   C36442142   3.874   5.598   0.815  0.3096 -0.1793 -0.8481
  100MOL   C36542143   3.937   5.679   0.918 -0.2081  0.2160  0.1737
  100MOL   C36642144   3.924   5.819   0.914 -0.1806 -0.1674  0.2647
  100MOL   C36742145   3.839   5.879   0.822  0.2921 -0.5123  0.5444
  100MOL   C36842146   3.764   5.800   0.730  0.2714  0.5998  0.0412
  100MOL   C36942147   3.854   5.776   0.299 -0.3438 -0.3756  0.0875
  100MOL   H37042148   3.869   5.623   0.449 -0.5594  0.7242  1.1532
  100MOL   H37142149   3.590   5.518   0.495 -2.5709  0.0024  0.1857
  100MOL   H37242150   3.555   5.660   0.605  0.2460 -1.2975  1.1569
  100MOL   H37342151   3.885   5.493   0.797  1.6945 -0.0831 -0.6197
  100MOL   H37442152   4.002   5.631   0.990  0.0933  1.6978  0.8976
  100MOL   H37542153   3.980   5.885   0.978  1.2335 -0.0547 -1.0567
  100MOL   H37642154   3.814   5.983   0.832  0.1680 -0.5528  0.6455
  100MOL   H37742155   3.695   5.841   0.658 -0.4267 -0.5335  0.0535
  100MOL   H37842156   3.789   5.812   0.220  0.2612 -1.1480 -0.7663
  100MOL   H37942157   3.935   5.727   0.246 -1.1770 -1.0641 -0.5638
  100MOL   C38042158   3.913   5.882   0.395 -0.1054 -0.5521  0.1079
  100MOL   O38142159   3.859   6.009   0.350  0.2382 -0.2472 -0.5306
  100MOL   C38242160   3.725   6.033   0.395 -0.2133  0.5996  0.0567
  100MOL   O38342161   3.632   5.973   0.313 -0.1568 -0.1521 -0.1014
  100MOL   C38442162   3.541   6.050   0.256  0.4625 -1.1303 -0.0516
  100MOL   C38542163   3.576   6.159   0.175  0.0545 -1.0179  0.3421
  100MOL   C38642164   3.477   6.241   0.117  0.3127  0.9205 -0.0921
  100MOL   C38742165   3.343   6.222   0.149 -0.5528  0.0115  0.6861
  100MOL   C38842166   3.306   6.111   0.224 -0.5498  0.1739  0.8064
  100MOL   C38942167   3.408   6.031   0.281  0.9021  0.0473 -0.0609
  100MOL   C39042168   4.070   5.908   0.392 -0.0301  0.3013 -0.4067
  100MOL   H39142169   3.890   5.859   0.499 -2.1339 -1.3770 -0.4898
  100MOL   H39242170   3.701   5.996   0.495 -0.8024 -0.8610 -0.6185
  100MOL   H39342171   3.714   6.142   0.387  1.3301  0.5260 -3.6062
  100MOL   H39442172   3.679   6.176   0.148  0.1313  0.3562  1.4546
  100MOL   H39542173   3.505   6.332   0.065 -0.5438  1.0324 -0.3599
  100MOL   H39642174   3.265   6.288   0.116  0.2383  0.5697 -0.0941
  100MOL   H39742175   3.204   6.101   0.258 -1.1587  0.9976 -0.7245
  100MOL   H39842176   3.368   5.956   0.347 -2.5657  0.4498 -1.5442
  100MOL   H39942177   4.097   5.989   0.459  1.9813 -0.0605 -0.7522
  100MOL   H40042178   4.082   5.937   0.287  0.3555  0.4484 -0.3222
  100MOL   C40142179   4.141   5.780   0.429  0.0434 -0.0387 -0.4450
  100MOL   O40242180   4.281   5.784   0.418  0.4046 -0.3713  0.4759
  100MOL   C40342181   4.334   5.792   0.284 -0.5608  0.2756  0.5411
  100MOL   O40442182   4.305   5.689   0.195 -0.7136 -0.0385 -0.5920
  100MOL   C40542183   4.309   5.560   0.233 -1.2817 -0.1303 -0.7322
  100MOL   C40642184   4.247   5.470   0.150  0.1427  0.1705  0.7131
  100MOL   C40742185   4.238   5.339   0.187  0.4653  0.5368 -0.0900
  100MOL   C40842186   4.303   5.290   0.305 -0.9889  0.4935 -0.3412
  100MOL   C40942187   4.369   5.377   0.390 -0.2032 -0.2872  0.2524
  100MOL   C41042188   4.369   5.509   0.354  0.5810 -0.0443 -0.4106
  100MOL   C41142189   4.117   5.736   0.576 -0.2780  0.2300 -0.0062
  100MOL   H41242190   4.118   5.693   0.368  3.5410 -0.1340 -1.7476
  100MOL   H41342191   4.443   5.789   0.284 -0.4826 -0.7280 -3.8668
  100MOL   H41442192   4.302   5.884   0.235  0.1001 -0.2957 -0.9866
  100MOL   H41542193   4.197   5.515   0.065 -1.2269  2.2626  2.5688
  100MOL   H41642194   4.193   5.271   0.116  0.1753  0.8603 -0.2149
  100MOL   H41742195   4.300   5.182   0.309  1.7409  0.3490 -1.1701
  100MOL   H41842196   4.423   5.356   0.481 -0.7454 -0.8637  0.4427
  100MOL   H41942197   4.415   5.584   0.417  2.3660 -1.4188 -0.0340
  100MOL   H42042198   4.095   5.817   0.645 -1.5324  0.3804 -0.5741
  100MOL   H42142199   4.206   5.683   0.612 -0.3522  1.0004  1.3409
  100MOL   H42242200   4.033   5.667   0.586  1.5715 -2.0208  0.6808
  101MOL     C142201   5.370   7.138   7.928  0.2791  0.3478 -0.6375
  101MOL     O242202   5.324   7.002   7.948  0.4118  0.1000  0.2534
  101MOL     C342203   5.187   6.994   7.943 -0.1948  0.0973  0.2762
  101MOL     O442204   5.157   6.864   7.953  0.6964  0.0541 -0.0917
  101MOL     C542205   5.026   6.824   7.936 -0.5386 -0.1435 -0.1462
  101MOL     C642206   4.911   6.907   7.946  0.3388  0.3431 -0.5452
  101MOL     C742207   4.786   6.851   7.925 -0.0688  0.5654  0.3113
  101MOL     C842208   4.767   6.716   7.889 -0.1328  0.7310 -0.0414
  101MOL     C942209   4.881   6.630   7.891  0.4299  0.2435  0.1321
  101MOL    C1042210   5.011   6.682   7.918  0.4248 -0.3942  0.1364
  101MOL    C1142211   5.525   7.115   7.929 -0.0039 -0.9977  0.0438
  101MOL    H1242212   5.331   7.195   7.844  1.0900  0.1697 -1.1312
  101MOL    H1342213   5.141   7.053   0.047  0.0964  2.7060 -1.4602
  101MOL    H1442214   5.145   7.035   7.852  0.8900  1.2392  0.2791
  101MOL    H1542215   4.925   7.014   7.937 -1.2998  0.9440  3.4763
  101MOL    H1642216   4.702   6.918   7.918 -0.3694  0.2011  0.3786
  101MOL    H1742217   4.672   6.671   7.863 -0.1302 -0.4742  1.8965
  101MOL    H1842218   4.872   6.528   7.858 -2.0404  0.0697  1.2126
  101MOL    H1942219   5.091   6.613   7.899  0.3461  0.2646 -2.8452
  101MOL    H2042220   5.536   7.048   7.843  0.2168  2.3029 -2.6022
  101MOL    H2142221   5.564   7.055   0.036 -0.0547 -3.0570 -1.4043
  101MOL    H2242222   5.338   7.207   0.031  0.4722 -1.9866  1.5644
  101MOL    C2342223   5.616   7.234   7.910 -0.6803  0.6912 -0.1295
  101MOL    O2442224   5.749   7.188   7.894  0.0047  0.4644  0.3752
  101MOL    C2542225   5.808   7.224   7.771  0.1276  0.1874 -0.2923
  101MOL    O2642226   5.732   7.175   7.665 -0.4887 -0.2135 -0.5641
  101MOL    C2742227   5.791   7.183   7.536 -0.1601  0.0477  0.2693
  101MOL    C2842228   5.753   7.081   7.449  0.1119 -0.2359  1.1470
  101MOL    C2942229   5.816   7.078   7.321 -0.8164 -0.1595  0.2331
  101MOL    C3042230   5.922   7.168   7.282 -0.0403  0.2261  0.1983
  101MOL    C3142231   5.951   7.276   7.365 -0.0636  0.8494 -0.1379
  101MOL    C3242232   5.890   7.275   7.492 -0.6251  0.1937 -0.0730
  101MOL    C3342233   5.616   7.329   0.056 -0.1032 -0.5313 -0.9569
  101MOL    H3442234   5.574   7.280   7.820 -2.7840 -1.5060 -0.3191
  101MOL    H3542235   5.909   7.183   7.776 -0.6999 -1.8412  0.1147
  101MOL    H3642236   5.801   7.333   7.767  1.4897  0.2160 -3.1956
  101MOL    H3742237   5.675   7.010   7.470 -0.6590 -0.4152 -2.0219
  101MOL    H3842238   5.784   6.999   7.255  3.2771 -0.1783 -1.9416
  101MOL    H3942239   5.966   7.147   7.186  2.0189 -0.8610  1.3623
  101MOL    H4042240   6.031   7.347   7.350  1.7990 -0.8317  1.5212
  101MOL    H4142241   5.930   7.352   7.556  2.2929 -0.0897 -1.4724
  101MOL    H4242242   5.709   7.315   0.111 -0.8341 -2.0429 -0.0483
  101MOL    H4342243   5.541   7.297   0.129 -0.0766  0.3294 -0.5467
  101MOL    C4442244   5.584   7.481   0.022 -0.0882 -0.1842 -0.2392
  101MOL    O4542245   5.592   7.558   0.141  0.0839  0.5727 -0.3927
  101MOL    C4642246   5.677   7.663   0.150  0.1805 -0.5802  0.2512
  101MOL    O4742247   5.640   7.766   0.066 -0.1581 -0.0834  0.6780
  101MOL    C4842248   5.737   7.860   0.032  0.7065 -0.2289  0.1749
  101MOL    C4942249   5.704   0.017   0.034 -0.8982  0.2223  0.5073
  101MOL    C5042250   5.801   0.113   0.006  0.1690 -0.1172  0.0815
  101MOL    C5142251   5.933   0.079   7.948  0.0971 -0.0863  0.2004
  101MOL    C5242252   5.966   7.917   7.934  0.8138  0.0754 -0.3967
  101MOL    C5342253   5.867   7.817   7.962  0.1393 -0.0667 -0.8944
  101MOL    C5442254   5.442   7.491   7.936  0.6120  0.0804 -0.2320
  101MOL    H5542255   5.663   7.516   7.930  0.0851  0.8158  0.4626
  101MOL    H5642256   5.783   7.640   0.141  0.0394 -0.0163 -3.7846
  101MOL    H5742257   5.666   7.701   0.252  0.2781 -1.0155  0.4247
  101MOL    H5842258   5.607   0.058   0.060 -1.1298  0.5958 -0.8831
  101MOL    H5942259   5.768   0.216   7.975 -0.2901 -0.3664 -1.9160
  101MOL    H6042260   6.005   0.157   7.928  1.9676 -1.8273 -0.0565
  101MOL    H6142261   6.057   7.887   7.886 -0.6899 -0.3161 -3.0957
  101MOL    H6242262   5.893   7.713   7.951 -1.4292 -0.5918  0.2500
  101MOL    H6342263   5.415   7.401   7.881  0.0347 -0.7523  1.3889
  101MOL    H6442264   5.373   7.494   0.045  0.3922 -2.7384 -0.2717
  101MOL    C6542265   5.432   7.612   7.860 -0.5121 -1.2732  0.3716
  101MOL    O6642266   5.535   7.605   7.752 -0.0599  0.2679  0.4238
  101MOL    C6742267   5.614   7.721   7.724 -0.4400 -0.3099  0.2710
  101MOL    O6842268   5.601   7.766   7.589  0.2761 -0.1027 -0.2809
  101MOL    C6942269   5.629   7.900   7.558 -0.3333 -0.6543  0.0901
  101MOL    C7042270   5.606   7.948   7.429  0.0440  0.1370 -0.7287
  101MOL    C7142271   5.628   0.109   7.388 -0.1721 -0.6808  0.0186
  101MOL    C7242272   5.673   0.205   7.484 -0.2161 -0.1032  0.0845
  101MOL    C7342273   5.715   0.150   7.604 -0.1137  0.1656 -0.6394
  101MOL    C7442274   5.694   0.015   7.641 -0.1322 -1.2469 -0.3572
  101MOL    C7542275   5.300   7.638   7.789  0.2332 -0.1819 -0.0716
  101MOL    H7642276   5.449   7.691   7.933 -0.4799 -0.4568 -0.5084
  101MOL    H7742277   5.722   7.706   7.736  0.0347  2.6543  0.1966
  101MOL    H7842278   5.589   7.801   7.795  1.7452 -0.0143  0.7554
  101MOL    H7942279   5.577   7.868   7.363 -3.2449 -1.8244  2.9161
  101MOL    H8042280   5.606   0.144   7.288  2.1750 -1.1439 -0.6916
  101MOL    H8142281   5.699   0.306   7.457 -0.6850  0.0017  0.0270
  101MOL    H8242282   5.767   0.210   7.678 -1.0561 -0.4267  0.5277
  101MOL    H8342283   5.717   7.951   7.739  1.3381  1.5962  0.4978
  101MOL    H8442284   5.309   7.733   7.736  0.2309 -0.5789 -0.7770
  101MOL    H8542285   5.283   7.565   7.710 -1.8299 -1.3435  1.3885
  101MOL    C8642286   5.169   7.639   7.871 -0.1480 -0.1117 -0.1201
  101MOL    O8742287   5.170   7.512   7.930 -0.1842 -0.7173  0.0675
  101MOL    C8842288   5.080   7.434   7.870  0.0064  0.4857 -0.1336
  101MOL    O8942289   4.944   7.468   7.897  0.3202  0.0844 -0.8755
  101MOL    C9042290   4.850   7.376   7.854 -0.6216  0.5518 -0.0337
  101MOL    C9142291   4.719   7.392   7.901 -0.4686 -0.3591  0.0297
  101MOL    C9242292   4.620   7.294   7.874  0.4485 -0.8570  0.8575
  101MOL    C9342293   4.657   7.184   7.786 -0.2375 -0.7650  1.1103
  101MOL    C9442294   4.785   7.176   7.741 -0.3672  0.0669 -0.6057
  101MOL    C9542295   4.886   7.268   7.768  0.2855  0.3928 -0.2611
  101MOL    C9642296   5.183   7.754   0.003 -0.4135 -0.0779  0.2730
  101MOL    H9742297   5.080   7.657   7.811 -2.1533 -1.8015  2.2241
  101MOL    H9842298   5.101   7.334   7.908 -0.4470  0.0865 -0.9073
  101MOL    H9942299   5.101   7.433   7.763  3.0417 -0.3410  0.4196
  101MOL   H10042300   4.702   7.483   7.957  1.4805 -0.4428  0.7881
  101MOL   H10142301   4.524   7.315   7.920  0.1471 -0.4496  0.0708
  101MOL   H10242302   4.581   7.107   7.777 -1.5116  0.3694  1.9102
  101MOL   H10342303   4.815   7.089   7.684  3.0316 -0.5346  1.9150
  101MOL   H10442304   4.982   7.253   7.723  1.2438  0.6430  1.6312
  101MOL   H10542305   5.112   7.749   0.085  0.8325 -0.0976  1.3748
  101MOL   H10642306   5.280   7.746   0.053 -0.1704  0.7228 -0.0591
  101MOL   C10742307   5.179   7.898   7.922 -0.4887 -0.3629  0.1591
  101MOL   O10842308   5.050   7.959   7.941  0.1284  0.4364  0.3845
  101MOL   C10942309   4.954   7.894   7.865 -0.5298 -0.1601  0.1014
  101MOL   O11042310   4.906   7.779   7.924 -0.2592 -0.4141  0.1659
  101MOL   C11142311   4.831   7.791   0.064  0.1884 -0.2521 -0.2446
  101MOL   C11242312   4.817   7.673   0.140 -0.5619 -0.2017  0.2860
  101MOL   C11342313   4.751   7.677   0.265  0.3605  0.3217 -0.0406
  101MOL   C11442314   4.685   7.792   0.311 -0.6569 -0.1099  0.7386
  101MOL   C11542315   4.696   7.904   0.229  0.6979  0.1449  0.2990
  101MOL   C11642316   4.773   7.909   0.110  0.3111  0.4162 -0.2280
  101MOL   C11742317   5.270   0.019   0.013 -0.2791  0.6548 -0.3175
  101MOL   H11842318   5.197   7.905   7.815  1.8818  0.5726  0.5999
  101MOL   H11942319   4.981   7.881   7.761 -2.8115 -0.0095 -0.5373
  101MOL   H12042320   4.873   7.966   7.853  0.5737  1.1539  0.4405
  101MOL   H12142321   4.873   7.589   0.100  1.8309  1.0113  0.9925
  101MOL   H12242322   4.743   7.581   0.313  1.1470  1.5379  2.6214
  101MOL   H12342323   4.637   7.803   0.407 -0.0137  0.4912  0.9970
  101MOL   H12442324   4.646   0.020   0.257 -0.0820 -0.3495  0.5348
  101MOL   H12542325   4.770   0.026   0.054 -3.1971  1.1387  1.0318
  101MOL   H12642326   5.371   7.953   0.013 -1.1423 -1.5856  2.2065
  101MOL   H12742327   5.249   0.023   0.120  0.8908  0.7734 -0.0859
  101MOL   C12842328   5.266   0.166   7.935  0.1372  0.6393  0.3856
  101MOL   O12942329   5.326   0.158   7.807 -0.5262 -0.1917 -0.1713
  101MOL   C13042330   5.253   0.219   7.704 -0.1646  0.1616  0.3990
  101MOL   O13142331   5.138   0.144   7.675 -0.4361  0.2908  0.3479
  101MOL   C13242332   5.149   0.051   7.573  0.5331 -0.4869 -0.5759
  101MOL   C13342333   5.029   0.012   7.516  0.1097  0.1581  0.4581
  101MOL   C13442334   5.033   7.891   7.410 -0.4776  0.3236 -0.7317
  101MOL   C13542335   5.153   7.824   7.376 -0.7266  0.3406 -0.1314
  101MOL   C13642336   5.270   7.861   7.439  0.2810 -0.2356 -0.4170
  101MOL   C13742337   5.272   7.962   7.540  0.4096  0.3455 -0.1403
  101MOL   C13842338   5.350   0.264   0.055  0.0266 -0.2027  0.8806
  101MOL   H13942339   5.166   0.207   7.930 -0.6834 -1.1526  1.4684
  101MOL   H14042340   5.302   0.242   7.609 -0.7864  0.6580  0.1886
  101MOL   H14142341   5.224   0.319   7.738  1.1090  0.0060  2.0028
  101MOL   H14242342   4.934   0.059   7.536  0.5185  0.6001  1.3960
  101MOL   H14342343   4.947   7.875   7.347 -1.6733 -1.6499  1.3281
  101MOL   H14442344   5.153   7.747   7.302  0.8654 -0.8053  1.0359
  101MOL   H14542345   5.367   7.820   7.416 -0.5137 -1.6013 -1.4051
  101MOL   H14642346   5.359   0.020   7.594 -2.5416  1.8338  3.8952
  101MOL   H14742347   5.454   0.234   0.049 -0.7586 -3.3061  1.8736
  101MOL   H14842348   5.337   0.363   0.011  0.0123  0.7391  2.9440
  101MOL   C14942349   5.309   0.283   0.202  0.6395 -0.4980 -0.2382
  101MOL   O15042350   5.394   0.370   0.278 -0.3363 -0.1934  0.6584
  101MOL   C15142351   5.459   0.309   0.384  0.2273  0.1051 -0.1246
  101MOL   O15242352   5.558   0.218   0.345  0.3696 -0.4576 -0.2029
  101MOL   C15342353   5.630   0.157   0.442  0.2709 -0.2470 -1.2742
  101MOL   C15442354   5.605   0.161   0.583  0.5975 -0.8117 -0.2321
  101MOL   C15542355   5.684   0.095   0.672 -0.3776  0.2821 -0.1264
  101MOL   C15642356   5.785   0.009   0.626  0.1948  0.5311 -0.0266
  101MOL   C15742357   5.794   7.957   0.486  0.1470 -0.1904 -0.4972
  101MOL   C15842358   5.722   0.065   0.395  0.4723  0.0778 -0.1566
  101MOL   C15942359   5.163   0.352   0.205  0.2772  0.5225 -0.7308
  101MOL   H16042360   5.300   0.184   0.248 -0.7885 -0.3606 -0.1975
  101MOL   H16142361   5.512   0.392   0.431  1.3745 -0.6898  0.0041
  101MOL   H16242362   5.386   0.262   0.450 -0.3072  1.5033  0.3033
  101MOL   H16342363   5.544   0.235   0.632  1.8639 -1.2348  2.0886
  101MOL   H16442364   5.672   0.107   0.779 -1.9830 -2.2577  0.0322
  101MOL   H16542365   5.853   7.933   0.692 -1.7606 -0.0143  1.6195
  101MOL   H16642366   5.869   7.886   0.453  1.0075 -1.0915  3.1618
  101MOL   H16742367   5.751   0.069   0.291 -1.1385 -0.5322 -0.6446
  101MOL   H16842368   5.096   0.289   0.148 -0.6111 -0.7528  1.6559
  101MOL   H16942369   5.168   0.437   0.136  2.3212  0.8385 -0.2488
  101MOL   C17042370   5.105   0.381   0.352  1.0255 -0.9690  0.5972
  101MOL   O17142371   4.968   0.432   0.360 -0.8686  0.1768 -1.0411
  101MOL   C17242372   4.938   0.560   0.322 -0.0612 -0.8998  0.6257
  101MOL   O17342373   4.962   0.584   0.185  0.1242  0.0959 -0.3733
  101MOL   C17442374   4.979   0.707   0.137  0.5397 -0.2424 -0.0795
  101MOL   C17542375   4.958   0.820   0.217  0.3244  0.6387  0.3719
  101MOL   C17642376   4.964   0.952   0.163 -0.0341  0.0203  0.1696
  101MOL   C17742377   5.020   0.971   0.033  0.2189  0.1947 -0.4184
  101MOL   C17842378   5.047   0.860   7.930 -0.6835  0.3820  0.0508
  101MOL   C17942379   5.021   0.732   0.004  0.1315  1.0474 -0.1025
  101MOL   C18042380   5.099   0.257   0.440 -0.6944  0.8097 -0.1771
  101MOL   H18142381   5.183   0.446   0.391 -0.9651  0.4709  2.3430
  101MOL   H18242382   4.997   0.634   0.376 -1.0466  0.2025  0.2076
  101MOL   H18342383   4.832   0.582   0.337  0.4090  1.1548  1.0993
  101MOL   H18442384   4.904   0.816   0.311  0.6575  0.3324  0.5492
  101MOL   H18542385   4.923   1.033   0.222  1.3706  2.2462 -1.7800
  101MOL   H18642386   5.038   1.072   7.974  3.3805 -0.1061  0.1512
  101MOL   H18742387   5.092   0.873   7.832 -0.7271 -0.6733 -0.1137
  101MOL   H18842388   5.032   0.644   7.917 -1.2694  0.0784  0.9919
  101MOL   H18942389   4.995   0.224   0.445 -0.0670 -1.1079  0.3911
  101MOL   H19042390   5.156   0.175   0.398 -0.8324  0.1902  0.8234
  101MOL   C19142391   5.132   0.278   0.590 -0.3275 -0.1773  0.1478
  101MOL   O19242392   5.104   0.166   0.668 -0.6005  0.1646 -0.6571
  101MOL   C19342393   5.219   0.087   0.713  0.5550 -0.4830  0.3968
  101MOL   O19442394   5.312   0.062   0.620 -0.5702  0.6702  0.4981
  101MOL   C19542395   5.291   7.932   0.535 -0.1364 -0.1673 -0.9340
  101MOL   C19642396   5.395   7.856   0.477  0.0092 -0.5923 -0.7649
  101MOL   C19742397   5.372   7.752   0.389 -0.8250 -0.1033 -0.2768
  101MOL   C19842398   5.244   7.712   0.366  0.0129  0.1242  0.3013
  101MOL   C19942399   5.130   7.776   0.425  0.0716 -0.2845 -0.1177
  101MOL   C20042400   5.163   7.890   0.497  0.2230  0.0678  0.3405
  101MOL   C20142401   5.042   0.386   0.644  0.2635  0.4481  0.1933
  101MOL   H20242402   5.234   0.310   0.611  0.1684  0.4381 -3.0393
  101MOL   H20342403   5.185   7.969   0.758  0.7321 -0.2579  1.0076
  101MOL   H20442404   5.265   0.151   0.788  2.1280 -1.2984  0.1743
  101MOL   H20542405   5.492   7.885   0.514 -0.2996 -0.1881 -0.2557
  101MOL   H20642406   5.445   7.702   0.327 -1.2601  1.2588 -1.9205
  101MOL   H20742407   5.218   7.638   0.292  0.5512 -0.8542  1.0764
  101MOL   H20842408   5.032   7.748   0.390 -1.2515  2.6672  1.0447
  101MOL   H20942409   5.079   7.943   0.540 -0.1005 -1.6947  1.9414
  101MOL   H21042410   5.053   0.477   0.585  0.4231 -0.5841 -1.4005
  101MOL   H21142411   4.939   0.357   0.624  0.8197 -1.6471  0.2374
  101MOL   C21242412   5.063   0.412   0.795  0.1039 -0.0383  0.9328
  101MOL   O21342413   5.185   0.492   0.803  0.1320  0.4012 -0.4482
  101MOL   C21442414   5.239   0.488   0.936 -0.0235  0.3623  0.6401
  101MOL   O21542415   5.293   0.367   0.968  0.0900 -0.3377  0.0293
  101MOL   C21642416   5.391   0.370   1.063 -0.5025 -0.3719 -0.5988
  101MOL   C21742417   5.395   0.465   1.165 -0.3527  0.0114  0.5154
  101MOL   C21842418   5.504   0.477   1.249  0.6484 -0.0280  0.1047
  101MOL   C21942419   5.620   0.400   1.222 -0.4538  0.0985  0.0298
  101MOL   C22042420   5.607   0.284   1.138  0.7615 -0.6071  0.3648
  101MOL   C22142421   5.494   0.274   1.054 -0.0597 -0.8043 -0.3410
  101MOL   C22242422   4.940   0.491   0.856 -0.2237  0.1896  0.4517
  101MOL   H22342423   5.064   0.319   0.851 -0.0147 -0.6146 -0.0202
  101MOL   H22442424   5.170   0.517   1.015 -0.4738 -2.6548  1.4174
  101MOL   H22542425   5.319   0.563   0.931  1.3345 -1.1263 -0.4428
  101MOL   H22642426   5.309   0.527   1.189 -0.6939 -0.0387 -0.5438
  101MOL   H22742427   5.514   0.548   1.329  1.9542 -0.8512  0.6955
  101MOL   H22842428   5.709   0.417   1.282 -0.0404  0.8464 -0.7879
  101MOL   H22942429   5.693   0.223   1.112  0.5896 -0.2719 -1.0721
  101MOL   H23042430   5.494   0.193   0.982 -0.1348 -1.1865  0.0873
  101MOL   H23142431   4.959   0.518   0.960 -2.9287  0.3583  0.9545
  101MOL   H23242432   4.925   0.580   0.794 -1.2867 -1.6176 -1.9684
  101MOL   C23342433   4.806   0.416   0.871  0.3865  0.5062  0.4907
  101MOL   O23442434   4.746   0.454   0.996  0.1261 -0.2349 -0.5109
  101MOL   C23542435   4.781   0.375   1.103  0.6729  0.1148  0.1257
  101MOL   O23642436   4.916   0.383   1.145 -0.2103  0.5391 -0.4310
  101MOL   C23742437   4.954   0.497   1.214  0.4185 -0.7410 -0.8481
  101MOL   C23842438   5.069   0.486   1.291  0.4029 -0.5554 -0.0868
  101MOL   C23942439   5.118   0.596   1.367 -0.3645  0.5736 -0.8089
  101MOL   C24042440   5.042   0.717   1.368  0.2487 -0.0830 -0.6665
  101MOL   C24142441   4.925   0.729   1.291  0.3498 -0.0646 -0.0886
  101MOL   C24242442   4.879   0.616   1.216  0.5097 -0.2369 -0.1361
  101MOL   C24342443   4.701   0.454   0.763 -0.2418  0.1798  0.2389
  101MOL   H24442444   4.816   0.308   0.860 -0.4341  0.3287  1.5039
  101MOL   H24542445   4.766   0.271   1.072 -0.4221  0.6876 -1.3490
  101MOL   H24642446   4.710   0.387   1.185  0.7299 -0.1652  0.2182
  101MOL   H24742447   5.133   0.399   1.289  1.1340  0.0032 -0.7250
  101MOL   H24842448   5.206   0.590   1.428  0.3323 -1.8140 -1.9754
  101MOL   H24942449   5.079   0.796   1.432  0.9449 -1.1797  0.2909
  101MOL   H25042450   4.859   0.815   1.291 -0.5112 -0.7046 -1.8639
  101MOL   H25142451   4.783   0.625   1.167  0.9066 -1.4546 -1.1540
  101MOL   H25242452   4.639   0.533   0.806 -1.2265  0.6464 -1.9987
  101MOL   H25342453   4.747   0.507   0.679 -0.5823 -0.5981 -0.4372
  101MOL   C25442454   4.604   0.347   0.721  0.4211 -0.3686  0.1767
  101MOL   O25542455   4.674   0.237   0.661 -0.0645 -1.0106 -0.2970
  101MOL   C25642456   4.709   0.243   0.521  0.4278 -0.0181  0.7914
  101MOL   O25742457   4.591   0.249   0.441 -0.0011 -0.5667 -0.3155
  101MOL   C25842458   4.607   0.305   0.320 -0.2532  0.0042  0.8531
  101MOL   C25942459   4.505   0.392   0.285  0.1848 -0.3229 -0.0834
  101MOL   C26042460   4.511   0.457   0.163 -0.2856  0.3225 -0.3875
  101MOL   C26142461   4.619   0.422   0.075 -0.7557 -0.3482  0.8961
  101MOL   C26242462   4.722   0.331   0.106 -0.2731 -0.4780  0.4124
  101MOL   C26342463   4.721   0.277   0.236 -0.2657 -0.4984  0.0231
  101MOL   C26442464   4.521   0.293   0.833  0.5216  0.6408  0.3365
  101MOL   H26542465   4.541   0.375   0.636 -0.2413 -1.3243  0.3458
  101MOL   H26642466   4.751   0.145   0.499 -2.0146 -1.1901  1.2068
  101MOL   H26742467   4.780   0.325   0.514 -0.7499  0.9267 -0.4580
  101MOL   H26842468   4.431   0.427   0.356 -0.1574  2.0999 -1.5757
  101MOL   H26942469   4.439   0.536   0.153 -1.3728 -0.8265 -1.8270
  101MOL   H27042470   4.625   0.474   7.956 -0.9486  0.1313  1.1434
  101MOL   H27142471   4.812   0.311   0.050 -1.5060 -0.1893 -1.7178
  101MOL   H27242472   4.804   0.214   0.265 -1.0261 -1.5305 -0.0062
  101MOL   H27342473   4.476   0.200   0.798  2.9342  0.2139 -1.7645
  101MOL   H27442474   4.585   0.248   0.908 -0.1706 -2.4160 -0.8440
  101MOL   C27542475   4.408   0.387   0.890 -0.4172  0.3486 -0.7770
  101MOL   O27642476   4.302   0.403   0.799 -0.0435  0.9091  0.5285
  101MOL   C27742477   4.284   0.537   0.745  0.4196 -0.4096  0.4465
  101MOL   O27842478   4.372   0.549   0.641  0.1714 -0.0761 -0.4543
  101MOL   C27942479   4.404   0.676   0.590 -0.1465 -0.5916  0.0967
  101MOL   C28042480   4.510   0.677   0.503  1.1635  0.7206  0.3742
  101MOL   C28142481   4.544   0.799   0.436 -0.0957  0.0998  0.3403
  101MOL   C28242482   4.472   0.922   0.461 -0.8386  0.3040  0.3346
  101MOL   C28342483   4.375   0.918   0.559 -0.3018  0.0969  0.3247
  101MOL   C28442484   4.332   0.797   0.621  1.1477  0.2257 -0.0834
  101MOL   C28542485   4.349   0.332   1.024 -0.1185 -0.3363 -0.0428
  101MOL   H28642486   4.460   0.477   0.921  1.9018 -1.7248  1.6272
  101MOL   H28742487   4.311   0.618   0.812 -1.4607 -0.4313  1.2621
  101MOL   H28842488   4.185   0.557   0.704 -0.3008 -2.5193  1.0865
  101MOL   H28942489   4.560   0.583   0.483  1.4649  0.7309  1.0545
  101MOL   H29042490   4.624   0.803   0.364  1.5302 -3.3005  1.8523
  101MOL   H29142491   4.498   1.016   0.415 -1.0375  0.4967  0.6188
  101MOL   H29242492   4.322   1.007   0.590  1.4346  0.2090  3.1228
  101MOL   H29342493   4.250   0.805   0.691  1.8031  0.5872  0.6463
  101MOL   H29442494   4.432   0.311   1.092  1.0772  2.4199 -0.6115
  101MOL   H29542495   4.318   0.227   1.016 -0.1823 -0.3597  0.4680
  101MOL   C29642496   4.243   0.424   1.085 -0.2602 -0.0204 -0.2631
  101MOL   O29742497   4.167   0.356   1.180 -0.1397 -0.0129 -0.3209
  101MOL   C29842498   4.076   0.260   1.137 -0.4385  0.2543 -0.0790
  101MOL   O29942499   3.959   0.314   1.081  0.0142 -1.0545  0.1451
  101MOL   C30042500   3.880   0.402   1.153 -0.7242  0.8368  0.3023
  101MOL   C30142501   3.909   0.435   1.289 -0.5089  0.1205  0.3486
  101MOL   C30242502   3.824   0.510   1.366  0.1444 -0.6973 -0.3270
  101MOL   C30342503   3.716   0.570   1.298 -0.3307  0.0530  0.3258
  101MOL   C30442504   3.690   0.556   1.159 -0.2105  0.2186  0.1577
  101MOL   C30542505   3.771   0.464   1.085 -0.1496 -0.3510 -0.0808
  101MOL   C30642506   4.306   0.549   1.150  0.0438  0.4157 -0.1174
  101MOL   H30742507   4.181   0.464   1.005 -0.3582 -0.9379 -0.6416
  101MOL   H30842508   4.049   0.198   1.222  0.1520  0.2109  0.0791
  101MOL   H30942509   4.123   0.194   1.064 -0.7483  0.6394 -0.6306
  101MOL   H31042510   3.992   0.388   1.339  0.3175  1.6110  0.4096
  101MOL   H31142511   3.841   0.536   1.470 -1.6526  0.0074 -0.1897
  101MOL   H31242512   3.648   0.637   1.347  1.3466  1.0184  1.3461
  101MOL   H31342513   3.614   0.610   1.104  0.4074 -1.0921 -2.0410
  101MOL   H31442514   3.745   0.443   0.983 -0.3440 -3.7766  0.6267
  101MOL   H31542515   4.390   0.585   1.090  0.1280 -1.7126 -1.3228
  101MOL   H31642516   4.357   0.526   1.244  2.9160  1.4332 -1.3853
  101MOL   C31742517   4.204   0.663   1.177  0.2727  0.1614 -0.2302
  101MOL   O31842518   4.167   0.711   1.048 -0.5257  0.0079 -0.0037
  101MOL   C31942519   4.028   0.729   1.038 -0.1644  0.2556  0.2615
  101MOL   O32042520   3.986   0.778   0.917  0.4727  0.0473  0.3263
  101MOL   C32142521   4.010   0.909   0.886  0.1283  0.3794  0.1616
  101MOL   C32242522   4.094   0.995   0.958  0.3106 -0.2483 -0.1236
  101MOL   C32342523   4.131   1.116   0.903  0.0559 -0.0190  0.1006
  101MOL   C32442524   4.092   1.155   0.772 -0.0821 -0.0700 -0.6802
  101MOL   C32542525   4.016   1.066   0.700  0.4743 -0.6041 -0.5085
  101MOL   C32642526   3.971   0.950   0.755  0.3816  0.5962 -0.4965
  101MOL   C32742527   4.270   0.784   1.243 -0.5489  0.2821  0.8032
  101MOL   H32842528   4.124   0.627   1.241  0.8037 -0.0647  0.3199
  101MOL   H32942529   3.988   0.791   1.118 -0.8356 -1.4229  1.2569
  101MOL   H33042530   3.975   0.633   1.044 -0.0152  0.1752  0.3028
  101MOL   H33142531   4.133   0.977   1.057  0.7293  2.1265  0.1791
  101MOL   H33242532   4.198   1.180   0.958  0.6714  1.3929 -2.1939
  101MOL   H33342533   4.116   1.246   0.718 -1.8162  1.9156  1.7632
  101MOL   H33442534   3.987   1.095   0.600 -0.4198 -0.7612 -0.2944
  101MOL   H33542535   3.896   0.882   0.717  0.6544 -0.1930  0.3639
  101MOL   H33642536   4.338   0.820   1.166 -2.3637  1.7470 -0.1479
  101MOL   H33742537   4.200   0.867   1.254  0.0805  0.6480  2.1534
  101MOL   C33842538   4.340   0.769   1.375  0.4650  0.5590  0.7539
  101MOL   O33942539   4.467   0.832   1.364  0.1082  0.0758 -0.1749
  101MOL   C34042540   4.563   0.754   1.293 -0.7833  0.9112 -0.1983
  101MOL   O34142541   4.592   0.634   1.360  0.0362 -0.7157  0.4924
  101MOL   C34242542   4.678   0.632   1.470  0.0848  0.5187 -0.0363
  101MOL   C34342543   4.755   0.514   1.494 -0.2681 -0.4063  0.7446
  101MOL   C34442544   4.847   0.509   1.597 -0.9491 -0.5241 -0.0430
  101MOL   C34542545   4.853   0.615   1.682  0.3809 -0.9143 -0.1184
  101MOL   C34642546   4.773   0.731   1.668  0.4342 -0.3099 -0.4491
  101MOL   C34742547   4.684   0.741   1.560 -0.2315 -0.4778 -1.1502
  101MOL   C34842548   4.269   0.836   1.498 -0.4156 -0.3216  0.0363
  101MOL   H34942549   4.343   0.661   1.392  0.6324 -0.3202 -4.2340
  101MOL   H35042550   4.651   0.813   1.269 -0.8233 -0.0053 -2.7053
  101MOL   H35142551   4.534   0.730   1.191  1.2975  0.7143 -0.7644
  101MOL   H35242552   4.741   0.435   1.422  1.9892 -0.0439 -0.1570
  101MOL   H35342553   4.911   0.425   1.620  0.8676  0.5840 -0.9224
  101MOL   H35442554   4.919   0.611   1.768 -1.3016 -1.3899  1.1763
  101MOL   H35542555   4.778   0.819   1.731 -1.3504  0.8403 -1.8345
  101MOL   H35642556   4.624   0.829   1.543 -0.9639 -1.0305 -1.4782
  101MOL   H35742557   4.276   0.945   1.495 -0.0297 -0.2000  3.3132
  101MOL   H35842558   4.323   0.797   1.584 -0.3200 -2.0186 -0.7777
  101MOL   C35942559   4.128   0.784   1.528 -0.2528 -0.4240  0.7280
  101MOL   O36042560   4.047   0.902   1.513  0.1643 -0.3385  0.1490
  101MOL   C36142561   3.907   0.874   1.505  0.0542 -0.2645  0.1982
  101MOL   O36242562   3.847   0.923   1.387 -0.4911  0.7819 -0.1042
  101MOL   C36342563   3.870   1.056   1.353 -0.2828  0.7964  0.3378
  101MOL   C36442564   3.862   1.090   1.218 -0.5076  0.5706 -0.0129
  101MOL   C36542565   3.897   1.222   1.174 -0.5681 -0.5085  0.0460
  101MOL   C36642566   3.916   1.321   1.264  0.0869  0.6867 -0.0329
  101MOL   C36742567   3.909   1.284   1.403 -0.3372 -0.2041 -0.0313
  101MOL   C36842568   3.890   1.158   1.448  0.6140 -0.3191  0.0057
  101MOL   C36942569   4.101   0.721   1.660 -0.4142 -0.1328 -0.8735
  101MOL   H37042570   4.107   0.722   1.441  2.4105  1.0319 -1.0275
  101MOL   H37142571   3.854   0.914   1.592 -0.8610  1.2062 -1.0256
  101MOL   H37242572   3.881   0.768   1.515 -0.3198 -0.2419 -0.5165
  101MOL   H37342573   3.837   1.010   1.150 -2.9710  0.9993  0.3620
  101MOL   H37442574   3.914   1.245   1.070 -0.8225 -3.3005 -0.6378
  101MOL   H37542575   3.951   1.418   1.233  0.2755  1.0922  1.4291
  101MOL   H37642576   3.927   1.352   1.486  3.4525  0.7381 -1.5342
  101MOL   H37742577   3.883   1.137   1.554  0.7937 -1.8122 -0.2545
  101MOL   H37842578   3.994   0.704   1.668 -0.4362 -0.7048 -2.2396
  101MOL   H37942579   4.120   0.789   1.742  2.2149 -1.9760  0.1194
  101MOL   C38042580   4.164   0.580   1.692  0.1156  0.4764 -0.4079
  101MOL   O38142581   4.307   0.604   1.705 -0.3505 -0.1785  0.0974
  101MOL   C38242582   4.351   0.617   1.834  0.3509 -0.1777 -0.1507
  101MOL   O38342583   4.333   0.501   1.909 -0.2503 -0.1593 -0.3786
  101MOL   C38442584   4.396   0.385   1.884  0.2438  0.3988  0.0140
  101MOL   C38542585   4.345   0.273   1.952  0.5459  0.8008  0.1157
  101MOL   C38642586   4.397   0.146   1.929 -0.0151  0.0337 -0.1848
  101MOL   C38742587   4.493   0.129   1.834  0.2972 -0.3200 -0.4933
  101MOL   C38842588   4.545   0.238   1.766 -0.4828 -0.4326  0.5118
  101MOL   C38942589   4.501   0.367   1.792 -0.1119 -0.1219  0.2438
  101MOL   C39042590   4.157   0.480   1.580  0.2136 -0.3680 -0.3692
  101MOL   H39142591   4.128   0.535   1.784  3.9491 -1.3281  0.3137
  101MOL   H39242592   4.456   0.645   1.828  0.0474  1.3774  1.3350
  101MOL   H39342593   4.294   0.695   1.885 -1.9210 -0.9295 -1.4774
  101MOL   H39442594   4.261   0.283   2.019  1.6298  1.6305  1.3748
  101MOL   H39542595   4.374   0.060   1.989  0.9632 -0.2735 -0.2549
  101MOL   H39642596   4.550   0.038   1.817 -1.2132 -1.0026 -2.1484
  101MOL   H39742597   4.621   0.222   1.691 -1.0868 -0.7162 -0.0434
  101MOL   H39842598   4.538   0.452   1.736  0.7984  0.0081  1.0481
  101MOL   H39942599   4.228   0.502   1.501  1.1075  0.5818  0.6855
  101MOL   H40042600   4.067   0.504   1.524 -1.1047 -1.9593  0.9950
  101MOL   C40142601   4.156   0.332   1.627  0.1286 -0.1251 -0.0077
  101MOL   O40242602   4.030   0.290   1.672  0.1287  0.1034  0.6527
  101MOL   C40342603   4.045   0.190   1.772 -0.5842  0.2501 -0.6096
  101MOL   O40442604   3.918   0.165   1.829  0.0615  0.2260 -0.2251
  101MOL   C40542605   3.823   0.109   1.748  0.1104 -0.1318 -0.0641
  101MOL   C40642606   3.858   0.023   1.635  0.1589 -0.3620  0.2280
  101MOL   C40742607   3.762   7.928   1.560 -0.5408  0.6540  0.3498
  101MOL   C40842608   3.629   7.936   1.607 -0.0974  0.4143 -0.3473
  101MOL   C40942609   3.592   0.029   1.726 -0.0190 -0.7139  0.5807
  101MOL   C41042610   3.692   0.102   1.794  1.2189 -0.6534 -0.4412
  101MOL   C41142611   4.180   0.237   1.502 -0.0540 -0.5530 -0.0937
  101MOL   H41242612   4.233   0.321   1.703 -0.2068  0.8821  0.4809
  101MOL   H41342613   4.096   0.230   1.860 -1.0216 -0.8132  0.1418
  101MOL   H41442614   4.092   0.094   1.748  0.2631  0.9437 -1.7657
  101MOL   H41542615   3.964   0.012   1.620  0.0184 -1.0007 -0.3126
  101MOL   H41642616   3.784   7.882   1.464  1.2921 -0.1637  1.1438
  101MOL   H41742617   3.554   7.888   1.545 -0.8541  0.8385  0.2228
  101MOL   H41842618   3.486   0.028   1.748 -0.2411  3.0630  0.0198
  101MOL   H41942619   3.664   0.166   1.877 -1.6588 -0.8747 -1.1655
  101MOL   H42042620   4.266   0.270   1.443  0.2934 -1.9422 -0.3655
  101MOL   H42142621   4.099   0.224   1.431  1.2705  0.0746 -1.7443
  101MOL   H42242622   4.225   0.143   1.532  1.6639  0.5812  0.9916
  102MOL     C142623   0.436   0.790   6.861  0.0352 -0.6865  0.0891
  102MOL     O242624   0.521   0.721   6.777  0.4717  0.3226 -0.0423
  102MOL     C342625   0.611   0.636   6.835 -0.0316 -0.4897 -0.0366
  102MOL     O442626   0.711   0.590   6.745  0.1857  0.0721  0.0133
  102MOL     C542627   0.668   0.537   6.628 -0.1047  0.4060  0.1856
  102MOL     C642628   0.766   0.494   6.534  0.4499 -0.1205  0.2588
  102MOL     C742629   0.727   0.421   6.419 -0.4833  0.2749 -0.0888
  102MOL     C842630   0.598   0.383   6.400 -0.6080 -0.7852 -0.0684
  102MOL     C942631   0.500   0.424   6.492 -0.3700  0.2839 -0.5475
  102MOL    C1042632   0.534   0.495   6.607  0.0556  0.2695 -0.1811
  102MOL    C1142633   0.498   0.930   6.871  0.0261  0.5306 -0.0593
  102MOL    H1242634   0.335   0.791   6.819  0.2670  0.8077 -0.4549
  102MOL    H1342635   0.672   0.690   6.908 -0.6640  1.3694 -0.8607
  102MOL    H1442636   0.553   0.550   6.869  0.1777 -0.1370  1.2226
  102MOL    H1542637   0.873   0.510   6.545  0.5990 -0.1955 -0.9940
  102MOL    H1642638   0.801   0.379   6.352  1.4162 -0.1721  2.2113
  102MOL    H1742639   0.566   0.325   6.315 -0.0905 -0.4097 -0.5140
  102MOL    H1842640   0.399   0.387   6.484 -0.2963  0.1671 -0.9305
  102MOL    H1942641   0.454   0.521   6.676  1.2669  0.1811  1.2834
  102MOL    H2042642   0.505   0.979   6.774 -0.1481  2.7260  1.0078
  102MOL    H2142643   0.601   0.927   6.904  0.7892  1.4596 -2.2549
  102MOL    H2242644   0.422   0.747   6.960 -0.5895 -0.2493  0.1946
  102MOL    C2342645   0.426   1.026   6.969 -0.2918 -0.6365 -0.0566
  102MOL    O2442646   0.299   1.061   6.910  0.2484  0.3051 -0.1406
  102MOL    C2542647   0.190   1.085   6.992 -0.2890  0.1594 -0.3616
  102MOL    O2642648   0.148   0.969   7.050 -0.4032 -0.1500 -0.5940
  102MOL    C2742649   0.090   0.870   6.979  0.1969 -0.2618 -0.2866
  102MOL    C2842650   0.050   0.750   7.047 -0.4484  0.1056  0.2810
  102MOL    C2942651   7.964   0.639   6.979  0.1193 -0.0356  0.1905
  102MOL    C3042652   7.929   0.658   6.845 -0.5253 -0.2782 -0.1677
  102MOL    C3142653   0.002   0.771   6.775 -0.2865  0.2469  0.2891
  102MOL    C3242654   0.068   0.876   6.838 -0.9039  0.5987  0.6681
  102MOL    C3342655   0.510   1.159   6.978  0.1942 -0.4714 -0.5004
  102MOL    H3442656   0.419   0.977   7.066  1.5654 -1.3494 -0.2686
  102MOL    H3542657   0.112   1.133   6.933 -0.2666  0.5463 -0.0829
  102MOL    H3642658   0.215   1.160   7.068 -0.1089 -1.9716  1.7255
  102MOL    H3742659   0.069   0.735   7.152  2.1944  0.5142 -0.1062
  102MOL    H3842660   7.935   0.549   7.031 -2.3189  0.7975  0.3632
  102MOL    H3942661   7.874   0.582   6.791  0.6603 -1.8393  0.7703
  102MOL    H4042662   7.967   0.786   6.669  1.2773  3.0306  0.4893
  102MOL    H4142663   0.107   0.960   6.782  0.1885 -0.8597 -0.7759
  102MOL    H4242664   0.438   1.233   7.013 -1.8984 -1.8096 -1.8680
  102MOL    H4342665   0.528   1.197   6.877  1.7792  1.2230  0.3974
  102MOL    C4442666   0.647   1.173   7.052 -0.2992 -0.1112 -0.5302
  102MOL    O4542667   0.614   1.162   7.188 -0.2195  0.1717 -0.3579
  102MOL    C4642668   0.674   1.063   7.266  0.2584 -0.3621  0.1391
  102MOL    O4742669   0.620   0.935   7.236 -0.0648 -0.5364 -0.1354
  102MOL    C4842670   0.697   0.819   7.259 -0.0068 -1.2406 -0.0001
  102MOL    C4942671   0.639   0.700   7.214 -0.3710  0.2040 -0.4912
  102MOL    C5042672   0.709   0.576   7.227  0.8922 -0.2996 -0.7610
  102MOL    C5142673   0.841   0.577   7.271 -0.0822  0.4298 -0.2455
  102MOL    C5242674   0.898   0.699   7.314 -0.0921  0.0072  0.7571
  102MOL    C5342675   0.829   0.821   7.309 -1.1152 -0.1926  0.2090
  102MOL    C5442676   0.707   1.314   7.034  0.2170 -0.0797 -0.0382
  102MOL    H5542677   0.714   1.095   7.017 -0.3577 -0.2323 -0.3707
  102MOL    H5642678   0.654   1.086   7.371 -3.7314  0.0460 -0.6368
  102MOL    H5742679   0.780   1.086   7.256 -0.0829  0.9090 -0.6314
  102MOL    H5842680   0.537   0.700   7.178 -0.8264  1.1632  0.7427
  102MOL    H5942681   0.659   0.490   7.186 -1.5005 -0.5310  2.3759
  102MOL    H6042682   0.899   0.487   7.265  0.8756  1.1997 -3.5701
  102MOL    H6142683   1.001   0.690   7.344  0.0842  0.4670  0.3043
  102MOL    H6242684   0.879   0.912   7.339  0.2425 -1.1786  0.9806
  102MOL    H6342685   0.720   1.335   6.928  0.1163 -0.2840 -0.0888
  102MOL    H6442686   0.648   1.392   7.082  1.2281  0.3476  0.5393
  102MOL    C6542687   0.852   1.326   7.084 -0.3625  1.0444 -0.1019
  102MOL    O6642688   0.936   1.270   6.985 -0.1864  0.5433  0.6079
  102MOL    C6742689   1.037   1.181   7.029  0.8797 -0.0960  0.4372
  102MOL    O6842690   1.144   1.247   7.089 -0.1538 -0.6434  0.1891
  102MOL    C6942691   1.225   1.322   7.002  0.4883  0.3093  0.5714
  102MOL    C7042692   1.203   1.337   6.860 -0.3077 -0.4385 -0.4695
  102MOL    C7142693   1.302   1.400   6.784 -0.4047 -0.0534 -0.1800
  102MOL    C7242694   1.425   1.444   6.841 -0.4030  0.3118 -0.1683
  102MOL    C7342695   1.444   1.433   6.979 -0.4627  0.1735 -1.1839
  102MOL    C7442696   1.346   1.376   7.060 -0.0646 -0.0140 -0.1718
  102MOL    C7542697   0.891   1.466   7.089 -0.2997  0.2605  0.1843
  102MOL    H7642698   0.860   1.278   7.182  0.2010  0.1679 -0.5733
  102MOL    H7742699   1.077   1.132   6.941 -0.9403 -0.3928 -0.2503
  102MOL    H7842700   1.004   1.102   7.097 -0.9300 -0.2270 -0.5689
  102MOL    H7942701   1.109   1.308   6.816 -1.7430  0.9698  1.5568
  102MOL    H8042702   1.294   1.399   6.676  2.8462  0.4523 -0.4764
  102MOL    H8142703   1.502   1.486   6.777  0.4958  0.7840  1.2112
  102MOL    H8242704   1.531   1.481   7.020  0.0060 -1.8848  0.3422
  102MOL    H8342705   1.359   1.375   7.167  1.2301 -1.1904 -0.3270
  102MOL    H8442706   0.997   1.471   7.110 -0.6886  1.2460  2.0103
  102MOL    H8542707   0.879   1.511   6.990 -1.1103 -2.3180 -0.9255
  102MOL    C8642708   0.824   1.544   7.206  0.0406 -0.5106  1.1915
  102MOL    O8742709   0.849   1.466   7.321  0.4147 -0.0562  0.4892
  102MOL    C8842710   0.767   1.497   7.437  0.7082 -0.4030 -0.3210
  102MOL    O8942711   0.676   1.396   7.461 -0.3749  0.0783  0.0783
  102MOL    C9042712   0.613   1.384   7.583 -0.7756 -0.2133  0.2466
  102MOL    C9142713   0.612   1.491   7.676 -0.0450  0.4120  0.4626
  102MOL    C9242714   0.552   1.475   7.804 -0.6831 -0.1289 -0.3411
  102MOL    C9342715   0.505   1.346   7.840  0.8139 -0.3091  0.4976
  102MOL    C9442716   0.519   1.234   7.750  0.1028  0.0331 -0.0252
  102MOL    C9542717   0.560   1.258   7.622 -0.5175 -0.1272 -0.3854
  102MOL    C9642718   0.895   1.684   7.198  0.7789  0.3832 -0.5322
  102MOL    H9742719   0.715   1.549   7.195  0.1380 -1.1225 -0.2520
  102MOL    H9842720   0.710   1.589   7.421  0.3428 -0.7071 -0.8088
  102MOL    H9942721   0.828   1.514   7.525 -1.7374 -1.0375  1.5284
  102MOL   H10042722   0.655   1.590   7.664 -1.4941  0.8953 -0.8369
  102MOL   H10142723   0.541   1.558   7.873 -3.0079  1.8563 -2.9341
  102MOL   H10242724   0.461   1.333   7.938 -0.1603  1.2929  0.2922
  102MOL   H10342725   0.480   1.138   7.780 -2.1205  0.5960 -1.0696
  102MOL   H10442726   0.564   1.172   7.557  0.9016 -1.3734  1.3078
  102MOL   H10542727   1.000   1.667   7.218  0.7094 -0.2396 -0.6881
  102MOL   H10642728   0.897   1.721   7.095  0.0089  3.4740  0.4995
  102MOL   C10742729   0.843   1.801   7.291  0.0104 -0.0406 -0.2851
  102MOL   O10842730   0.913   1.924   7.274  0.1968 -0.7053 -0.2825
  102MOL   C10942731   1.054   1.921   7.293  0.7607 -0.0108 -0.1807
  102MOL   O11042732   1.089   1.892   7.426 -0.2164 -0.1052 -0.1060
  102MOL   C11142733   1.054   1.972   7.529  0.3249  0.3540  0.2465
  102MOL   C11242734   1.118   1.950   7.654 -0.0596  0.0698 -0.2046
  102MOL   C11342735   1.100   2.036   7.767 -0.3644  0.4590 -0.1883
  102MOL   C11442736   1.011   2.145   7.748 -0.3714  0.1104  0.1307
  102MOL   C11542737   0.950   2.172   7.622 -0.5193 -0.2535 -0.8629
  102MOL   C11642738   0.967   2.090   7.514  0.0774 -0.8724  0.1783
  102MOL   C11742739   0.694   1.826   7.269 -0.3268 -1.0362 -0.4070
  102MOL   H11842740   0.859   1.766   7.393 -1.8242 -1.6112 -0.5020
  102MOL   H11942741   1.096   2.015   7.258  1.4326  0.8253  2.7490
  102MOL   H12042742   1.096   1.833   7.243  0.9196 -0.4155  0.6512
  102MOL   H12142743   1.190   1.871   7.666 -0.0842  0.0147 -0.4261
  102MOL   H12242744   1.152   2.034   7.862 -0.1259 -2.6374 -0.3035
  102MOL   H12342745   1.004   2.213   7.832 -0.3633 -0.6456  0.7533
  102MOL   H12442746   0.893   2.262   7.601 -1.8845 -1.1268 -0.9747
  102MOL   H12542747   0.920   2.116   7.420  2.7146 -2.9647 -1.7642
  102MOL   H12642748   0.633   1.737   7.251 -1.4989 -0.4298  0.4897
  102MOL   H12742749   0.678   1.884   7.178 -0.3724  2.3443  1.6664
  102MOL   C12842750   0.624   1.912   7.379 -0.5693  0.3602  0.1246
  102MOL   O12942751   0.623   1.835   7.494  0.0676 -0.7002  0.1727
  102MOL   C13042752   0.637   1.899   7.614  0.2923 -0.4543 -0.0710
  102MOL   O13142753   0.580   1.823   7.718 -0.4374  0.2456  0.1514
  102MOL   C13242754   0.597   1.873   7.844  0.5459  0.1713 -0.4722
  102MOL   C13342755   0.504   1.827   7.938  0.1778  0.1585 -0.7784
  102MOL   C13442756   0.499   1.880   0.097 -0.0763  0.5898 -0.3105
  102MOL   C13542757   0.595   1.979   0.141 -0.7972  0.4128  1.2812
  102MOL   C13642758   0.686   2.021   0.037  0.3243 -0.3224 -0.5197
  102MOL   C13742759   0.686   1.971   7.882  0.4659  0.4746 -0.4615
  102MOL   C13842760   0.476   1.941   7.350 -1.0915  0.1800  0.2238
  102MOL   H13942761   0.684   2.002   7.384  1.6591 -1.1055  0.5164
  102MOL   H14042762   0.595   2.000   7.620 -0.0041 -0.6674  1.6787
  102MOL   H14142763   0.744   1.917   7.605  0.4865 -1.4918  0.1288
  102MOL   H14242764   0.438   1.746   7.910 -0.6168  1.6965 -3.4419
  102MOL   H14342765   0.435   1.842   0.175 -0.7352  1.9115 -0.1854
  102MOL   H14442766   0.618   2.013   0.241 -1.2094  0.7419  1.2660
  102MOL   H14542767   0.762   2.092   0.066 -1.1799  0.6129  1.2383
  102MOL   H14642768   0.767   2.001   7.817  0.2856  2.6273  0.2638
  102MOL   H14742769   0.439   1.873   7.273  0.7422  0.7334 -1.2052
  102MOL   H14842770   0.419   1.938   7.443 -0.2872  1.2387  0.7627
  102MOL   C14942771   0.453   2.082   7.296 -0.4821 -0.1089 -0.6527
  102MOL   O15042772   0.464   2.083   7.156 -0.1068  0.1217  0.9321
  102MOL   C15142773   0.539   2.190   7.102  0.1046  0.3313 -0.7007
  102MOL   O15242774   0.673   2.203   7.144  0.7457  0.1281  0.1180
  102MOL   C15342775   0.763   2.150   7.059 -0.1314 -0.1957 -0.0239
  102MOL   C15442776   0.897   2.191   7.081 -0.1272 -0.4636  0.1311
  102MOL   C15542777   1.006   2.135   7.009 -0.5194  0.4779 -0.4878
  102MOL   C15642778   0.980   2.038   6.913 -0.2575  0.4446  0.1689
  102MOL   C15742779   0.845   2.000   6.888 -0.1791  0.1604  0.0578
  102MOL   C15842780   0.736   2.054   6.956  0.0244 -0.0276 -1.2857
  102MOL   C15942781   0.305   2.133   7.320 -0.3000 -0.2440 -0.2937
  102MOL   H16042782   0.526   2.149   7.340 -0.5218 -0.3402 -0.2297
  102MOL   H16142783   0.529   2.208   6.995  0.0096  0.3004 -0.6975
  102MOL   H16242784   0.489   2.281   7.135 -2.2563 -1.3888  0.7168
  102MOL   H16342785   0.914   2.270   7.152  0.5240 -0.4162 -0.0762
  102MOL   H16442786   1.108   2.168   7.017 -0.5148  0.1503  0.8128
  102MOL   H16542787   1.062   1.999   6.856 -0.2218 -0.2913  0.7178
  102MOL   H16642788   0.820   1.918   6.822  1.0545 -0.6742  0.6005
  102MOL   H16742789   0.640   2.008   6.941 -2.0413  3.3086  1.1351
  102MOL   H16842790   0.246   2.045   7.294 -1.1311 -0.5040  2.3129
  102MOL   H16942791   0.276   2.208   7.246  1.7916 -0.1768 -1.0710
  102MOL   C17042792   0.278   2.166   7.466 -0.3196  0.3024  0.2238
  102MOL   O17142793   0.296   2.312   7.487 -0.5680 -0.0088  0.2000
  102MOL   C17242794   0.428   2.355   7.515  0.1745  0.1792 -0.2090
  102MOL   O17342795   0.465   2.329   7.643  0.4628  0.5914 -0.4201
  102MOL   C17442796   0.585   2.379   7.687  0.1263  0.9915  0.1460
  102MOL   C17542797   0.657   2.479   7.622  0.5790  0.1777  0.0547
  102MOL   C17642798   0.771   2.537   7.685  0.4263 -0.1294  0.3491
  102MOL   C17742799   0.815   2.479   7.804 -0.6759 -0.4534 -0.0765
  102MOL   C17842800   0.750   2.370   7.865 -0.3193 -0.0313  0.2150
  102MOL   C17942801   0.633   2.323   7.805 -0.6595 -0.6790 -0.1807
  102MOL   C18042802   0.131   2.135   7.502  0.2567 -0.2572  0.2925
  102MOL   H18142803   0.344   2.106   7.528 -1.5589  0.7469  2.0049
  102MOL   H18242804   0.407   2.462   7.522 -0.1060  0.1086  0.0884
  102MOL   H18342805   0.500   2.329   7.439 -1.3269  2.1039 -2.3652
  102MOL   H18442806   0.630   2.516   7.525 -0.3423 -3.0980 -1.0126
  102MOL   H18542807   0.834   2.611   7.637 -1.5404  1.3616  0.0135
  102MOL   H18642808   0.905   2.522   7.845 -0.2808 -1.5731  0.2381
  102MOL   H18742809   0.799   2.330   7.953  3.0972  0.3072 -1.4486
  102MOL   H18842810   0.576   2.241   7.846 -1.2620  0.0498  0.4702
  102MOL   H18942811   0.102   2.195   7.589  0.4086  0.0364  0.1419
  102MOL   H19042812   0.061   2.172   7.426  1.3546  0.8189 -0.2069
  102MOL   C19142813   0.108   1.984   7.537 -0.8050 -0.8410  0.5107
  102MOL   O19242814   7.946   1.964   7.537  0.6387  0.0592  0.3394
  102MOL   C19342815   7.892   1.916   7.409 -0.0378  0.2534  0.4455
  102MOL   O19442816   7.912   1.778   7.388 -0.2458  0.1434  0.2873
  102MOL   C19542817   7.830   1.683   7.446  0.0425 -0.2496 -0.2965
  102MOL   C19642818   7.701   1.713   7.497  0.3953  0.5475 -0.8357
  102MOL   C19742819   7.616   1.617   7.564  0.4053 -0.2499  0.5171
  102MOL   C19842820   7.656   1.483   7.572 -0.0448 -0.3712 -0.8627
  102MOL   C19942821   7.779   1.446   7.517 -0.5717 -0.0345  0.0094
  102MOL   C20042822   7.862   1.545   7.450 -0.3164  0.0937  0.6509
  102MOL   C20142823   0.155   1.936   7.676 -1.0623  0.3603 -0.6856
  102MOL   H20242824   0.156   1.920   7.463  2.6475  3.1968 -0.9552
  102MOL   H20342825   7.938   1.969   7.327  1.6936 -0.2330  1.0793
  102MOL   H20442826   7.787   1.941   7.394  0.0890  0.0271 -0.8050
  102MOL   H20542827   7.678   1.818   7.504 -0.6073  0.2149  1.1671
  102MOL   H20642828   7.520   1.643   7.606  0.7370  0.3198  0.9191
  102MOL   H20742829   7.589   1.408   7.611  2.2234 -1.3601  1.2329
  102MOL   H20842830   7.809   1.343   7.528  0.8382  0.1670 -1.6750
  102MOL   H20942831   7.948   1.510   7.396 -0.8216 -1.6131  0.9112
  102MOL   H21042832   0.250   1.986   7.696 -1.9099  3.4552 -3.9138
  102MOL   H21142833   0.094   1.989   7.749  0.5220 -0.0169  0.9546
  102MOL   C21242834   0.166   1.785   7.699  0.2224  0.4843  0.0589
  102MOL   O21342835   0.307   1.756   7.682  0.5842 -0.2993 -0.4117
  102MOL   C21442836   0.340   1.666   7.584  0.1606 -0.3516  0.0133
  102MOL   O21542837   0.300   1.711   7.460 -0.2909  0.5262  0.4910
  102MOL   C21642838   0.291   1.626   7.351 -0.1213  0.1257  0.3427
  102MOL   C21742839   0.205   1.669   7.243  0.4493 -0.6893 -0.7514
  102MOL   C21842840   0.198   1.584   7.130 -0.1137 -0.3228 -0.5172
  102MOL   C21942841   0.260   1.460   7.124 -0.1535  0.5107 -0.5151
  102MOL   C22042842   0.348   1.421   7.231  0.3057  0.0495  0.4578
  102MOL   C22142843   0.365   1.507   7.341 -0.0579  0.0957  0.3251
  102MOL   C22242844   0.122   1.759   7.841  0.6659  0.5774  0.1501
  102MOL   H22342845   0.104   1.733   7.627 -1.3175  0.2900  1.5056
  102MOL   H22442846   0.287   1.571   7.596 -0.7516 -0.0114 -1.2060
  102MOL   H22542847   0.448   1.652   7.592  0.1162 -0.6643  0.1015
  102MOL   H22642848   0.143   1.758   7.237  0.2308 -0.9201 -2.1034
  102MOL   H22742849   0.138   1.617   7.047 -1.1008  0.9429  0.6886
  102MOL   H22842850   0.245   1.393   7.041  1.5830 -0.4596 -0.0647
  102MOL   H22942851   0.399   1.326   7.226  0.7749  0.2230  1.7022
  102MOL   H23042852   0.443   1.481   7.411  0.0503  0.1673  0.2297
  102MOL   H23142853   0.189   1.812   7.909  0.3172 -0.6217  1.4556
  102MOL   H23242854   0.018   1.793   7.843  0.3392 -0.3354 -0.7823
  102MOL   C23342855   0.106   1.605   7.889 -0.2875  0.3140  0.7147
  102MOL   O23442856   0.051   1.605   0.047 -0.2142  0.1950  0.4213
  102MOL   C23542857   0.113   1.686   0.143  0.5463 -0.4073 -0.3791
  102MOL   O23642858   0.253   1.658   0.151 -0.3129 -0.3194  0.6820
  102MOL   C23742859   0.293   1.538   0.209  0.0724 -0.2550 -0.7125
  102MOL   C23842860   0.435   1.523   0.234 -0.3411 -0.3101 -0.0206
  102MOL   C23942861   0.496   1.398   0.269 -0.1241 -0.0998  0.5638
  102MOL   C24042862   0.409   1.298   0.306 -0.1867 -0.1675 -1.0604
  102MOL   C24142863   0.267   1.312   0.302  0.2275  0.6760  0.2603
  102MOL   C24242864   0.211   1.432   0.251 -0.1461 -0.0525 -0.0377
  102MOL   C24342865   0.006   1.515   7.813  0.1273  0.0761  0.4713
  102MOL   H24442866   0.206   1.561   7.884 -0.4202  0.1518 -0.4703
  102MOL   H24542867   0.065   1.657   0.237  2.0584 -0.8057  0.2756
  102MOL   H24642868   0.091   1.792   0.130 -0.0547 -0.3959  0.6057
  102MOL   H24742869   0.505   1.600   0.207 -0.3243  0.0347  0.9607
  102MOL   H24842870   0.603   1.391   0.265 -0.1894 -0.4764 -0.6455
  102MOL   H24942871   0.436   1.198   0.336 -1.2305 -0.2999 -0.5215
  102MOL   H25042872   0.204   1.242   0.356  0.5275 -0.7500 -1.2106
  102MOL   H25142873   0.105   1.447   0.235  0.0012 -0.5606 -1.5710
  102MOL   H25242874   7.877   1.544   7.816 -0.2210 -1.2264  1.2599
  102MOL   H25342875   0.022   1.532   7.706 -0.5092  0.3700  0.4225
  102MOL   C25442876   0.032   1.362   7.823  0.2634  0.1578  0.3926
  102MOL   O25542877   0.164   1.339   7.771  0.1726 -0.5056  0.0590
  102MOL   C25642878   0.164   1.322   7.628  0.7000  0.1956 -0.3238
  102MOL   O25742879   0.082   1.222   7.582  0.1666  0.4682  0.3594
  102MOL   C25842880   0.127   1.094   7.589  1.0126  1.1888 -0.1039
  102MOL   C25942881   0.064   0.996   7.506 -0.6143 -0.1210  0.2591
  102MOL   C26042882   0.120   0.869   7.491  0.1914 -0.1059  0.0417
  102MOL   C26142883   0.221   0.821   7.572  0.1015  0.8761  0.1220
  102MOL   C26242884   0.279   0.914   7.664  0.0671 -0.3269 -0.1684
  102MOL   C26342885   0.230   1.046   7.676  0.3660  0.3766 -0.0499
  102MOL   C26442886   0.029   1.306   7.964 -0.1613  0.1840 -0.3626
  102MOL   H26542887   7.932   1.314   7.760 -0.4185  0.9614  0.5946
  102MOL   H26642888   0.267   1.298   7.605  0.3813 -1.0669 -0.4760
  102MOL   H26742889   0.133   1.412   7.574 -0.1395 -0.2284 -0.5611
  102MOL   H26842890   7.971   1.027   7.429 -0.9786  1.2641  1.1261
  102MOL   H26942891   0.077   0.803   7.418  1.9360 -3.9525  2.3557
  102MOL   H27042892   0.258   0.720   7.563  0.8721  1.2346 -0.8587
  102MOL   H27142893   0.362   0.884   7.726  0.1062  0.5355  0.1946
  102MOL   H27242894   0.278   1.108   7.751 -0.1952  1.6690 -0.7274
  102MOL   H27342895   0.123   1.345   0.029 -0.9313  2.4869 -0.7254
  102MOL   H27442896   7.920   1.355   0.037  0.6918  0.8681  0.4667
  102MOL   C27542897   0.019   1.150   7.967 -0.2504 -0.6596  1.2196
  102MOL   O27642898   0.091   1.094   0.102  0.3393  0.3788  0.4383
  102MOL   C27742899   0.208   1.036   0.070 -0.3053 -0.1608 -0.5008
  102MOL   O27842900   0.272   0.993   0.175  0.3410  0.1286 -0.4215
  102MOL   C27942901   0.401   0.968   0.169  0.1694  0.3417  0.5371
  102MOL   C28042902   0.473   0.950   0.053 -0.2884  0.4659  0.1185
  102MOL   C28142903   0.608   0.919   0.058 -0.1061 -0.6584  0.7980
  102MOL   C28242904   0.678   0.915   0.174  0.6037  0.0805  0.0568
  102MOL   C28342905   0.608   0.932   0.295 -0.3690  0.6631  0.7246
  102MOL   C28442906   0.471   0.961   0.289  0.0994 -0.2605 -0.3314
  102MOL   C28542907   7.844   1.118   7.970  0.0722 -0.2650  1.2766
  102MOL   H28642908   0.056   1.113   7.871 -2.8896  1.1203 -0.5480
  102MOL   H28742909   0.263   1.119   0.026 -0.1141  0.7633  1.4551
  102MOL   H28842910   0.192   0.948   0.007 -0.9287 -0.3125 -0.1355
  102MOL   H28942911   0.428   0.956   7.930  2.3207  1.1017 -1.1060
  102MOL   H29042912   0.662   0.902   7.941  0.2364 -3.1550  1.4263
  102MOL   H29142913   0.774   0.869   0.189  0.5104 -0.7177 -1.6779
  102MOL   H29242914   0.659   0.907   0.387  2.5558  1.1099 -0.7282
  102MOL   H29342915   0.423   0.969   0.386 -0.3757 -0.3513 -0.5552
  102MOL   H29442916   7.785   1.186   7.910  2.6669  1.9363  1.1755
  102MOL   H29542917   7.813   1.137   0.098 -1.0947 -0.3721  0.9588
  102MOL   C29642918   7.801   0.982   7.914  0.2239 -0.1370 -0.0572
  102MOL   O29742919   7.780   0.900   0.054  0.5807  0.0646 -0.2943
  102MOL   C29842920   7.885   0.816   0.098 -0.4525 -1.1391 -0.6145
  102MOL   O29942921   7.930   0.730   0.005  0.3425 -0.0235 -0.5265
  102MOL   C30042922   0.085   0.683   0.018  0.0492  0.0238  0.3898
  102MOL   C30142923   0.156   0.641   7.879  1.0324 -0.1474 -0.1032
  102MOL   C30242924   0.285   0.589   7.892  0.6711 -0.0759 -0.6955
  102MOL   C30342925   0.351   0.579   0.038  0.5942  0.9245 -0.5586
  102MOL   C30442926   0.283   0.615   0.152 -0.0905  0.6058 -0.0618
  102MOL   C30542927   0.151   0.669   0.146 -0.5248 -0.3658  0.2402
  102MOL   C30642928   7.663   0.999   7.846  0.2330 -0.5181  0.1011
  102MOL   H30742929   7.875   0.943   7.845  0.7314 -0.9895  0.9504
  102MOL   H30842930   7.837   0.769   0.184 -3.0576  1.8818 -0.3453
  102MOL   H30942931   7.961   0.884   0.137 -2.1361  2.0860 -2.7545
  102MOL   H31042932   0.117   0.652   7.779  0.9542 -0.3228 -0.0910
  102MOL   H31142933   0.339   0.568   7.801  1.1908 -2.3446  0.0903
  102MOL   H31242934   0.453   0.545   0.037  0.5212  0.6534  0.6067
  102MOL   H31342935   0.330   0.626   0.249  0.7229  0.0021 -0.3823
  102MOL   H31442936   0.111   0.694   0.244 -0.2232 -0.2739  0.3411
  102MOL   H31542937   7.661   1.080   7.773 -0.1411  0.2362  0.9404
  102MOL   H31642938   7.586   1.014   7.921 -0.0329  2.1929 -0.6501
  102MOL   C31742939   7.619   0.869   7.774  0.2761 -0.1645 -0.2527
  102MOL   O31842940   7.734   0.858   7.686  0.0803  0.2390  0.0411
  102MOL   C31942941   7.778   0.729   7.679  0.0155 -0.2205  0.4418
  102MOL   O32042942   7.704   0.641   7.604 -0.1289 -0.2493 -0.7670
  102MOL   C32142943   7.702   0.660   7.466  0.2846  0.6832  0.2288
  102MOL   C32242944   7.643   0.553   7.400  0.0242  0.7789  0.3592
  102MOL   C32342945   7.637   0.561   7.256  0.3560  0.2964 -0.1984
  102MOL   C32442946   7.680   0.674   7.179 -0.7222  0.7221  0.2761
  102MOL   C32542947   7.741   0.776   7.254 -0.3089 -0.6532 -0.0240
  102MOL   C32642948   7.750   0.770   7.395  0.4866 -1.0256  0.4615
  102MOL   C32742949   7.507   0.892   7.681  0.4666 -0.4153  0.7197
  102MOL   H32842950   7.621   0.784   7.842  0.6591 -0.4314 -0.5906
  102MOL   H32942951   7.801   0.698   7.781 -1.4132 -0.2139  0.7683
  102MOL   H33042952   7.878   0.742   7.637 -1.0072  0.5828 -1.8111
  102MOL   H33142953   7.612   0.470   7.462  0.9748  0.4479  0.4041
  102MOL   H33242954   7.585   0.485   7.199  0.8829  0.2665 -0.6376
  102MOL   H33342955   7.671   0.674   7.071  1.7556 -0.6198  0.0382
  102MOL   H33442956   7.793   0.862   7.214  1.5325 -1.8313 -0.1849
  102MOL   H33542957   7.783   0.860   7.444 -2.5392  0.6395 -0.4334
  102MOL   H33642958   7.506   0.991   7.635  0.2939  0.2328  2.0960
  102MOL   H33742959   7.519   0.823   7.597 -1.7289  1.4128 -1.1795
  102MOL   C33842960   7.364   0.855   7.752  0.1280  0.5878 -0.2414
  102MOL   O33942961   7.266   0.891   7.664 -0.1638 -0.4027 -0.0081
  102MOL   C34042962   7.232   1.033   7.677 -0.1149 -0.4715  0.1648
  102MOL   O34142963   7.199   1.067   7.807  0.0838 -0.1182 -0.7004
  102MOL   C34242964   7.071   1.056   7.849  0.2806 -0.0765 -0.1520
  102MOL   C34342965   7.019   1.149   7.946  0.4912  0.1139  0.6032
  102MOL   C34442966   6.893   1.122   0.026 -0.0386  0.5357  0.6176
  102MOL   C34542967   6.820   1.014   7.955  0.0000 -0.0320  0.3059
  102MOL   C34642968   6.860   0.935   7.846  0.5573  0.0088 -0.1632
  102MOL   C34742969   6.989   0.953   7.798  0.3097  0.2541  0.2470
  102MOL   C34842970   7.344   0.711   7.778 -0.9889 -0.7204  0.2587
  102MOL   H34942971   7.373   0.914   7.843 -0.8015  0.3035  0.0353
  102MOL   H35042972   7.152   1.053   7.606  0.8606  0.1481 -0.7842
  102MOL   H35142973   7.314   1.090   7.633 -0.1394 -1.1769 -0.8216
  102MOL   H35242974   7.086   1.230   7.973  1.4492  0.0154 -1.4419
  102MOL   H35342975   6.850   1.188   0.099  1.1373  0.0746  1.7476
  102MOL   H35442976   6.721   0.998   0.019  0.4677 -3.5135  0.1488
  102MOL   H35542977   6.802   0.852   7.809  1.4025 -0.7556  0.1813
  102MOL   H35642978   7.029   0.880   7.729 -1.0425  0.0308 -0.3018
  102MOL   H35742979   7.432   0.654   7.810 -0.9713 -0.5869  0.4502
  102MOL   H35842980   7.329   0.673   7.677  1.0392 -0.7036 -0.0891
  102MOL   C35942981   7.228   0.684   7.882 -0.1087  0.4362  0.1507
  102MOL   O36042982   7.270   0.731   0.036  0.1122  0.9032 -0.5414
  102MOL   C36142983   7.173   0.780   0.121  0.4628  0.3351 -0.1400
  102MOL   O36242984   7.089   0.682   0.162 -0.7140  0.4936  0.0159
  102MOL   C36342985   6.991   0.713   0.246  0.2195  0.2354  0.7222
  102MOL   C36442986   6.908   0.612   0.289 -0.3087  0.2152 -0.0615
  102MOL   C36542987   6.811   0.627   0.390 -0.6331  0.1966  0.1804
  102MOL   C36642988   6.797   0.763   0.440  0.3091 -0.1369 -0.2992
  102MOL   C36742989   6.859   0.868   0.381 -0.0604 -0.0558 -0.4720
  102MOL   C36842990   6.956   0.847   0.278  0.5450 -0.2970  0.4650
  102MOL   C36942991   7.195   0.532   7.867 -0.4285  0.5421 -0.0277
  102MOL   H37042992   7.136   0.736   7.857 -1.4285 -1.3588  1.1570
  102MOL   H37142993   7.123   0.864   0.072 -2.1004 -0.3930  1.1248
  102MOL   H37242994   7.230   0.815   0.206 -0.6849  0.6507  0.5164
  102MOL   H37342995   6.923   0.511   0.253 -2.8355  0.0299 -0.6908
  102MOL   H37442996   6.761   0.542   0.433  1.9919 -2.1417 -1.2504
  102MOL   H37542997   6.735   0.777   0.527 -2.9867  1.3401 -2.7649
  102MOL   H37642998   6.862   0.969   0.421  0.5620  0.0539 -0.8011
  102MOL   H37742999   7.005   0.935   0.237  1.5378 -0.7864  0.5936
  102MOL   H37843000   7.248   0.484   7.949 -1.3473 -0.5225 -0.0418
  102MOL   H37943001   7.232   0.479   7.779 -1.1926 -2.0185  1.1583
  102MOL   C38043002   7.047   0.490   7.881 -0.3941 -0.0321 -0.2208
  102MOL   O38143003   7.047   0.344   7.875 -0.0096  0.1468 -0.3566
  102MOL   C38243004   7.057   0.275   0.016 -0.2271 -1.1708 -0.1799
  102MOL   O38343005   6.935   0.245   0.063 -0.3188 -0.6551 -0.4333
  102MOL   C38443006   6.930   0.179   0.182 -0.3922  1.1116  0.3606
  102MOL   C38543007   7.037   0.102   0.236 -0.0634 -0.4094 -0.1262
  102MOL   C38643008   7.014   0.025   0.352  0.6609  0.0626 -0.0635
  102MOL   C38743009   6.888   0.040   0.416 -0.3518  0.7741  0.6075
  102MOL   C38843010   6.789   0.125   0.370 -0.3145 -0.1272 -0.0177
  102MOL   C38943011   6.810   0.187   0.251 -0.3515  0.7764 -0.2164
  102MOL   C39043012   6.953   0.546   7.775 -0.4365 -0.5670 -0.0966
  102MOL   H39143013   7.012   0.526   0.002  1.7124  1.1972  0.1066
  102MOL   H39243014   7.100   0.180   7.960 -1.1314 -1.1701 -1.4607
  102MOL   H39343015   7.115   0.314   0.100  0.6835 -0.1591 -1.2640
  102MOL   H39443016   7.134   0.099   0.188  0.4686 -1.7375  1.0219
  102MOL   H39543017   7.095   7.947   0.399  0.3867 -1.5423 -1.3469
  102MOL   H39643018   6.869   7.957   0.505  0.5006 -0.5677 -0.0895
  102MOL   H39743019   6.697   0.124   0.426  0.6285  1.0891  1.6047
  102MOL   H39843020   6.727   0.245   0.212  0.4117  0.4183 -2.4231
  102MOL   H39943021   6.989   0.523   7.675 -0.6197 -0.5900 -0.1572
  102MOL   H40043022   6.953   0.655   7.773 -1.3142 -0.5410  0.9477
  102MOL   C40143023   6.807   0.507   7.797  0.6268  0.5762 -0.1768
  102MOL   O40243024   6.778   0.547   7.930  0.6030 -0.3434 -0.4580
  102MOL   C40343025   6.691   0.458   0.024  0.1257 -0.2792 -0.6613
  102MOL   O40443026   6.555   0.480   0.002  0.0719  0.3003 -0.0346
  102MOL   C40543027   6.493   0.574   0.085 -0.2224 -1.0951 -0.2638
  102MOL   C40643028   6.360   0.550   0.120  0.4764 -0.1256  0.2842
  102MOL   C40743029   6.299   0.642   0.207  0.5094 -0.3600  0.1741
  102MOL   C40843030   6.376   0.751   0.254 -1.1476  0.4060 -0.0172
  102MOL   C40943031   6.509   0.777   0.217 -0.8872 -0.0850 -0.4840
  102MOL   C41043032   6.571   0.685   0.135 -0.2354  0.6382 -0.1343
  102MOL   C41143033   6.711   0.578   7.695 -0.1652  0.3036 -0.5823
  102MOL   H41243034   6.799   0.399   7.785  0.2290  0.9098 -3.4526
  102MOL   H41343035   6.725   0.459   0.128 -0.6914 -1.4505 -0.3752
  102MOL   H41443036   6.705   0.356   7.962 -2.0395 -0.1770 -1.8386
  102MOL   H41543037   6.312   0.463   0.077 -0.9197  0.2288  1.0874
  102MOL   H41643038   6.198   0.614   0.234  0.5950 -0.3933  0.4593
  102MOL   H41743039   6.321   0.814   0.322  0.2431  1.0294  0.5374
  102MOL   H41843040   6.563   0.864   0.250  0.1835 -0.1201 -2.0944
  102MOL   H41943041   6.672   0.707   0.106  0.7095  0.7606  3.0190
  102MOL   H42043042   6.731   0.551   7.592  0.5731  4.6657 -1.6589
  102MOL   H42143043   6.719   0.686   7.696 -0.4923  0.3268 -0.4828
  102MOL   H42243044   6.611   0.551   7.730  0.6046  1.8317  3.1131
  103MOL     C143045   5.171   4.899   6.265 -0.1001  0.5606  0.3035
  103MOL     O243046   5.106   4.788   6.196  1.3093 -0.1252  0.4212
  103MOL     C343047   5.155   4.654   6.211  0.5637  0.5673  0.1042
  103MOL     O443048   5.114   4.590   6.332 -0.4639  0.3605  0.3289
  103MOL     C543049   4.982   4.546   6.344  0.7127  0.1100  0.4467
  103MOL     C643050   4.883   4.577   6.248  0.6794 -0.5255  1.1388
  103MOL     C743051   4.756   4.522   6.258  0.3917 -0.7006  0.1560
  103MOL     C843052   4.719   4.433   6.360  0.0060  0.1651 -0.4883
  103MOL     C943053   4.823   4.389   6.449  0.6586 -0.4525 -0.1124
  103MOL    C1043054   4.946   4.455   6.443  0.2631  0.5469 -0.5348
  103MOL    C1143055   5.083   5.023   6.242  0.2285  0.0249  0.1099
  103MOL    H1243056   5.184   4.887   6.373 -0.5669  3.1440  0.6970
  103MOL    H1343057   5.133   4.587   6.128  0.5055 -0.7590  1.1805
  103MOL    H1443058   5.263   4.672   6.211  0.4032  1.5540 -0.0842
  103MOL    H1543059   4.901   4.654   6.174 -2.4046 -0.8399  0.0138
  103MOL    H1643060   4.680   4.563   6.193 -0.1057  0.5530  1.4898
  103MOL    H1743061   4.615   4.402   6.356  0.1147 -0.3647  0.6259
  103MOL    H1843062   4.794   4.317   6.524 -0.9737 -0.3525 -0.6213
  103MOL    H1943063   5.028   4.416   6.503 -0.3468 -2.0987 -1.3296
  103MOL    H2043064   5.051   5.028   6.138  1.0883 -1.5550 -0.2429
  103MOL    H2143065   5.140   5.115   6.248  2.3678 -1.2909  0.3062
  103MOL    H2243066   5.276   4.914   6.240  0.3946 -2.6190  0.3073
  103MOL    C2343067   4.969   5.020   6.357 -0.1205 -0.2493 -1.2194
  103MOL    O2443068   4.853   5.074   6.291 -0.2602 -0.3318 -0.5982
  103MOL    C2543069   4.757   4.977   6.242 -0.5858  0.4056 -0.1242
  103MOL    O2643070   4.654   4.959   6.323 -0.7979 -0.0260  0.0738
  103MOL    C2743071   4.561   5.058   6.317  0.0046  0.0867  0.0923
  103MOL    C2843072   4.591   5.193   6.294  0.8086 -0.3504  0.2251
  103MOL    C2943073   4.486   5.283   6.294  0.0483  0.0752 -0.1650
  103MOL    C3043074   4.348   5.244   6.299 -0.1120  0.0439 -0.2754
  103MOL    C3143075   4.325   5.103   6.322  0.1771 -0.3483 -0.1286
  103MOL    C3243076   4.431   5.018   6.339 -0.7127 -0.1185  0.2532
  103MOL    C3343077   5.000   5.087   6.489 -1.2740 -0.2421  0.6043
  103MOL    H3443078   4.947   4.917   6.384 -1.7017  0.5292  0.6010
  103MOL    H3543079   4.809   4.882   6.226  1.3852  1.4243  0.0338
  103MOL    H3643080   4.722   4.999   6.141 -1.3609 -0.9991 -0.1752
  103MOL    H3743081   4.690   5.236   6.293  0.4408  0.4755 -1.3273
  103MOL    H3843082   4.500   5.390   6.292  2.8421 -0.2388  0.9456
  103MOL    H3943083   4.268   5.316   6.291 -0.7942 -0.6887 -0.0733
  103MOL    H4043084   4.227   5.058   6.334  0.8280 -1.2170  2.2003
  103MOL    H4143085   4.405   4.919   6.372 -0.6287  0.8144  3.3100
  103MOL    H4243086   5.002   5.195   6.477  1.0528  0.1620  3.9021
  103MOL    H4343087   5.104   5.073   6.518  0.3197  2.2892 -3.5532
  103MOL    C4443088   4.903   5.065   6.611 -0.4400  0.1497  1.0973
  103MOL    O4543089   4.818   5.182   6.614 -0.2694  0.4505 -0.1209
  103MOL    C4643090   4.688   5.157   6.646  0.0651  0.1901  0.2900
  103MOL    O4743091   4.599   5.263   6.648  0.1830 -0.1514  0.0290
  103MOL    C4843092   4.605   5.352   6.755 -0.2528 -0.1227 -0.2805
  103MOL    C4943093   4.704   5.344   6.859 -0.1992 -0.0764  0.0726
  103MOL    C5043094   4.697   5.427   6.967 -0.5430  0.2056 -1.0358
  103MOL    C5143095   4.602   5.533   6.977  0.6362 -0.2621  0.3031
  103MOL    C5243096   4.503   5.549   6.874  0.0796  0.0515 -0.4933
  103MOL    C5343097   4.511   5.457   6.766  0.7070 -0.2951  0.3070
  103MOL    C5443098   4.965   5.044   6.749  0.6748  0.3897  0.5595
  103MOL    H5543099   4.851   4.972   6.591 -0.6459  0.2975  0.9465
  103MOL    H5643100   4.670   5.097   6.736 -1.2481  1.2016  0.7159
  103MOL    H5743101   4.653   5.083   6.573 -1.3754 -0.1338  1.2931
  103MOL    H5843102   4.783   5.271   6.850  1.6874  2.0414 -0.7998
  103MOL    H5943103   4.775   5.432   7.042  0.9960 -0.4906 -2.5502
  103MOL    H6043104   4.604   5.595   7.066 -2.6411 -2.5721  2.0623
  103MOL    H6143105   4.434   5.632   6.879  1.0726  0.8200  0.6464
  103MOL    H6243106   4.436   5.466   6.688 -1.0797 -1.3863  1.8377
  103MOL    H6343107   5.042   5.121   6.753  1.4707 -0.3762  0.0452
  103MOL    H6443108   4.898   5.080   6.828 -0.5125 -3.3488  1.3534
  103MOL    C6543109   5.027   4.903   6.780 -0.2069 -0.4502  0.2199
  103MOL    O6643110   5.114   4.858   6.669  0.2352  0.0595  0.0120
  103MOL    C6743111   5.101   4.722   6.634 -0.2785 -0.4072 -0.4770
  103MOL    O6843112   5.167   4.634   6.724 -0.2927  0.2326 -0.1644
  103MOL    C6943113   5.308   4.639   6.725 -0.1037  0.8973  0.1849
  103MOL    C7043114   5.367   4.583   6.841 -0.0618 -0.3049 -0.1063
  103MOL    C7143115   5.507   4.601   6.856  0.2208  0.3990  0.0166
  103MOL    C7243116   5.590   4.664   6.765 -0.4694 -0.5797  0.4545
  103MOL    C7343117   5.535   4.715   6.646 -0.1711 -0.9488 -0.2184
  103MOL    C7443118   5.394   4.697   6.624  0.1569  0.0828 -0.5680
  103MOL    C7543119   5.105   4.896   6.915  0.3135 -0.2984  0.0064
  103MOL    H7643120   4.938   4.844   6.799 -1.4928  1.6662  0.9679
  103MOL    H7743121   5.147   4.707   6.536  0.1048  1.6802 -0.6278
  103MOL    H7843122   4.995   4.698   6.623 -0.6471  0.9997 -0.0211
  103MOL    H7943123   5.302   4.530   6.909  0.6817 -1.4505 -0.2681
  103MOL    H8043124   5.565   4.577   6.944  2.2786  0.9880 -1.1334
  103MOL    H8143125   5.695   4.685   6.782 -0.6482  0.9039 -0.2051
  103MOL    H8243126   5.597   4.785   6.591 -0.8517 -1.1784 -1.2932
  103MOL    H8343127   5.356   4.735   6.530  1.9800 -0.5472 -1.5966
  103MOL    H8443128   5.137   4.797   6.948  2.3717 -0.2550 -1.6631
  103MOL    H8543129   5.196   4.953   6.897  0.5095 -0.3105  0.9351
  103MOL    C8643130   5.037   4.965   7.044 -0.1788 -0.4452 -0.6004
  103MOL    O8743131   4.940   4.869   7.085 -0.6090 -0.3891  0.2348
  103MOL    C8843132   4.814   4.921   7.111 -0.3763  0.3996 -0.4352
  103MOL    O8943133   4.811   4.958   7.248  0.5484  0.4030 -0.1154
  103MOL    C9043134   4.737   5.060   7.298 -0.2481 -0.4608  0.2188
  103MOL    C9143135   4.711   5.179   7.217 -0.3375  0.3964  0.2520
  103MOL    C9243136   4.623   5.275   7.259 -0.3202 -0.2915 -0.1369
  103MOL    C9343137   4.558   5.262   7.382 -0.1739  0.0967  0.0520
  103MOL    C9443138   4.591   5.155   7.464 -0.3453 -0.3614 -0.6759
  103MOL    C9543139   4.681   5.054   7.423  0.0569  0.2205 -0.0944
  103MOL    C9643140   5.132   4.973   7.161 -0.1866 -0.4276  0.7303
  103MOL    H9743141   4.991   5.064   7.035  0.1804  0.1402  3.0587
  103MOL    H9843142   4.745   4.838   7.101  0.2677 -0.5614  2.5704
  103MOL    H9943143   4.772   4.993   7.041 -1.1736 -0.1003 -0.4767
  103MOL   H10043144   4.753   5.187   7.117 -1.3948 -3.0571 -0.5314
  103MOL   H10143145   4.599   5.366   7.206  1.5105  1.7494  2.4359
  103MOL   H10243146   4.488   5.336   7.419  0.2730 -0.7033  2.6221
  103MOL   H10343147   4.551   5.160   7.564  0.6907 -1.7664 -0.1736
  103MOL   H10443148   4.705   4.976   7.494  1.1435 -0.1487 -0.8474
  103MOL   H10543149   5.081   4.983   7.257  4.3517  0.8880  3.1455
  103MOL   H10643150   5.178   4.876   7.179  2.0088  0.0123 -2.1816
  103MOL   C10743151   5.236   5.084   7.142  0.0749 -0.2634 -0.1534
  103MOL   O10843152   5.166   5.205   7.127  0.0264 -0.3870  0.3872
  103MOL   C10943153   5.227   5.303   7.047  0.0349 -0.4203 -0.0579
  103MOL   O11043154   5.195   5.288   6.911 -0.1231 -0.0869  0.6689
  103MOL   C11143155   5.235   5.389   6.824  0.5190 -0.5945 -0.6230
  103MOL   C11243156   5.196   5.378   6.686 -0.0525  0.6324  0.2573
  103MOL   C11343157   5.237   5.479   6.591  0.1208  0.0987  0.2366
  103MOL   C11443158   5.316   5.584   6.633 -0.3232 -0.0822  0.1498
  103MOL   C11543159   5.350   5.603   6.768  0.1782 -0.2444 -0.2501
  103MOL   C11643160   5.318   5.501   6.865 -0.1338  0.1780 -0.0777
  103MOL   C11743161   5.328   5.090   7.261 -0.6546  0.2933 -0.5319
  103MOL   H11843162   5.295   5.071   7.051 -1.3973  0.3656 -1.2215
  103MOL   H11943163   5.334   5.290   7.060 -0.0394 -1.1751 -0.1541
  103MOL   H12043164   5.204   5.397   7.097 -1.0025 -0.1919 -0.9425
  103MOL   H12143165   5.142   5.293   6.646  0.5075  0.7532 -0.7934
  103MOL   H12243166   5.215   5.469   6.485 -1.8492 -1.2815  0.7509
  103MOL   H12343167   5.344   5.653   6.555  2.2167 -0.6955  0.4958
  103MOL   H12443168   5.413   5.687   6.791 -1.2821  0.7188  0.2558
  103MOL   H12543169   5.349   5.510   6.968  2.7807 -0.1410 -0.8990
  103MOL   H12643170   5.281   5.120   7.355 -1.3184 -0.7331 -0.5346
  103MOL   H12743171   5.399   5.171   7.239 -0.8019  0.2419 -1.2042
  103MOL   C12843172   5.429   4.974   7.260  0.8136  0.2258 -0.3014
  103MOL   O12943173   5.377   4.858   7.328 -0.0193 -0.6240 -0.2116
  103MOL   C13043174   5.377   4.734   7.266 -0.0832  1.1943 -0.8366
  103MOL   O13143175   5.503   4.674   7.290 -0.2893  0.2824 -0.0621
  103MOL   C13243176   5.514   4.545   7.246  0.7609 -0.1404 -0.0548
  103MOL   C13343177   5.647   4.502   7.251 -0.9531  0.3103 -0.2311
  103MOL   C13443178   5.681   4.377   7.203 -0.1621  0.2288  0.6227
  103MOL   C13543179   5.587   4.291   7.143 -0.1453 -0.2237  0.7280
  103MOL   C13643180   5.454   4.335   7.135 -0.1487  0.2437  0.2600
  103MOL   C13743181   5.417   4.463   7.186  0.0624 -0.0426  0.3995
  103MOL   C13843182   5.558   5.018   7.333  0.3279  0.2226 -0.1474
  103MOL   H13943183   5.464   4.946   7.161 -0.4426 -0.9695 -0.4291
  103MOL   H14043184   5.364   4.753   7.160 -1.0075 -1.2483 -1.1924
  103MOL   H14143185   5.316   4.658   7.316  0.4727  1.6785  0.6030
  103MOL   H14243186   5.730   4.567   7.274 -0.9808  0.1936  0.1978
  103MOL   H14343187   5.785   4.346   7.206  0.7199  2.9085 -0.6538
  103MOL   H14443188   5.620   4.198   7.099  1.7351  1.2451 -1.0911
  103MOL   H14543189   5.379   4.280   7.081  1.0701  1.9883 -3.3375
  103MOL   H14643190   5.319   4.495   7.155  0.2531 -0.9953 -1.2572
  103MOL   H14743191   5.544   5.062   7.432 -1.1184  1.8340 -1.0198
  103MOL   H14843192   5.600   4.926   7.372 -2.1675 -0.3882  1.2123
  103MOL   C14943193   5.660   5.089   7.244 -0.4344  0.0669 -0.1854
  103MOL   O15043194   5.646   5.234   7.264 -0.3209 -0.0234  0.2318
  103MOL   C15143195   5.681   5.320   7.156  0.0106  0.3327 -0.4516
  103MOL   O15243196   5.620   5.445   7.174 -0.2953  0.4852 -0.2072
  103MOL   C15343197   5.649   5.547   7.086  0.6860  0.0960  0.2909
  103MOL   C15443198   5.606   5.684   7.114  0.1015  0.2579 -0.1091
  103MOL   C15543199   5.635   5.785   7.018  0.4135  0.5072  0.3100
  103MOL   C15643200   5.694   5.759   6.895  0.2558  0.1888 -0.4900
  103MOL   C15743201   5.735   5.627   6.873  0.5015  0.0735 -0.0372
  103MOL   C15843202   5.719   5.527   6.966 -0.0352  0.7291  0.2842
  103MOL   C15943203   5.801   5.039   7.287  0.4890  0.0920 -0.4696
  103MOL   H16043204   5.641   5.064   7.139  0.5710  2.8778 -1.0681
  103MOL   H16143205   5.788   5.340   7.161 -0.2245  1.4933  0.0577
  103MOL   H16243206   5.655   5.270   7.063 -2.8633 -3.1560  2.0589
  103MOL   H16343207   5.564   5.707   7.211 -0.7754 -4.5422  0.7808
  103MOL   H16443208   5.610   5.889   7.036  2.0432  1.0011 -0.2094
  103MOL   H16543209   5.696   5.835   6.818  1.0821 -2.0664 -2.7283
  103MOL   H16643210   5.776   5.597   6.778 -0.0855 -1.6110  0.2250
  103MOL   H16743211   5.754   5.430   6.932  0.8742  1.9941 -2.5083
  103MOL   H16843212   5.805   5.041   7.395 -1.3938 -1.7931 -0.3139
  103MOL   H16943213   5.877   5.115   7.268  1.4094 -0.2894  1.6018
  103MOL   C17043214   5.828   4.905   7.216  0.7510  0.4701 -0.3643
  103MOL   O17143215   5.864   4.943   7.086  0.1305  0.0738 -0.3264
  103MOL   C17243216   5.808   4.868   6.985 -0.2235 -0.0275  0.1002
  103MOL   O17343217   5.670   4.875   6.964 -0.6941 -0.6306 -0.0538
  103MOL   C17443218   5.623   4.975   6.886  0.3194 -0.1748 -0.6109
  103MOL   C17543219   5.696   5.092   6.853 -0.3686  1.1341  0.3223
  103MOL   C17643220   5.635   5.202   6.784  0.0713 -0.3751  0.4673
  103MOL   C17743221   5.501   5.192   6.747  0.5422  0.4873 -0.3483
  103MOL   C17843222   5.425   5.074   6.770  0.6049  0.1863 -0.0295
  103MOL   C17943223   5.491   4.971   6.845 -0.5989 -0.4141 -0.5017
  103MOL   C18043224   5.950   4.840   7.298  0.7899 -0.4053  0.1117
  103MOL   H18143225   5.748   4.831   7.214  0.5376  0.6486  0.9485
  103MOL   H18243226   5.842   4.765   6.992 -1.4937 -0.4188  0.5758
  103MOL   H18343227   5.851   4.886   6.887 -1.7008  1.4223 -0.3030
  103MOL   H18443228   5.801   5.094   6.882 -0.2794 -1.5126  0.3810
  103MOL   H18543229   5.693   5.292   6.770 -2.1301  0.9816 -0.1607
  103MOL   H18643230   5.454   5.282   6.712 -0.9676  0.6103  1.9282
  103MOL   H18743231   5.321   5.060   6.743  0.4611  2.7659 -0.9258
  103MOL   H18843232   5.440   4.880   6.870  1.0355 -1.1700  0.1303
  103MOL   H18943233   6.018   4.919   7.332  0.0351  1.2898 -2.2268
  103MOL   H19043234   5.912   4.795   7.390 -0.1757  2.7788  1.3627
  103MOL   C19143235   6.042   4.741   7.228 -0.1787  0.0932  0.6819
  103MOL   O19243236   6.133   4.690   7.317  0.1493 -0.5138  0.4133
  103MOL   C19343237   6.091   4.572   7.370 -0.3715 -0.2706 -0.6815
  103MOL   O19443238   6.115   4.462   7.291  0.3114 -0.0978  0.0556
  103MOL   C19543239   6.252   4.442   7.269 -0.1097 -0.0261 -0.5902
  103MOL   C19643240   6.280   4.337   7.177  0.0241 -0.2132  0.8489
  103MOL   C19743241   6.412   4.314   7.135 -0.3024  0.0486 -0.7951
  103MOL   C19843242   6.520   4.389   7.191  0.1208 -0.0032 -0.4252
  103MOL   C19943243   6.493   4.485   7.292 -0.6831  0.3368  0.1142
  103MOL   C20043244   6.359   4.515   7.318 -0.4874 -0.4233  0.1838
  103MOL   C20143245   6.134   4.803   7.114 -0.1770 -0.7916 -0.1075
  103MOL   H20243246   5.973   4.665   7.190 -1.1178  0.9257  0.7209
  103MOL   H20343247   5.983   4.574   7.386 -0.4332 -1.2642 -0.9105
  103MOL   H20443248   6.145   4.562   7.464  0.1404  2.1224 -0.7033
  103MOL   H20543249   6.198   4.282   7.133  1.2582 -0.2431 -1.5438
  103MOL   H20643250   6.418   4.247   7.050 -1.1839 -0.5145 -0.4103
  103MOL   H20743251   6.619   4.371   7.150 -0.0004  0.0469 -0.7376
  103MOL   H20843252   6.575   4.545   7.329 -0.6363 -0.0382  0.6246
  103MOL   H20943253   6.355   4.607   7.373 -0.7961  0.0190 -0.5770
  103MOL   H21043254   6.088   4.884   7.058 -1.5697 -0.4669  1.4832
  103MOL   H21143255   6.220   4.853   7.158  0.1379  0.5930 -2.1969
  103MOL   C21243256   6.193   4.703   7.017  0.6060 -0.2331 -0.0957
  103MOL   O21343257   6.088   4.659   6.936 -0.3998  0.1327  0.8069
  103MOL   C21443258   6.044   4.529   6.946 -0.1784 -0.2721 -0.0131
  103MOL   O21543259   5.913   4.517   6.910 -0.0147 -0.4855 -0.3166
  103MOL   C21643260   5.884   4.498   6.777 -0.0219 -0.2436 -0.2484
  103MOL   C21743261   5.810   4.390   6.739  0.1020  0.2622  0.6534
  103MOL   C21843262   5.770   4.374   6.608 -0.3941  0.7510  0.7563
  103MOL   C21943263   5.809   4.462   6.504 -0.2023 -0.1150 -0.0973
  103MOL   C22043264   5.890   4.567   6.536 -0.5898 -0.1260 -0.2496
  103MOL   C22143265   5.931   4.583   6.672  0.4459 -0.8194  0.1155
  103MOL   C22243266   6.296   4.779   6.925  0.1374  0.0299 -0.0830
  103MOL   H22343267   6.235   4.618   7.070 -0.3341 -1.3974 -1.1814
  103MOL   H22443268   6.047   4.500   7.051 -0.3506 -1.1038 -0.2290
  103MOL   H22543269   6.105   4.465   6.883  1.8391  1.8044 -0.2150
  103MOL   H22643270   5.777   4.317   6.811  0.2366  0.3707  0.8287
  103MOL   H22743271   5.714   4.286   6.582  1.6936 -0.0518 -1.1976
  103MOL   H22843272   5.773   4.441   6.405  0.4058 -0.3999 -0.2639
  103MOL   H22943273   5.929   4.623   6.452 -1.6930  1.7228  0.4307
  103MOL   H23043274   5.997   4.666   6.693  0.5717 -0.8520 -0.1563
  103MOL   H23143275   6.238   4.849   6.865 -1.7568 -1.4450 -0.0176
  103MOL   H23243276   6.359   4.838   6.991  2.6039 -1.4910 -1.0223
  103MOL   C23343277   6.381   4.697   6.830 -0.5195  0.5434 -0.6510
  103MOL   O23443278   6.478   4.776   6.770  0.6861  0.5027 -0.3707
  103MOL   C23543279   6.449   4.845   6.652  0.6206  0.0457 -0.4387
  103MOL   O23643280   6.407   4.977   6.679  0.2587  0.0728 -0.3061
  103MOL   C23743281   6.385   5.057   6.569  0.0375  0.1028  0.3544
  103MOL   C23843282   6.391   5.012   6.431  0.3319  0.0970 -0.4209
  103MOL   C23943283   6.336   5.082   6.323  0.2693 -1.0437  0.2733
  103MOL   C24043284   6.289   5.217   6.339  0.0074  0.2865  0.6047
  103MOL   C24143285   6.286   5.271   6.470  0.3318  0.7421 -0.0556
  103MOL   C24243286   6.330   5.188   6.579  0.3808  0.2775 -0.4956
  103MOL   C24343287   6.462   4.594   6.907 -0.0989  0.5431 -0.4606
  103MOL   H24443288   6.315   4.650   6.758 -0.0589  0.6472 -1.1410
  103MOL   H24543289   6.369   4.794   6.599  2.0268  0.1123 -2.6959
  103MOL   H24643290   6.533   4.835   6.583  2.4028 -0.1264  1.7028
  103MOL   H24743291   6.424   4.910   6.418  1.1275  0.2917  0.0108
  103MOL   H24843292   6.338   5.035   6.226  2.7017 -3.4094  1.4062
  103MOL   H24943293   6.266   5.276   6.251  0.8370  1.8800  1.4295
  103MOL   H25043294   6.265   5.377   6.481  0.8715  1.1169 -2.3945
  103MOL   H25143295   6.322   5.223   6.680 -2.7425 -2.6225  0.3693
  103MOL   H25243296   6.508   4.647   6.991 -1.8607  0.3440  0.6402
  103MOL   H25343297   6.385   4.528   6.946 -1.2226  1.9126 -0.3525
  103MOL   C25443298   6.572   4.519   6.827 -0.5809  0.4453  0.3164
  103MOL   O25543299   6.645   4.444   6.926  0.0869  0.1591 -0.2420
  103MOL   C25643300   6.782   4.437   6.903 -0.0284  0.7013  0.2730
  103MOL   O25743301   6.844   4.551   6.954  0.5770 -0.2269  0.1980
  103MOL   C25843302   6.981   4.559   6.930 -0.0685 -0.1503 -0.2564
  103MOL   C25943303   7.060   4.453   6.874 -0.3051  0.2405  0.1267
  103MOL   C26043304   7.200   4.462   6.857 -0.5127  0.7065 -0.2194
  103MOL   C26143305   7.260   4.588   6.888  0.0240 -0.1180  0.3781
  103MOL   C26243306   7.187   4.692   6.944 -0.0560 -0.0504  0.4576
  103MOL   C26343307   7.048   4.673   6.966  0.2230  0.3400 -0.1413
  103MOL   C26443308   6.534   4.417   6.711  0.7385 -0.0724 -0.3541
  103MOL   H26543309   6.633   4.601   6.789  0.1747 -0.8023 -1.2483
  103MOL   H26643310   6.814   4.423   6.800  2.3081  1.9351  0.7852
  103MOL   H26743311   6.815   4.343   6.948  3.6519  0.8449 -1.8842
  103MOL   H26843312   7.021   4.357   6.841  0.2748  0.3376 -0.8752
  103MOL   H26943313   7.250   4.373   6.821  0.5828  1.7015 -1.2239
  103MOL   H27043314   7.368   4.596   6.883 -0.1345  1.9387 -0.1440
  103MOL   H27143315   7.233   4.788   6.964 -1.9420  1.1212 -0.6404
  103MOL   H27243316   7.006   4.758   7.018  0.9132  2.4542 -2.9061
  103MOL   H27343317   6.490   4.331   6.762  1.6143 -0.5149 -0.3485
  103MOL   H27443318   6.451   4.464   6.658  2.0687  0.0752 -2.3202
  103MOL   C27543319   6.640   4.377   6.609  0.4503  0.3513 -0.1252
  103MOL   O27643320   6.550   4.323   6.515 -0.2964  0.4270  0.3731
  103MOL   C27743321   6.532   4.180   6.499  0.1425 -0.2739  0.8123
  103MOL   O27843322   6.487   4.120   6.612 -0.1651 -0.2821 -0.5585
  103MOL   C27943323   6.358   4.132   6.653  0.0083  0.2616 -0.0521
  103MOL   C28043324   6.327   4.076   6.779  0.6814 -0.7944  0.2658
  103MOL   C28143325   6.201   4.104   6.843 -0.2432  0.0450 -0.6510
  103MOL   C28243326   6.112   4.192   6.780 -0.6352 -0.0103 -0.1893
  103MOL   C28343327   6.142   4.234   6.648  0.0881 -0.2371 -0.0812
  103MOL   C28443328   6.261   4.209   6.583  0.1013 -0.6032 -0.8292
  103MOL   C28543329   6.717   4.494   6.525  0.6695  0.1255 -0.5882
  103MOL   H28643330   6.717   4.304   6.636  0.5627  0.8377  0.8644
  103MOL   H28743331   6.627   4.137   6.467 -1.6746 -2.7478 -1.5355
  103MOL   H28843332   6.452   4.160   6.427  0.8299  0.0076 -0.0421
  103MOL   H28943333   6.405   4.020   6.827  2.2741 -0.9138 -2.3656
  103MOL   H29043334   6.177   4.072   6.943 -0.3352 -0.7716 -0.9380
  103MOL   H29143335   6.014   4.211   6.821 -0.0497  1.9674  0.3514
  103MOL   H29243336   6.068   4.291   6.594  0.7566  1.0672  0.3531
  103MOL   H29343337   6.266   4.260   6.488 -1.1236 -0.3814 -0.7787
  103MOL   H29443338   6.742   4.576   6.592  2.1575 -1.3361  0.6918
  103MOL   H29543339   6.646   4.552   6.467 -0.9845 -0.2968  0.9332
  103MOL   C29643340   6.847   4.459   6.452  0.6517 -0.4814  0.5613
  103MOL   O29743341   6.949   4.432   6.555  0.2305 -0.4543 -0.5541
  103MOL   C29843342   7.058   4.527   6.544  0.1372  0.0576  0.2202
  103MOL   O29943343   7.023   4.651   6.597  0.2854  0.2558 -0.0502
  103MOL   C30043344   7.119   4.750   6.586  0.4121 -0.4676 -0.1174
  103MOL   C30143345   7.093   4.875   6.649  0.3811 -0.3399 -0.2200
  103MOL   C30243346   7.183   4.985   6.645  0.4505  0.1327  0.1382
  103MOL   C30343347   7.308   4.970   6.586  0.5032 -0.1889  0.7074
  103MOL   C30443348   7.345   4.840   6.539  0.2541 -0.0728  0.4776
  103MOL   C30543349   7.250   4.734   6.535 -0.2196  0.0666  0.5042
  103MOL   C30643350   6.822   4.352   6.341 -0.2146 -0.1419  0.2370
  103MOL   H30743351   6.858   4.550   6.394 -2.8941  1.0056  2.0650
  103MOL   H30843352   7.078   4.536   6.437  3.1675 -1.1506  0.6580
  103MOL   H30943353   7.151   4.488   6.583  0.2635  0.3365  0.1994
  103MOL   H31043354   6.993   4.891   6.686  0.2057  2.4822 -1.7434
  103MOL   H31143355   7.159   5.086   6.675 -2.4154 -0.2790 -0.5389
  103MOL   H31243356   7.374   5.054   6.575 -0.2674  0.7591  3.0744
  103MOL   H31343357   7.434   4.821   6.481  0.9069 -1.2326  1.8312
  103MOL   H31443358   7.288   4.643   6.489  0.3376 -0.6570  2.3285
  103MOL   H31543359   6.760   4.396   6.263  0.5862  0.4804 -0.0534
  103MOL   H31643360   6.772   4.264   6.381  0.6368 -0.6941  0.1119
  103MOL   C31743361   6.948   4.309   6.269  0.1577 -0.1868  0.0046
  103MOL   O31843362   6.904   4.287   6.133 -0.4356 -0.8506 -0.4980
  103MOL   C31943363   6.961   4.369   6.032 -0.4095 -0.2101 -0.0988
  103MOL   O32043364   6.914   4.501   6.033 -0.2382  0.1028  0.4179
  103MOL   C32143365   6.784   4.531   5.997 -0.5983  0.1566 -0.1979
  103MOL   C32243366   6.678   4.442   6.003  0.8522  0.4745  0.4820
  103MOL   C32343367   6.554   4.480   5.965  0.3998 -0.1447  1.0678
  103MOL   C32443368   6.530   4.602   5.908  0.2296 -0.5293 -0.0242
  103MOL   C32543369   6.636   4.697   5.903 -0.0283  0.1825  0.2460
  103MOL   C32643370   6.766   4.657   5.939 -0.1770  0.0468  0.3314
  103MOL   C32743371   7.008   4.181   6.323  0.2276  0.0325  0.1530
  103MOL   H32843372   7.023   4.388   6.283 -0.9445  0.4225  2.9488
  103MOL   H32943373   6.945   4.324   5.934 -0.7538 -1.7105  0.6213
  103MOL   H33043374   7.063   4.387   6.066 -0.0065  1.9993 -2.3851
  103MOL   H33143375   6.679   4.341   6.042 -0.3383  0.8903  1.6275
  103MOL   H33243376   6.473   4.413   5.991  1.5431 -1.6103  0.9604
  103MOL   H33343377   6.428   4.633   5.891 -0.1216 -1.6024  0.0883
  103MOL   H33443378   6.624   4.796   5.863 -1.5654 -0.3726 -0.6695
  103MOL   H33543379   6.849   4.725   5.924 -2.6383  3.2813  0.9199
  103MOL   H33643380   6.998   4.177   6.432 -1.6989 -1.9425 -0.0460
  103MOL   H33743381   6.939   4.107   6.282  1.0153 -0.0367 -1.0308
  103MOL   C33843382   7.152   4.161   6.271  0.0187 -0.5335 -0.5041
  103MOL   O33943383   7.240   4.230   6.365 -0.6836 -0.3363 -0.0955
  103MOL   C34043384   7.321   4.340   6.320 -0.0567  0.6137  0.0859
  103MOL   O34143385   7.239   4.448   6.283  0.1919 -0.2682 -0.0845
  103MOL   C34243386   7.290   4.561   6.232  0.0506  0.4423  0.4640
  103MOL   C34343387   7.196   4.657   6.183  0.3016  0.4205 -0.0987
  103MOL   C34443388   7.242   4.781   6.129 -0.4210 -0.0044 -0.1673
  103MOL   C34543389   7.376   4.812   6.118  0.5900 -0.1106  0.0175
  103MOL   C34643390   7.470   4.715   6.163 -0.0234  0.0088 -0.0690
  103MOL   C34743391   7.426   4.589   6.215 -0.2363 -0.5135  0.6398
  103MOL   C34843392   7.193   4.013   6.275  0.0471  0.3809 -0.0536
  103MOL   H34943393   7.155   4.194   6.167  1.4787 -1.9650 -0.9270
  103MOL   H35043394   7.398   4.303   6.253 -0.0611 -0.0799  0.4580
  103MOL   H35143395   7.377   4.374   6.407 -0.9540 -0.2500  1.0194
  103MOL   H35243396   7.093   4.631   6.201  0.8555 -0.2270  2.3050
  103MOL   H35343397   7.164   4.836   6.078 -0.3051 -2.6844 -3.4661
  103MOL   H35443398   7.408   4.899   6.061  1.3544  0.0200  0.6322
  103MOL   H35543399   7.578   4.714   6.152  0.0241  0.1571  0.3891
  103MOL   H35643400   7.505   4.519   6.237 -0.2126 -1.2871 -1.7846
  103MOL   H35743401   7.109   3.960   6.231  0.0432  0.3202  0.0285
  103MOL   H35843402   7.203   3.989   6.381  2.7278  0.3752 -0.2793
  103MOL   C35943403   7.318   3.993   6.189 -0.4864 -0.4498 -0.1844
  103MOL   O36043404   7.272   4.011   6.054 -0.3347  0.0072 -0.0599
  103MOL   C36143405   7.378   4.039   5.969  0.2940  0.3076  0.4698
  103MOL   O36243406   7.455   4.151   6.012 -0.1683  0.2039 -0.3328
  103MOL   C36343407   7.573   4.177   5.949  0.3909 -0.1842 -0.3455
  103MOL   C36443408   7.638   4.291   6.000 -0.0253 -0.3983  0.9659
  103MOL   C36543409   7.758   4.336   5.936 -0.8394  0.4855  0.0343
  103MOL   C36643410   7.820   4.257   5.844 -0.5218  0.7080 -0.5272
  103MOL   C36743411   7.762   4.141   5.800 -0.6849  0.4517 -0.1304
  103MOL   C36843412   7.637   4.098   5.849 -0.0848 -0.7337  0.1537
  103MOL   C36943413   7.379   3.852   6.203  0.2915 -0.0118 -0.2436
  103MOL   H37043414   7.381   4.074   6.227 -0.5708 -1.4502  2.1923
  103MOL   H37143415   7.334   4.059   5.871 -0.1057 -0.9760  0.3759
  103MOL   H37243416   7.431   3.945   5.956 -1.0385 -0.2587 -1.0915
  103MOL   H37343417   7.603   4.346   6.086  3.2244  0.9871  1.4701
  103MOL   H37443418   7.811   4.419   5.981  0.2109  0.7656 -1.6640
  103MOL   H37543419   7.922   4.273   5.812  0.8649 -1.8224  2.3632
  103MOL   H37643420   7.807   4.088   5.718 -0.6374 -2.4944  1.7414
  103MOL   H37743421   7.577   4.016   5.812  0.1384 -1.0793  0.5465
  103MOL   H37843422   7.349   3.791   6.118  0.9243  0.9827 -1.1903
  103MOL   H37943423   7.327   3.800   6.283  1.5722 -1.1173 -0.1065
  103MOL   C38043424   7.529   3.857   6.242 -0.4657 -0.2604 -0.4694
  103MOL   O38143425   7.588   3.736   6.225 -0.0686 -0.1209 -0.1211
  103MOL   C38243426   7.641   3.711   6.102  0.0726 -0.6697  1.1423
  103MOL   O38343427   7.756   3.786   6.084  0.1744 -0.1963 -0.8920
  103MOL   C38443428   7.867   3.755   6.153 -0.1032 -0.3788 -0.2978
  103MOL   C38543429   0.011   3.806   6.112 -0.5648 -0.3054 -0.7203
  103MOL   C38643430   0.130   3.778   6.178  0.0529  0.1643  0.2901
  103MOL   C38743431   0.129   3.696   6.292  0.7186  0.4678  0.5870
  103MOL   C38843432   0.008   3.639   6.342  0.2662 -1.0556  0.1952
  103MOL   C38943433   7.873   3.664   6.266 -0.0474 -0.5612 -1.0446
  103MOL   C39043434   7.565   3.896   6.387 -0.3529  0.5345  0.3952
  103MOL   H39143435   7.575   3.931   6.177  0.8487  0.0546  0.7910
  103MOL   H39243436   7.660   3.604   6.093  0.5395 -0.5915  1.1901
  103MOL   H39343437   7.567   3.736   6.026  2.6432 -0.7092 -1.4960
  103MOL   H39443438   0.010   3.873   6.028 -0.0868  0.9731  0.2845
  103MOL   H39543439   0.222   3.822   6.145 -0.7654  1.5193 -0.2183
  103MOL   H39643440   0.226   3.678   6.336  0.4295 -1.6730  0.3780
  103MOL   H39743441   0.014   3.566   6.421 -0.8853  1.8862  3.1413
  103MOL   H39843442   7.781   3.618   6.299 -0.1448 -0.9193 -1.7949
  103MOL   H39943443   7.671   3.877   6.403 -0.6964 -2.4599 -0.5906
  103MOL   H40043444   7.524   3.826   6.461  0.8938  0.8096  1.3666
  103MOL   C40143445   7.544   4.037   6.433  0.1103 -0.0956  0.2065
  103MOL   O40243446   7.592   4.055   6.569 -0.5947  0.3279 -0.0938
  103MOL   C40343447   7.492   4.086   6.666  0.2869  0.1649  0.2796
  103MOL   O40443448   7.446   4.214   6.657  0.0120 -0.0486 -0.4984
  103MOL   C40543449   7.528   4.314   6.695 -0.6437 -0.6356 -0.4005
  103MOL   C40643450   7.482   4.442   6.666  0.2003 -0.0102  0.4585
  103MOL   C40743451   7.569   4.552   6.697  0.3437  0.4150 -0.1872
  103MOL   C40843452   7.692   4.530   6.763 -0.0765  0.0368 -0.5401
  103MOL   C40943453   7.740   4.397   6.784 -0.3296  0.0954  0.0713
  103MOL   C41043454   7.659   4.292   6.743  0.1537  0.1795 -0.2468
  103MOL   C41143455   7.622   4.146   6.357  0.0729  0.3131  0.1842
  103MOL   H41243456   7.438   4.056   6.448 -0.2734 -1.2227 -0.9885
  103MOL   H41343457   7.525   4.064   6.768  3.7518  0.7932 -0.6343
  103MOL   H41443458   7.417   4.010   6.644  0.1858 -0.0511  1.3444
  103MOL   H41543459   7.384   4.458   6.624  0.2431 -1.9464 -0.4229
  103MOL   H41643460   7.542   4.654   6.675  0.8823  1.0672  2.0443
  103MOL   H41743461   7.753   4.615   6.788 -2.2378  1.6222 -0.5211
  103MOL   H41843462   7.836   4.385   6.831  0.2013  1.3516 -0.6686
  103MOL   H41943463   7.700   4.192   6.740  1.7622  0.8260 -0.4362
  103MOL   H42043464   7.722   4.108   6.336  0.3207  1.2306 -0.2966
  103MOL   H42143465   7.628   4.231   6.425 -2.3824  0.5176  0.2085
  103MOL   H42243466   7.571   4.154   6.262  0.5373 -0.4632 -0.1402
  104MOL     C143467   3.506   2.568   3.159  0.1429  0.2779 -0.5542
  104MOL     O243468   3.549   2.461   3.242 -0.2927  0.0461 -0.1951
  104MOL     C343469   3.685   2.434   3.251 -0.3927 -0.5027  0.5659
  104MOL     O443470   3.762   2.540   3.319 -0.0325 -0.5199 -0.5812
  104MOL     C543471   3.773   2.534   3.455 -0.2352 -0.0841  0.1243
  104MOL     C643472   3.670   2.469   3.531  0.4007  0.2743 -0.1747
  104MOL     C743473   3.681   2.455   3.671  0.3575  0.9236  0.1427
  104MOL     C843474   3.784   2.522   3.735  0.5188 -0.5829 -0.9264
  104MOL     C943475   3.885   2.589   3.664 -0.3236  0.6617 -0.1327
  104MOL    C1043476   3.876   2.602   3.527 -0.0549  0.3946  0.9874
  104MOL    C1143477   3.499   2.520   3.012  0.4006  0.9445 -0.4077
  104MOL    H1243478   3.408   2.595   3.199  0.4661 -1.2116  1.2865
  104MOL    H1343479   3.712   2.342   3.303  1.1007  0.0964  0.8787
  104MOL    H1443480   3.726   2.431   3.150 -0.6352  1.8541  0.3649
  104MOL    H1543481   3.583   2.424   3.483  0.2192  0.6171 -0.1726
  104MOL    H1643482   3.610   2.398   3.730 -0.4891  0.0101 -1.6981
  104MOL    H1743483   3.785   2.524   3.843  1.1992 -0.0389 -0.9345
  104MOL    H1843484   3.957   2.638   3.728 -0.4253  1.0319 -0.3012
  104MOL    H1943485   3.947   2.661   3.471 -0.6389  0.8694  0.7348
  104MOL    H2043486   3.416   2.449   3.005 -0.5450  1.8882  0.8956
  104MOL    H2143487   3.580   2.451   2.989 -0.0950 -0.0345  0.7370
  104MOL    H2243488   3.571   2.652   3.181 -1.1696  0.8319  1.3024
  104MOL    C2343489   3.471   2.630   2.912 -0.2401 -0.3065  0.2641
  104MOL    O2443490   3.438   2.562   2.785 -0.3735  0.8824 -0.2628
  104MOL    C2543491   3.304   2.569   2.758  0.7995  0.5486 -0.0132
  104MOL    O2643492   3.259   2.700   2.743 -0.1761  0.5197 -0.1161
  104MOL    C2743493   3.293   2.776   2.637  0.7199  0.7028  0.4535
  104MOL    C2843494   3.400   2.748   2.553 -0.4162  0.0938  0.1112
  104MOL    C2943495   3.425   2.846   2.447  0.0038 -0.6262 -0.3936
  104MOL    C3043496   3.331   2.941   2.411  0.0895  0.7857 -0.1150
  104MOL    C3143497   3.214   2.958   2.486  0.3782  0.1053 -0.4215
  104MOL    C3243498   3.204   2.873   2.599  0.5806  0.5154  0.3190
  104MOL    C3343499   3.584   2.725   2.885  0.0138 -0.1681 -0.4539
  104MOL    H3443500   3.386   2.690   2.942 -1.6598 -3.0361  1.8643
  104MOL    H3543501   3.249   2.525   2.842  0.8131  0.3522 -0.1066
  104MOL    H3643502   3.277   2.518   2.665 -1.2659  0.1569  0.7684
  104MOL    H3743503   3.478   2.676   2.571  0.7960  1.2870 -0.2141
  104MOL    H3843504   3.513   2.849   2.384 -1.7850 -0.1147 -2.9400
  104MOL    H3943505   3.343   3.008   2.327  1.1022 -1.0310 -1.4444
  104MOL    H4043506   3.146   3.035   2.455  0.2352  0.3438  0.4938
  104MOL    H4143507   3.120   2.897   2.663  0.2789 -0.6853  0.3860
  104MOL    H4243508   3.599   2.796   2.967  0.3862  0.0833 -0.7387
  104MOL    H4343509   3.551   2.799   2.813  0.0182 -0.1588 -0.4465
  104MOL    C4443510   3.720   2.661   2.837  0.3114  0.0808  0.7419
  104MOL    O4543511   3.776   2.593   2.947 -0.3107  0.6122 -0.0509
  104MOL    C4643512   3.872   2.491   2.914  0.0111 -0.5527 -0.0622
  104MOL    O4743513   4.003   2.534   2.881 -0.4368  0.2733  0.4287
  104MOL    C4843514   4.081   2.599   2.976 -0.0216 -0.4027 -0.2911
  104MOL    C4943515   4.028   2.653   3.093  0.4766  0.0139  0.0622
  104MOL    C5043516   4.115   2.702   3.195  0.3942  0.2391 -0.1090
  104MOL    C5143517   4.257   2.703   3.175 -0.8759  0.9005  0.2440
  104MOL    C5243518   4.305   2.662   3.048 -0.4039 -0.0831 -0.3254
  104MOL    C5343519   4.220   2.604   2.954  0.4066  0.2849  0.2202
  104MOL    C5443520   3.823   2.762   2.781  0.5699 -0.0752 -0.4268
  104MOL    H5543521   3.706   2.582   2.763  3.3463 -0.1092  0.3133
  104MOL    H5643522   3.826   2.431   2.836  2.9501  0.7528 -2.9494
  104MOL    H5743523   3.887   2.430   3.003  1.7547  0.5760  0.4468
  104MOL    H5843524   3.921   2.662   3.109  0.3884 -0.9787  0.0797
  104MOL    H5943525   4.069   2.741   3.284 -0.8795  0.2192 -0.7446
  104MOL    H6043526   4.336   2.734   3.243  0.5954  0.9368 -1.4261
  104MOL    H6143527   4.408   2.675   3.018  0.0580  1.0299  1.6900
  104MOL    H6243528   4.266   2.571   2.863  2.0170  0.6143  0.9040
  104MOL    H6343529   3.794   2.851   2.835  1.0072 -0.8408  1.0899
  104MOL    H6443530   3.924   2.732   2.810  0.4004  1.6620  2.0514
  104MOL    C6543531   3.804   2.793   2.629 -0.1010 -0.0682 -0.3048
  104MOL    O6643532   3.855   2.916   2.602 -0.0072 -0.2019 -0.0248
  104MOL    C6743533   3.766   3.009   2.554 -0.4328 -0.4679  0.4851
  104MOL    O6843534   3.671   3.032   2.650  0.2519 -0.0802 -0.4622
  104MOL    C6943535   3.585   3.138   2.632 -1.1010  0.9094  0.0075
  104MOL    C7043536   3.483   3.145   2.727  0.4777 -0.0222 -0.0617
  104MOL    C7143537   3.398   3.257   2.729  0.2102 -0.0315  0.3508
  104MOL    C7243538   3.402   3.349   2.616  0.3409  0.1527 -0.0292
  104MOL    C7343539   3.492   3.332   2.510 -0.2446 -0.4126 -0.4131
  104MOL    C7443540   3.584   3.228   2.522 -0.2338  0.0784  0.4699
  104MOL    C7543541   3.862   2.679   2.546 -0.2540 -0.8248 -0.0457
  104MOL    H7643542   3.696   2.789   2.615 -0.1748 -0.6209  0.3769
  104MOL    H7743543   3.716   2.959   2.471  0.0531  1.7888 -1.2426
  104MOL    H7843544   3.823   3.095   2.517 -0.2179 -1.4371 -1.5061
  104MOL    H7943545   3.480   3.074   2.809 -2.6055 -0.1880 -0.2460
  104MOL    H8043546   3.324   3.263   2.807  2.1536  0.4402  2.2113
  104MOL    H8143547   3.324   3.424   2.609  0.1545 -0.0045  0.3518
  104MOL    H8243548   3.489   3.407   2.432 -0.0530 -0.8751 -0.8699
  104MOL    H8343549   3.653   3.219   2.439 -1.5462  0.6065 -0.7046
  104MOL    H8443550   3.970   2.688   2.549 -0.2007 -0.9151 -1.3301
  104MOL    H8543551   3.826   2.590   2.599  0.3903 -0.7573  0.5086
  104MOL    C8643552   3.808   2.683   2.400  0.1337 -0.8479 -0.1024
  104MOL    O8743553   3.890   2.767   2.320 -0.2453 -0.3501 -0.2342
  104MOL    C8843554   3.836   2.796   2.191 -0.2634  0.1852 -0.2507
  104MOL    O8943555   3.731   2.890   2.197 -0.3754  0.3937 -0.1993
  104MOL    C9043556   3.777   3.021   2.187 -0.4169 -1.0534 -0.8701
  104MOL    C9143557   3.686   3.107   2.133  0.0820 -0.3001  0.4997
  104MOL    C9243558   3.712   3.245   2.124 -0.4647 -0.1320 -0.2856
  104MOL    C9343559   3.831   3.292   2.170 -0.3853 -0.2256 -0.5561
  104MOL    C9443560   3.924   3.207   2.241  0.4754 -0.2227 -0.2426
  104MOL    C9543561   3.898   3.069   2.249 -0.0939  0.0997  0.3161
  104MOL    C9643562   3.822   2.538   2.344 -0.0298  0.4225  0.4706
  104MOL    H9743563   3.707   2.722   2.392  0.2884 -0.4952 -0.3657
  104MOL    H9843564   3.810   2.705   2.137  2.8472 -1.8572  1.5272
  104MOL    H9943565   3.914   2.838   2.127  1.5990 -1.0182  1.1574
  104MOL   H10043566   3.594   3.066   2.094  0.4574 -0.8935  0.2361
  104MOL   H10143567   3.641   3.316   2.085  2.5482  2.5228 -1.0762
  104MOL   H10243568   3.854   3.397   2.177 -2.2357  0.1181  0.7633
  104MOL   H10343569   4.002   3.254   2.297 -0.2064 -0.2504  0.7454
  104MOL   H10443570   3.954   3.005   2.315  0.8014  0.8150  0.2552
  104MOL   H10543571   3.875   2.538   2.248  0.2662 -1.8194  0.6092
  104MOL   H10643572   3.902   2.493   2.403 -0.9116 -0.7934  0.7504
  104MOL   C10743573   3.692   2.449   2.343 -0.0660  0.0240  0.0843
  104MOL   O10843574   3.613   2.506   2.237  0.3878 -0.8599 -0.4315
  104MOL   C10943575   3.475   2.510   2.261 -0.2791  0.8829 -0.8641
  104MOL   O11043576   3.417   2.414   2.348 -0.0022  0.0549  0.2991
  104MOL   C11143577   3.283   2.428   2.383 -0.3638  0.4144 -0.3077
  104MOL   C11243578   3.200   2.533   2.357 -0.3142  0.3193  0.1161
  104MOL   C11343579   3.067   2.543   2.404  0.3043  0.0204 -0.3194
  104MOL   C11443580   3.014   2.435   2.476  0.1044  0.5496  0.0809
  104MOL   C11543581   3.091   2.316   2.497 -0.2146 -0.6537 -0.3041
  104MOL   C11643582   3.223   2.318   2.456 -0.4153 -0.2581  1.2896
  104MOL   C11743583   3.720   2.306   2.308  0.4182  0.1094 -0.5363
  104MOL   H11843584   3.638   2.457   2.437  1.8399  0.0976  1.1821
  104MOL   H11943585   3.419   2.509   2.167 -1.2613  3.6231 -0.3345
  104MOL   H12043586   3.463   2.605   2.311 -2.3168  0.0452  0.2796
  104MOL   H12143587   3.237   2.618   2.301  0.4773 -0.6229 -0.8198
  104MOL   H12243588   3.007   2.631   2.390  2.9532  2.0120  0.4950
  104MOL   H12343589   2.908   2.443   2.499 -0.2161  0.0963 -1.2048
  104MOL   H12443590   3.052   2.228   2.546 -1.7799 -0.0616 -0.4584
  104MOL   H12543591   3.281   2.228   2.470  0.5575  0.6568  3.3093
  104MOL   H12643592   3.775   2.315   2.214 -2.5288  2.0034 -2.1946
  104MOL   H12743593   3.625   2.257   2.284  0.1963  1.4680 -2.5466
  104MOL   C12843594   3.781   2.227   2.423  0.4771 -0.4179  0.3061
  104MOL   O12943595   3.783   2.097   2.377 -0.5060 -0.6041  0.0609
  104MOL   C13043596   3.892   2.061   2.294 -0.8041 -0.1389  0.0013
  104MOL   O13143597   4.010   2.032   2.368  0.0890  0.3235 -0.7105
  104MOL   C13243598   4.121   2.023   2.301  0.3273 -0.2005  0.8236
  104MOL   C13343599   4.242   2.015   2.372 -0.5731 -0.4662  0.1629
  104MOL   C13443600   4.369   2.009   2.301 -0.5998  0.0237  0.1450
  104MOL   C13543601   4.370   2.017   2.160  0.4014 -0.5953  0.7650
  104MOL   C13643602   4.250   2.011   2.088  0.7980  0.8405  0.6764
  104MOL   C13743603   4.130   2.024   2.157  0.8535 -0.1101 -0.2591
  104MOL   C13843604   3.705   2.224   2.557  0.2800 -0.4660 -0.1664
  104MOL   H13943605   3.879   2.267   2.446  0.0968 -0.0748  1.3471
  104MOL   H14043606   3.887   2.135   2.214  0.2705  1.4603  1.3837
  104MOL   H14143607   3.854   1.972   2.244 -2.0536  1.7472 -2.5324
  104MOL   H14243608   4.240   2.007   2.479  0.1070 -0.9481  0.1490
  104MOL   H14343609   4.461   2.006   2.357 -0.1351 -0.7416 -0.6581
  104MOL   H14443610   4.465   2.009   2.109 -0.0998  1.8317 -0.5888
  104MOL   H14543611   4.260   1.999   1.981  1.8903  2.1386  0.6168
  104MOL   H14643612   4.040   2.025   2.098  1.6293  0.2164 -1.4599
  104MOL   H14743613   3.711   2.323   2.601 -0.1502 -1.0198  1.1474
  104MOL   H14843614   3.599   2.203   2.544  0.0874 -0.0878  0.7783
  104MOL   C14943615   3.765   2.137   2.670 -0.5953 -0.6087 -0.0687
  104MOL   O15043616   3.902   2.177   2.682 -0.3410  0.0059 -0.3161
  104MOL   C15143617   3.977   2.066   2.718 -0.4938  0.0960 -0.0562
  104MOL   O15243618   3.949   2.025   2.851  0.2641  0.3445  0.1576
  104MOL   C15343619   4.002   2.095   2.959  0.1688 -0.5503 -0.4820
  104MOL   C15443620   4.109   2.186   2.954  0.1135  0.6593  0.1996
  104MOL   C15543621   4.149   2.260   3.067  0.2845  0.1620  0.5849
  104MOL   C15643622   4.086   2.238   3.189 -0.2220  0.5781 -0.4066
  104MOL   C15743623   3.990   2.135   3.202 -0.1074  0.3767 -0.2297
  104MOL   C15843624   3.946   2.066   3.082 -0.4780 -0.4573 -0.7824
  104MOL   C15943625   3.678   2.151   2.798 -0.0892 -0.2810  0.1952
  104MOL   H16043626   3.756   2.033   2.638  0.8733 -1.0713  0.9411
  104MOL   H16143627   3.964   1.975   2.659 -1.3174  0.6738 -0.7818
  104MOL   H16243628   4.083   2.090   2.718 -0.6445  1.1061  3.6529
  104MOL   H16343629   4.168   2.213   2.868  0.7056 -1.5613 -0.1314
  104MOL   H16443630   4.223   2.336   3.047 -0.9608  1.5970  1.3601
  104MOL   H16543631   4.119   2.289   3.279  0.0111 -1.0380  0.4412
  104MOL   H16643632   3.937   2.114   3.294  0.6803 -0.5947  0.0192
  104MOL   H16743633   3.869   1.992   3.091  0.8548 -1.8455 -0.5079
  104MOL   H16843634   3.681   2.255   2.833  3.1887  0.2481 -1.4408
  104MOL   H16943635   3.721   2.088   2.875  0.2006 -0.0451  0.2272
  104MOL   C17043636   3.530   2.107   2.795  0.0254  0.3181  0.2084
  104MOL   O17143637   3.521   1.972   2.745  0.0158  0.5664 -0.3774
  104MOL   C17243638   3.453   1.948   2.632 -0.0940  0.3663  0.5608
  104MOL   O17343639   3.319   1.966   2.650 -0.2258 -0.1837 -0.5875
  104MOL   C17443640   3.231   1.916   2.561 -0.3303  0.1007 -0.1303
  104MOL   C17543641   3.094   1.950   2.580  0.0766  0.2768 -0.7094
  104MOL   C17643642   3.001   1.925   2.475  0.0160 -0.3966  0.1849
  104MOL   C17743643   3.045   1.845   2.369  0.1385 -0.1732 -0.2435
  104MOL   C17843644   3.178   1.810   2.349  0.0730  0.9680 -0.4003
  104MOL   C17943645   3.277   1.854   2.439  0.2284  0.9267 -0.1714
  104MOL   C18043646   3.463   2.103   2.938  0.1889  0.3229 -0.3134
  104MOL   H18143647   3.467   2.166   2.730 -1.7280 -0.5101  1.1151
  104MOL   H18243648   3.456   1.842   2.604 -2.9652  0.1287  1.0140
  104MOL   H18343649   3.484   2.001   2.542 -0.3913  0.6009  0.5942
  104MOL   H18443650   3.062   1.981   2.678 -0.1668  0.3244 -0.8038
  104MOL   H18543651   2.896   1.951   2.478 -0.1610 -1.0120 -0.6230
  104MOL   H18643652   2.967   1.821   2.298  0.4699 -0.0906 -0.6395
  104MOL   H18743653   3.209   1.740   2.273  1.8078  0.1267  1.0399
  104MOL   H18843654   3.375   1.812   2.421 -0.6197 -1.6297  0.8406
  104MOL   H18943655   3.502   2.011   2.983  0.0251  0.4118  0.0088
  104MOL   H19043656   3.490   2.175   3.015 -1.3231  1.8784 -1.1972
  104MOL   C19143657   3.306   2.108   2.944 -0.3582 -0.4517 -0.0650
  104MOL   O19243658   3.258   2.231   2.894 -0.0799  0.2433 -0.2987
  104MOL   C19343659   3.171   2.227   2.788 -0.3631 -0.2207  0.2072
  104MOL   O19443660   3.046   2.168   2.813  0.2055  0.1724  0.3232
  104MOL   C19543661   2.958   2.262   2.867  0.1232  0.1313 -0.5511
  104MOL   C19643662   2.992   2.378   2.940 -0.2722  0.2155  0.4767
  104MOL   C19743663   2.899   2.474   2.978  0.0807 -0.4604  0.0698
  104MOL   C19843664   2.766   2.446   2.954  0.4250  0.5615 -0.1962
  104MOL   C19943665   2.724   2.334   2.885  0.1577 -0.1356 -0.1840
  104MOL   C20043666   2.821   2.241   2.839  0.5077 -0.1127 -1.0071
  104MOL   C20143667   3.243   2.100   3.082  0.4999  0.6521  0.0130
  104MOL   H20243668   3.266   2.028   2.883 -0.8996 -1.2384  1.2978
  104MOL   H20343669   3.216   2.173   2.705 -0.3795 -1.1569  0.7999
  104MOL   H20443670   3.159   2.330   2.756  1.0893 -0.3024 -0.6672
  104MOL   H20543671   3.096   2.404   2.957 -0.3586  1.5151 -0.8649
  104MOL   H20643672   2.927   2.560   3.036  1.2478 -1.0575  0.4021
  104MOL   H20743673   2.691   2.514   2.990  1.0812  0.6920  0.9845
  104MOL   H20843674   2.619   2.320   2.867 -0.2190  0.7900  1.1791
  104MOL   H20943675   2.783   2.149   2.797  1.2301 -0.2219 -1.4173
  104MOL   H21043676   3.288   2.185   3.135  0.5980  0.7171 -0.1760
  104MOL   H21143677   3.135   2.117   3.074  0.0891 -1.8747 -0.2316
  104MOL   C21243678   3.264   1.965   3.153 -0.2748 -0.5193  0.4271
  104MOL   O21343679   3.251   1.989   3.293 -0.2982  0.4242  0.7135
  104MOL   C21443680   3.370   2.038   3.349  0.0396 -0.2401  0.9025
  104MOL   O21543681   3.481   1.959   3.333 -0.7841 -0.1304  0.0158
  104MOL   C21643682   3.594   1.994   3.407  0.3645  0.1989 -0.7413
  104MOL   C21743683   3.697   1.898   3.419  0.3410  0.0729 -0.2259
  104MOL   C21843684   3.806   1.921   3.506 -0.3102 -0.3292  0.5622
  104MOL   C21943685   3.814   2.037   3.580 -0.2736 -0.2797  0.1784
  104MOL   C22043686   3.713   2.131   3.585 -0.2824 -0.1700  0.8455
  104MOL   C22143687   3.601   2.110   3.495 -0.3454  0.1565  1.0361
  104MOL   C22243688   3.167   1.861   3.105 -0.0972  0.0219 -0.3913
  104MOL   H22343689   3.365   1.939   3.123 -0.4849  0.3146 -1.0609
  104MOL   H22443690   3.355   2.034   3.457  0.0459 -0.5520  0.8919
  104MOL   H22543691   3.391   2.141   3.321  1.1316 -0.8988 -0.7499
  104MOL   H22643692   3.683   1.805   3.365 -4.2397  0.6433 -0.1481
  104MOL   H22743693   3.890   1.854   3.517  0.0280 -0.1469 -0.8032
  104MOL   H22843694   3.902   2.057   3.639 -0.6224  0.1608  0.5499
  104MOL   H22943695   3.707   2.219   3.647 -0.3712  0.4620 -0.0620
  104MOL   H23043696   3.524   2.186   3.491 -1.8009 -1.3714 -0.6166
  104MOL   H23143697   3.065   1.877   3.140 -0.3969 -2.4449 -0.0567
  104MOL   H23243698   3.159   1.853   2.997 -0.9799  0.8514 -0.3946
  104MOL   C23343699   3.215   1.716   3.147  0.7678  0.0990  0.4393
  104MOL   O23443700   3.092   1.644   3.146  0.0182 -0.0710 -0.1629
  104MOL   C23543701   3.027   1.629   3.270  0.6660 -0.0588  0.3475
  104MOL   O23643702   2.894   1.600   3.254 -0.3819 -0.6653 -0.3867
  104MOL   C23743703   2.857   1.465   3.250  0.0707  0.1872 -0.2224
  104MOL   C23843704   2.938   1.364   3.188  0.2361  0.1502 -0.4721
  104MOL   C23943705   2.884   1.235   3.165 -0.1393 -0.4872 -0.6226
  104MOL   C24043706   2.762   1.196   3.216  0.0218 -0.1979  0.2070
  104MOL   C24143707   2.682   1.297   3.276 -0.1721 -0.4438  0.0954
  104MOL   C24243708   2.731   1.426   3.299  0.0587  0.7928  0.1516
  104MOL   C24343709   3.302   1.652   3.043  0.6817  0.2008  0.1680
  104MOL   H24443710   3.252   1.726   3.249  0.6075  1.7501  0.3570
  104MOL   H24543711   3.023   1.721   3.329 -2.4077  2.2028 -3.1355
  104MOL   H24643712   3.078   1.552   3.328  0.7954 -1.3225 -1.4157
  104MOL   H24743713   3.037   1.391   3.154  0.1248 -0.7513 -1.5405
  104MOL   H24843714   2.949   1.160   3.123 -0.9992 -0.7163 -1.5486
  104MOL   H24943715   2.726   1.094   3.208 -0.0273 -0.0796 -1.3273
  104MOL   H25043716   2.585   1.262   3.308 -0.1081  0.7437  1.6664
  104MOL   H25143717   2.667   1.500   3.344  0.7449  1.5432 -0.1062
  104MOL   H25243718   3.248   1.629   2.951  0.5312  0.3105  0.2289
  104MOL   H25343719   3.380   1.723   3.016 -0.8391  2.6048  1.9101
  104MOL   C25443720   3.365   1.508   3.079 -0.2974 -0.1432 -0.7443
  104MOL   O25543721   3.412   1.436   2.965 -0.1661  0.2095 -0.3690
  104MOL   C25643722   3.477   1.507   2.866  0.2355  0.4020 -0.3942
  104MOL   O25743723   3.401   1.566   2.768 -0.2483 -0.1470 -0.0468
  104MOL   C25843724   3.312   1.483   2.705  0.0038 -0.1781 -0.4684
  104MOL   C25943725   3.217   1.549   2.616 -0.4636  0.4246 -1.0957
  104MOL   C26043726   3.114   1.479   2.555  0.3363  0.2957  0.4817
  104MOL   C26143727   3.096   1.339   2.577  0.1716  0.3348 -0.2530
  104MOL   C26243728   3.188   1.272   2.661  0.4017  0.4483  0.1680
  104MOL   C26343729   3.296   1.340   2.716  0.7959  0.0491 -0.1461
  104MOL   C26443730   3.468   1.511   3.188  0.0091  0.4512  0.7504
  104MOL   H26543731   3.278   1.458   3.121 -0.6175  0.2987 -0.8761
  104MOL   H26643732   3.533   1.421   2.830  1.7820  1.1354  0.2213
  104MOL   H26743733   3.550   1.574   2.911  0.1565 -0.4279  0.9828
  104MOL   H26843734   3.227   1.655   2.601  0.6919  0.3192 -1.0909
  104MOL   H26943735   3.038   1.528   2.495  0.5418 -0.5306 -0.4741
  104MOL   H27043736   3.007   1.286   2.545  0.3173  0.4658 -0.8822
  104MOL   H27143737   3.168   1.167   2.678  3.6134 -0.2135  0.1062
  104MOL   H27243738   3.365   1.285   2.779 -0.3823 -0.6216  0.6036
  104MOL   H27343739   3.554   1.572   3.161 -0.4598  0.2211 -1.3004
  104MOL   H27443740   3.420   1.560   3.273  0.2677  1.1802  0.4772
  104MOL   C27543741   3.524   1.373   3.225 -0.9572  0.2736 -0.2092
  104MOL   O27643742   3.668   1.362   3.208  0.3406 -0.3064 -0.1901
  104MOL   C27743743   3.713   1.345   3.075  0.6954 -0.3243  0.3357
  104MOL   O27843744   3.734   1.466   3.013 -0.0755  0.1215 -0.2107
  104MOL   C27943745   3.852   1.532   3.045 -0.3585  0.6614 -0.6595
  104MOL   C28043746   3.899   1.627   2.949 -0.4632 -0.4607  0.1879
  104MOL   C28143747   4.020   1.701   2.975  0.0939  0.5507 -0.1434
  104MOL   C28243748   4.098   1.684   3.096  0.7145  0.2795  1.2435
  104MOL   C28343749   4.038   1.599   3.190  0.4622 -0.0260  0.4024
  104MOL   C28443750   3.915   1.523   3.169 -0.1243 -0.0495 -0.7561
  104MOL   C28543751   3.487   1.332   3.367  0.3535 -0.4364  0.1430
  104MOL   H28643752   3.472   1.298   3.165 -1.8501 -0.2336  1.1548
  104MOL   H28743753   3.641   1.289   3.016 -0.3997  1.2197  0.1681
  104MOL   H28843754   3.808   1.294   3.062  0.2295 -0.8270 -1.1526
  104MOL   H28943755   3.837   1.644   2.863 -1.6994 -0.5784  1.0372
  104MOL   H29043756   4.055   1.773   2.903  0.7604  1.5938  1.1956
  104MOL   H29143757   4.179   1.750   3.124  0.6904  0.6415  0.4714
  104MOL   H29243758   4.093   1.590   3.283 -1.2867  0.0921  1.4782
  104MOL   H29343759   3.860   1.465   3.241 -0.5916 -1.1705 -2.0153
  104MOL   H29443760   3.497   1.425   3.423  2.4521  0.5142 -1.7886
  104MOL   H29543761   3.556   1.254   3.398  0.5767  0.0178  0.8107
  104MOL   C29643762   3.353   1.265   3.389  0.4031  0.6078  0.3841
  104MOL   O29743763   3.355   1.141   3.316  0.0828 -0.1931  0.0244
  104MOL   C29843764   3.230   1.109   3.266  0.7724  0.1687 -0.2978
  104MOL   O29943765   3.225   0.972   3.235  0.3098  0.1856 -0.1003
  104MOL   C30043766   3.281   0.933   3.113 -0.7606 -0.2496 -0.1177
  104MOL   C30143767   3.227   0.816   3.057 -0.5075 -0.1655 -0.5809
  104MOL   C30243768   3.266   0.774   2.929  0.1660 -0.0174 -0.1659
  104MOL   C30343769   3.364   0.848   2.860 -0.1938 -0.1008 -0.0151
  104MOL   C30443770   3.407   0.967   2.910 -0.2883 -0.1186  0.0234
  104MOL   C30543771   3.368   1.014   3.035  0.1161 -0.2487 -0.5717
  104MOL   C30643772   3.333   1.244   3.535  0.4606  0.9346  0.2410
  104MOL   H30743773   3.272   1.322   3.343 -2.0525 -2.8365  0.2084
  104MOL   H30843774   3.210   1.186   3.192  2.5494  1.9571  1.0171
  104MOL   H30943775   3.158   1.118   3.348 -0.7663  1.0411 -1.7092
  104MOL   H31043776   3.150   0.760   3.110 -0.5230 -1.2159 -1.6942
  104MOL   H31143777   3.230   0.684   2.882  0.4814 -0.2066 -0.0480
  104MOL   H31243778   3.407   0.808   2.769 -1.5540 -0.5850 -0.4543
  104MOL   H31343779   3.482   1.021   2.855  0.1685 -0.2125  0.5452
  104MOL   H31443780   3.416   1.102   3.074  1.3181 -1.6336  1.1606
  104MOL   H31543781   3.424   1.192   3.564  0.4917  1.4109  1.0034
  104MOL   H31643782   3.258   1.166   3.543 -0.6989  2.1129  1.0620
  104MOL   C31743783   3.273   1.363   3.618 -0.6569  0.1664  0.3742
  104MOL   O31843784   3.280   1.323   3.755  0.0628 -0.6627  0.0436
  104MOL   C31943785   3.409   1.322   3.812  0.2865  0.9835 -0.1693
  104MOL   O32043786   3.470   1.453   3.817  0.2167  0.7482 -0.1416
  104MOL   C32143787   3.442   1.540   3.916 -0.5616 -0.1836  0.1427
  104MOL   C32243788   3.321   1.528   3.995 -0.4090 -0.0821  0.9424
  104MOL   C32343789   3.296   1.626   4.088 -0.4150  0.5941  0.4295
  104MOL   C32443790   3.379   1.739   4.107  0.0975  0.1969  0.0720
  104MOL   C32543791   3.494   1.753   4.032 -0.5225 -0.0998 -0.4570
  104MOL   C32643792   3.528   1.649   3.943 -0.6122  0.5985  0.3589
  104MOL   C32743793   3.124   1.393   3.596  0.1484 -0.1589 -0.3924
  104MOL   H32843794   3.322   1.461   3.611 -0.3366  0.0889  1.4023
  104MOL   H32943795   3.483   1.248   3.783  1.5065  1.3358  1.9899
  104MOL   H33043796   3.392   1.292   3.915 -1.2219  0.6857 -0.4950
  104MOL   H33143797   3.244   1.455   3.978 -1.0094  0.0106  3.0873
  104MOL   H33243798   3.208   1.612   4.148 -1.3753  2.6047 -0.4625
  104MOL   H33343799   3.337   1.810   4.177 -0.5698 -0.5983  0.4991
  104MOL   H33443800   3.558   1.838   4.054  1.8810 -1.6690 -1.2105
  104MOL   H33543801   3.623   1.656   3.892  1.3745 -0.3769  3.7832
  104MOL   H33643802   3.081   1.380   3.497  0.1820  2.0418 -0.7236
  104MOL   H33743803   3.071   1.322   3.660  1.2785 -0.0072  0.7365
  104MOL   C33843804   3.091   1.531   3.650  0.1371 -0.3890  0.0475
  104MOL   O33943805   3.162   1.624   3.578 -0.5337 -0.1948  0.4575
  104MOL   C34043806   3.238   1.710   3.657 -0.1058 -0.1207  0.4645
  104MOL   O34143807   3.165   1.786   3.751  0.1421 -0.3556  0.8316
  104MOL   C34243808   3.069   1.878   3.704  0.3051  0.5166 -0.3759
  104MOL   C34343809   3.045   1.921   3.570 -0.0182 -0.3825  0.1671
  104MOL   C34443810   2.945   2.018   3.536 -0.2374  0.2747 -0.8922
  104MOL   C34543811   2.875   2.084   3.641  0.0629 -0.0899  0.2757
  104MOL   C34643812   2.899   2.048   3.775  0.0428  0.5212  0.6223
  104MOL   C34743813   3.001   1.955   3.803  0.1648 -0.7202 -0.1020
  104MOL   C34843814   2.943   1.573   3.625 -0.3511 -0.0356  0.3079
  104MOL   H34943815   3.110   1.527   3.757  0.0131  0.1316  0.0930
  104MOL   H35043816   3.278   1.783   3.587  0.1566  0.3038  1.0529
  104MOL   H35143817   3.324   1.669   3.709  0.7968  2.5968  1.2128
  104MOL   H35243818   3.097   1.881   3.485 -1.8066  0.0686 -1.1683
  104MOL   H35343819   2.922   2.057   3.438 -2.5247  1.7513  0.1866
  104MOL   H35443820   2.793   2.148   3.613  0.3340  0.2075  0.1645
  104MOL   H35543821   2.838   2.081   3.857 -1.7830 -1.4188  0.0828
  104MOL   H35643822   3.022   1.930   3.905  2.0268 -1.7824 -0.7102
  104MOL   H35743823   2.911   1.529   3.530  2.3260 -1.5307  0.0416
  104MOL   H35843824   2.932   1.680   3.607  0.3947  0.0527  0.3873
  104MOL   C35943825   2.850   1.514   3.733  0.0976  0.2591  1.3114
  104MOL   O36043826   2.722   1.491   3.674  0.4340 -0.0179 -0.4358
  104MOL   C36143827   2.683   1.368   3.625 -0.6491  0.1410 -0.2598
  104MOL   O36243828   2.648   1.288   3.733  0.0943 -0.2069  0.0380
  104MOL   C36343829   2.537   1.205   3.715  0.5518 -0.2459 -0.1397
  104MOL   C36443830   2.446   1.191   3.820  0.0482  0.0509  0.5764
  104MOL   C36543831   2.347   1.099   3.814  1.3775 -0.2415 -0.0076
  104MOL   C36643832   2.317   1.031   3.695 -0.1512 -0.1396 -0.5917
  104MOL   C36743833   2.401   1.055   3.582  0.4666 -0.1303 -0.3831
  104MOL   C36843834   2.513   1.134   3.590  0.5739 -0.3477  0.5506
  104MOL   C36943835   2.824   1.619   3.844 -0.8463  0.4032  0.5425
  104MOL   H37043836   2.891   1.418   3.764  1.1064 -0.6512 -2.5989
  104MOL   H37143837   2.761   1.316   3.570  1.6257  0.6763  2.2818
  104MOL   H37243838   2.608   1.405   3.555 -2.3727  2.2120  2.5563
  104MOL   H37343839   2.466   1.246   3.911  1.9474 -0.6806  0.6272
  104MOL   H37443840   2.271   1.094   3.890  0.7219 -1.3681 -0.7184
  104MOL   H37543841   2.222   0.979   3.698 -1.9430  2.9157 -1.0880
  104MOL   H37643842   2.372   1.003   3.492  2.0639 -0.1607 -0.9071
  104MOL   H37743843   2.564   1.163   3.500 -0.3008 -0.1132  0.1291
  104MOL   H37843844   2.755   1.688   3.796  0.3259  1.2032 -0.0352
  104MOL   H37943845   2.921   1.668   3.853 -0.3951 -0.5290  0.8159
  104MOL   C38043846   2.774   1.557   3.975  0.4797 -0.2459 -0.5556
  104MOL   O38143847   2.738   1.665   4.053 -0.5040  0.0462  0.2130
  104MOL   C38243848   2.606   1.682   4.093 -0.2324 -0.0912  0.2551
  104MOL   O38343849   2.526   1.714   3.986  0.4476 -0.3122  0.3380
  104MOL   C38443850   2.513   1.847   3.938  0.1018 -0.2302  0.3446
  104MOL   C38543851   2.606   1.950   3.972  0.0951  0.1159 -0.0374
  104MOL   C38643852   2.585   2.080   3.932 -0.0532 -0.7297  0.4766
  104MOL   C38743853   2.468   2.112   3.866 -0.2641 -0.2198 -1.0942
  104MOL   C38843854   2.376   2.014   3.830 -0.2323 -1.0370 -0.5033
  104MOL   C38943855   2.399   1.882   3.864  0.4980 -0.8240 -0.0169
  104MOL   C39043856   2.885   1.481   4.053  0.0928  0.2918 -0.0203
  104MOL   H39143857   2.694   1.485   3.959  0.8897 -0.7880 -0.2123
  104MOL   H39243858   2.565   1.597   4.148 -0.7707  2.1401  3.4339
  104MOL   H39343859   2.610   1.767   4.161 -1.6873  1.1463 -1.1804
  104MOL   H39443860   2.698   1.925   4.024  0.6391  1.4488 -0.3428
  104MOL   H39543861   2.655   2.156   3.964  1.0767 -1.5972  0.1278
  104MOL   H39643862   2.451   2.214   3.836 -0.4455  1.3439  3.8450
  104MOL   H39743863   2.283   2.042   3.783 -0.2340 -1.5661 -0.8263
  104MOL   H39843864   2.331   1.800   3.842 -2.3618  0.5863  3.1498
  104MOL   H39943865   2.958   1.558   4.078 -1.1403  1.1316  1.0676
  104MOL   H40043866   2.936   1.419   3.980  0.9985  2.0809 -0.9430
  104MOL   C40143867   2.834   1.405   4.173  0.2956 -0.3800 -0.5866
  104MOL   O40243868   2.749   1.304   4.133 -0.3433  0.1310 -0.3669
  104MOL   C40343869   2.632   1.281   4.211 -0.2510  0.4701 -0.1955
  104MOL   O40443870   2.533   1.361   4.151  0.1953 -0.3940 -0.1667
  104MOL   C40543871   2.397   1.364   4.195 -0.3313  0.3037  0.7571
  104MOL   C40643872   2.316   1.459   4.127  0.1707 -0.4742 -0.2188
  104MOL   C40743873   2.176   1.462   4.165  0.0772 -0.5334 -0.2204
  104MOL   C40843874   2.127   1.384   4.270 -0.9269  0.2265 -0.0847
  104MOL   C40943875   2.216   1.299   4.344  0.0467  0.1139 -0.2663
  104MOL   C41043876   2.348   1.283   4.297 -0.0806 -0.5839  0.0461
  104MOL   C41143877   2.940   1.342   4.257  0.6394  0.3358 -0.2903
  104MOL   H41243878   2.769   1.468   4.234  0.0912 -0.0660 -1.1213
  104MOL   H41343879   2.635   1.297   4.318 -0.6717  1.0806 -0.2713
  104MOL   H41443880   2.597   1.182   4.183 -0.0243  0.8216 -1.7578
  104MOL   H41543881   2.346   1.521   4.044 -0.0484 -0.2573 -0.1367
  104MOL   H41643882   2.111   1.535   4.118 -0.9283 -1.6680 -0.6113
  104MOL   H41743883   2.028   1.399   4.310  0.6102  1.6532  3.4304
  104MOL   H41843884   2.188   1.230   4.423 -1.4746  0.2549 -0.6525
  104MOL   H41943885   2.416   1.205   4.330 -0.8969 -1.4388 -0.2848
  104MOL   H42043886   2.993   1.266   4.200 -1.9387 -1.9449  0.2926
  104MOL   H42143887   2.902   1.290   4.345  2.7509 -0.1326  0.3808
  104MOL   H42243888   3.008   1.424   4.282 -2.2801  2.7618 -0.1219
  105MOL     C143889   2.216   5.754   7.853 -0.8653  0.1752 -0.1285
  105MOL     O243890   2.257   5.781   7.720 -0.0594  0.0071  0.0297
  105MOL     C343891   2.291   5.668   7.644 -0.8103  0.0870 -0.1555
  105MOL     O443892   2.422   5.622   7.672  0.0750 -0.1670  0.1511
  105MOL     C543893   2.536   5.696   7.641  0.5751  0.3769  0.4620
  105MOL     C643894   2.535   5.813   7.565 -0.5628 -0.5818 -0.6712
  105MOL     C743895   2.651   5.885   7.528  0.2688  0.8391 -0.1996
  105MOL     C843896   2.777   5.844   7.576  0.2458 -0.1793  1.0736
  105MOL     C943897   2.776   5.734   7.663 -0.3506 -0.6025 -0.1377
  105MOL    C1043898   2.659   5.655   7.682 -0.8467 -0.0982  0.0457
  105MOL    C1143899   2.150   5.888   7.904  1.0814 -0.2333  0.2362
  105MOL    H1243900   2.156   5.663   7.854  0.0861 -0.4662  0.3706
  105MOL    H1343901   2.222   5.585   7.660 -1.6683  1.0283  1.0494
  105MOL    H1443902   2.283   5.703   7.541  0.4922 -1.4318 -0.8059
  105MOL    H1543903   2.445   5.860   7.530  0.6960  0.8636 -2.0495
  105MOL    H1643904   2.643   5.978   7.474 -0.0062  1.0937  0.2740
  105MOL    H1743905   2.871   5.896   7.561  1.6331 -2.8057  0.3952
  105MOL    H1843906   2.873   5.704   7.700  0.4828  2.0337 -0.0627
  105MOL    H1943907   2.667   5.563   7.738 -1.5869 -0.6183 -0.6875
  105MOL    H2043908   2.057   5.914   7.852  0.0366  0.6078  2.4632
  105MOL    H2143909   2.226   5.960   7.875  1.1459 -0.8209 -1.0855
  105MOL    H2243910   2.303   5.737   7.916  1.0608  0.3237 -2.6467
  105MOL    C2343911   2.113   5.882   0.076  0.0585 -0.0914  0.2492
  105MOL    O2443912   1.986   5.826   0.089 -0.3855  0.2884 -0.0131
  105MOL    C2543913   1.968   5.726   0.176  0.1455  0.5229  0.0805
  105MOL    O2643914   2.030   5.733   0.300  0.0537 -0.0256 -0.4107
  105MOL    C2743915   1.962   5.792   0.403 -0.2167 -0.0688  0.1695
  105MOL    C2843916   2.032   5.808   0.522 -0.7245  0.3740 -0.3614
  105MOL    C2943917   1.973   5.864   0.636 -0.8108  0.7445  0.5284
  105MOL    C3043918   1.840   5.910   0.628  0.1346 -0.2096 -0.6029
  105MOL    C3143919   1.767   5.890   0.514  0.2324 -0.6269  0.0079
  105MOL    C3243920   1.826   5.834   0.401 -0.0506  0.1214 -0.1932
  105MOL    C3343921   2.085   6.027   0.122  0.1308 -0.2221  0.1335
  105MOL    H3443922   2.194   5.836   0.134  0.3926  0.3160  0.1038
  105MOL    H3543923   2.022   5.640   0.135  0.9644  1.6251 -1.1612
  105MOL    H3643924   1.866   5.688   0.182  0.8350 -1.2673  1.0824
  105MOL    H3743925   2.137   5.783   0.525 -0.3052  2.1632  0.3529
  105MOL    H3843926   2.035   5.887   0.722  0.2677  1.4372 -0.4260
  105MOL    H3943927   1.797   5.970   0.707 -0.2890 -0.1950 -0.8465
  105MOL    H4043928   1.674   5.945   0.504  0.2785 -0.5031  0.2353
  105MOL    H4143929   1.765   5.827   0.312 -1.0156 -0.8171  0.5325
  105MOL    H4243930   2.042   6.019   0.223 -0.7464 -1.9613 -0.3578
  105MOL    H4343931   2.037   6.084   0.043  0.3711 -0.8731 -0.4806
  105MOL    C4443932   2.211   6.114   0.142  0.1053  0.3223  0.1807
  105MOL    O4543933   2.284   6.056   0.244  0.0908 -0.1974  0.1699
  105MOL    C4643934   2.423   6.050   0.225 -0.3288  0.3679 -0.0524
  105MOL    O4743935   2.477   5.960   0.131 -0.0713 -0.1317 -1.0400
  105MOL    C4843936   2.492   5.831   0.178 -0.1268  0.4030  0.9677
  105MOL    C4943937   2.558   5.737   0.094  0.0125  0.4790  0.1219
  105MOL    C5043938   2.565   5.604   0.137  0.0169  0.3448  0.0831
  105MOL    C5143939   2.507   5.555   0.256 -0.0561 -0.2998 -1.0013
  105MOL    C5243940   2.444   5.649   0.340  0.5864 -0.3516  0.3477
  105MOL    C5343941   2.428   5.784   0.300 -0.2518  0.3259  0.9693
  105MOL    C5443942   2.171   6.257   0.179  0.6631  0.0161 -0.4046
  105MOL    H5543943   2.257   6.110   0.043  0.2127 -0.7542  0.2640
  105MOL    H5643944   2.459   6.049   0.328 -0.4301  1.3264 -0.0072
  105MOL    H5743945   2.454   6.147   0.186 -0.2557  0.7678  0.9771
  105MOL    H5843946   2.610   5.758   0.002  0.1129  0.6882  0.2268
  105MOL    H5943947   2.610   5.522   0.083 -0.6912  0.5369 -0.8187
  105MOL    H6043948   2.514   5.450   0.281  1.9655 -0.0970 -0.6059
  105MOL    H6143949   2.389   5.613   0.426 -2.3114 -0.4808 -1.4958
  105MOL    H6243950   2.372   5.844   0.370 -1.0506 -0.0060  0.6090
  105MOL    H6343951   2.084   6.261   0.243  1.6630  0.3908  0.9422
  105MOL    H6443952   2.252   6.297   0.240  0.9532  1.1591 -1.5170
  105MOL    C6543953   2.156   6.343   0.053 -0.4251 -0.0273 -0.8252
  105MOL    O6643954   2.077   6.454   0.071  0.2998  0.2223  0.7771
  105MOL    C6743955   1.939   6.438   0.056  0.0832 -0.9314  0.4343
  105MOL    O6843956   1.878   6.346   0.149 -0.2742  0.7340  0.4167
  105MOL    C6943957   1.858   6.390   0.278  0.0646  0.5811  0.1292
  105MOL    C7043958   1.861   6.283   0.374 -0.2510 -0.4143  0.0159
  105MOL    C7143959   1.840   6.313   0.513 -0.4082 -0.3309  0.6469
  105MOL    C7243960   1.810   6.447   0.560  0.5917 -0.0028 -0.2934
  105MOL    C7343961   1.817   6.550   0.460 -0.0460 -0.7575  0.3617
  105MOL    C7443962   1.836   6.523   0.321  0.8969 -0.2983 -0.4132
  105MOL    C7543963   2.289   6.388   0.009  0.2744  0.1998  0.1382
  105MOL    H7643964   2.119   6.279   7.949 -0.5655  0.5926 -1.2624
  105MOL    H7743965   1.928   6.401   7.930 -1.4635  0.4630  0.0477
  105MOL    H7843966   1.877   6.529   0.051  1.1460 -0.3520 -2.8671
  105MOL    H7943967   1.865   6.179   0.346  0.4283 -0.3488 -0.1421
  105MOL    H8043968   1.842   6.227   0.578  0.3752  1.4657  3.1190
  105MOL    H8143969   1.796   6.471   0.664 -0.4206  0.2045 -0.4684
  105MOL    H8243970   1.803   6.655   0.483 -0.7559 -0.4749 -1.3312
  105MOL    H8343971   1.850   6.614   0.265  1.8889  0.1198  0.4841
  105MOL    H8443972   2.323   6.463   0.080 -0.8800 -0.0776  0.9886
  105MOL    H8543973   2.365   6.311   0.009 -0.3165 -0.4185 -1.7620
  105MOL    C8643974   2.295   6.469   7.854  0.2363  0.5400 -0.6801
  105MOL    O8743975   2.429   6.527   7.853  0.2675  0.1864 -0.4926
  105MOL    C8843976   2.463   6.637   7.768  0.1147 -0.2145  0.2233
  105MOL    O8943977   2.368   6.735   7.765  0.4146 -0.5469 -0.1311
  105MOL    C9043978   2.360   6.823   7.869  0.0090 -0.1523  0.5019
  105MOL    C9143979   2.294   6.946   7.840 -0.1852  0.5490  0.4100
  105MOL    C9243980   2.263   7.044   7.940 -0.4671  0.0421  0.4050
  105MOL    C9343981   2.314   7.023   0.094  0.6526 -0.0051  0.0779
  105MOL    C9443982   2.374   6.899   0.122  0.3791  0.2408 -0.0977
  105MOL    C9543983   2.403   6.801   0.027 -0.1747  0.0526 -0.3547
  105MOL    C9643984   2.281   6.390   7.720  0.5559 -0.8428 -0.0646
  105MOL    H9743985   2.228   6.554   7.865 -3.7661 -2.4466 -1.0647
  105MOL    H9843986   2.473   6.608   7.663  0.2621  0.4598  0.0470
  105MOL    H9943987   2.563   6.678   7.788 -0.4673  1.2445  0.2104
  105MOL   H10043988   2.260   6.961   7.738 -1.6177  1.0473  0.9511
  105MOL   H10143989   2.211   7.133   7.908  0.5709  0.4432 -0.1631
  105MOL   H10243990   2.305   7.099   0.170  0.6181  0.6296 -0.5502
  105MOL   H10343991   2.392   6.886   0.228 -1.5682  0.0850  0.2230
  105MOL   H10443992   2.446   6.712   0.069 -1.9241 -0.5570  0.1885
  105MOL   H10543993   2.193   6.326   7.721  1.8405 -2.6945 -1.3071
  105MOL   H10643994   2.251   6.468   7.650 -0.7531 -0.5587  0.8139
  105MOL   C10743995   2.399   6.297   7.683  0.2656 -0.4386  0.3348
  105MOL   O10843996   2.375   6.183   7.758 -0.1479  0.0216 -0.4342
  105MOL   C10943997   2.487   6.111   7.800  0.1849  0.3137  0.4809
  105MOL   O11043998   2.557   6.178   7.905 -0.1569  0.6052  0.2066
  105MOL   C11143999   2.677   6.127   7.947  0.1626 -0.5124 -0.0203
  105MOL   C11244000   2.758   6.198   0.055 -0.6585 -0.1032 -0.1162
  105MOL   C11344001   2.881   6.155   0.098 -0.7186 -0.8732  0.0377
  105MOL   C11444002   2.922   6.027   0.052 -0.4614  0.0388  0.1952
  105MOL   C11544003   2.842   5.943   7.954  0.4049  0.6220  0.9076
  105MOL   C11644004   2.717   5.992   7.909 -0.6291 -0.1541 -0.3691
  105MOL   C11744005   2.390   6.265   7.536  0.6900  0.1910  0.5058
  105MOL   H11844006   2.497   6.333   7.714  0.1996  0.1772 -0.1577
  105MOL   H11944007   2.553   6.113   7.713  0.6955  1.5379  0.8788
  105MOL   H12044008   2.459   6.012   7.835  3.1376 -0.0578  1.9701
  105MOL   H12144009   2.714   6.289   0.095 -0.3091  0.5876 -1.2766
  105MOL   H12244010   2.946   6.202   0.171 -0.6929 -0.3397 -0.3308
  105MOL   H12344011   3.018   5.986   0.080  0.5378  1.6931 -0.7448
  105MOL   H12444012   2.874   5.841   7.935 -0.0336  0.4566  1.0551
  105MOL   H12544013   2.652   5.923   7.858 -1.4696  1.3214 -1.3341
  105MOL   H12644014   2.290   6.234   7.504  0.5651  0.2725  0.8077
  105MOL   H12744015   2.444   6.172   7.520  1.8542  0.6713  1.5301
  105MOL   C12844016   2.430   6.383   7.431 -0.5870  0.0744 -0.2305
  105MOL   O12944017   2.393   6.338   7.299  0.4369  0.7014 -0.2741
  105MOL   C13044018   2.267   6.382   7.254  0.3166  0.0516  0.3308
  105MOL   O13144019   2.262   6.520   7.226  0.0400 -0.4054 -0.8339
  105MOL   C13244020   2.346   6.570   7.128 -0.3088  1.1106  0.6240
  105MOL   C13344021   2.445   6.495   7.057 -0.0985 -0.2752 -0.4154
  105MOL   C13444022   2.535   6.554   6.970 -0.6367  0.2126 -0.1641
  105MOL   C13544023   2.536   6.692   6.950 -0.2251  0.3557 -0.5698
  105MOL   C13644024   2.444   6.776   7.018  0.2782 -0.1604  0.1272
  105MOL   C13744025   2.345   6.710   7.099  0.3340 -0.2767 -0.8773
  105MOL   C13844026   2.587   6.412   7.437 -0.7719  0.5935  0.0249
  105MOL   H13944027   2.380   6.476   7.456  1.8326  1.2023  0.4587
  105MOL   H14044028   2.180   6.363   7.317 -0.6805  4.1147  0.3292
  105MOL   H14144029   2.244   6.323   7.166  0.6641 -0.4515  0.5747
  105MOL   H14244030   2.443   6.387   7.061  0.5691 -0.4173 -2.8913
  105MOL   H14344031   2.601   6.494   6.910  1.0505 -0.1869  2.0613
  105MOL   H14444032   2.609   6.746   6.892  0.0805  1.2116  0.5962
  105MOL   H14544033   2.446   6.884   7.010 -0.2173 -0.0565  1.2890
  105MOL   H14644034   2.281   6.770   7.163  0.0447 -1.7422  0.2262
  105MOL   H14744035   2.603   6.496   7.369 -1.0073  1.0530  0.5317
  105MOL   H14844036   2.619   6.463   7.527  3.4489 -1.9157  0.0384
  105MOL   C14944037   2.699   6.308   7.417  0.6789 -0.1735  1.0843
  105MOL   O15044038   2.709   6.212   7.526  0.1573 -0.3339  0.2762
  105MOL   C15144039   2.823   6.225   7.593  0.0116 -0.6728  0.3237
  105MOL   O15244040   2.814   6.334   7.672  0.0495 -0.2922  0.3467
  105MOL   C15344041   2.925   6.376   7.746  0.5082  0.6784 -0.6531
  105MOL   C15444042   2.938   6.508   7.786  0.8738 -0.6033  0.8353
  105MOL   C15544043   3.042   6.552   7.866 -0.0503 -0.1557  0.0521
  105MOL   C15644044   3.144   6.467   7.913  0.7104  0.6430  0.2218
  105MOL   C15744045   3.133   6.331   7.870 -0.9008  0.8847  1.1656
  105MOL   C15844046   3.023   6.287   7.791 -0.2179 -0.1359 -0.1872
  105MOL   C15944047   2.685   6.229   7.290  0.3626 -0.1067 -0.1083
  105MOL   H16044048   2.787   6.373   7.414  0.7579 -0.3175  0.2439
  105MOL   H16144049   2.806   6.145   7.665  1.5007  0.7838  2.3327
  105MOL   H16244050   2.915   6.215   7.536 -0.4713 -0.5269 -0.4938
  105MOL   H16344051   2.857   6.577   7.767  0.1959 -1.7129 -0.3803
  105MOL   H16444052   3.048   6.654   7.902 -1.3292 -0.4370  1.0921
  105MOL   H16544053   3.222   6.511   7.973 -1.0202 -0.3929  3.4304
  105MOL   H16644054   3.214   6.264   7.898  0.6801  1.6847 -1.2909
  105MOL   H16744055   3.021   6.182   7.765  1.3969 -0.5418  1.2859
  105MOL   H16844056   2.664   6.298   7.208  0.8387 -0.2381 -0.3452
  105MOL   H16944057   2.602   6.160   7.293 -0.6235  1.1002  0.7243
  105MOL   C17044058   2.816   6.161   7.252  0.6561 -0.2660  0.2647
  105MOL   O17144059   2.808   6.065   7.140  0.0596 -0.3100 -0.1871
  105MOL   C17244060   2.760   5.942   7.177  0.0793 -0.1247  0.2824
  105MOL   O17344061   2.749   5.860   7.072  0.0850  0.3562 -0.3998
  105MOL   C17444062   2.770   5.728   7.106  0.2282  0.0414  0.0412
  105MOL   C17544063   2.713   5.664   7.222  0.3501  0.8122  0.1303
  105MOL   C17644064   2.747   5.529   7.249 -0.0590 -0.0386  0.7257
  105MOL   C17744065   2.837   5.457   7.170  0.4794 -0.8003  0.0962
  105MOL   C17844066   2.902   5.522   7.063 -0.4204  0.3891 -0.8790
  105MOL   C17944067   2.866   5.653   7.031  0.1815  0.1547  0.1334
  105MOL   C18044068   2.932   6.260   7.208  0.0737 -0.1754 -0.4532
  105MOL   H18144069   2.849   6.108   7.342  2.4204 -0.3569 -0.4107
  105MOL   H18244070   2.656   5.951   7.209  0.0319 -1.2232  0.4539
  105MOL   H18344071   2.812   5.905   7.265 -0.4957 -1.2157  0.1667
  105MOL   H18444072   2.652   5.713   7.297  1.6095  1.1390  0.9554
  105MOL   H18544073   2.725   5.477   7.342 -1.5158 -0.5333  0.1174
  105MOL   H18644074   2.880   5.362   7.197  1.8703 -0.5470 -1.1080
  105MOL   H18744075   2.984   5.477   7.009  0.2719 -0.4734  0.8209
  105MOL   H18844076   2.928   5.705   6.959  1.0602 -0.9892  0.0674
  105MOL   H18944077   2.904   6.298   7.109  0.9982  2.9464  0.4049
  105MOL   H19044078   2.931   6.355   7.262 -1.0572 -0.8675  0.7702
  105MOL   C19144079   3.065   6.196   7.202  0.3751  0.2112 -0.7133
  105MOL   O19244080   3.082   6.170   7.346  0.1986  0.6396 -0.4685
  105MOL   C19344081   3.155   6.059   7.374 -0.1648 -0.4054  0.2334
  105MOL   O19444082   3.076   5.943   7.360  0.8470 -0.1876  0.0629
  105MOL   C19544083   3.136   5.816   7.379  0.0159 -0.9760 -0.6749
  105MOL   C19644084   3.073   5.700   7.325  0.3786 -0.0030  0.6859
  105MOL   C19744085   3.124   5.573   7.344 -0.3167  0.0902 -0.1374
  105MOL   C19844086   3.245   5.562   7.411 -0.4978  0.4848 -0.2075
  105MOL   C19944087   3.311   5.674   7.465 -0.2182  0.1668 -0.1970
  105MOL   C20044088   3.259   5.803   7.445 -0.2522  0.3894 -0.9207
  105MOL   C20144089   3.161   6.289   7.140  0.1732  0.1318  0.0648
  105MOL   H20244090   3.056   6.101   7.149 -0.2621 -1.2639  1.9366
  105MOL   H20344091   3.178   6.070   7.480  0.5847  0.0733  0.0202
  105MOL   H20444092   3.247   6.047   7.318  0.2092  0.4363  0.6678
  105MOL   H20544093   2.979   5.712   7.275  0.7193  1.9211  0.4577
  105MOL   H20644094   3.064   5.489   7.313 -0.4646  0.6169 -1.2868
  105MOL   H20744095   3.281   5.462   7.430 -0.7597  0.4220 -0.0455
  105MOL   H20844096   3.406   5.677   7.518  0.1755 -1.3666 -0.8019
  105MOL   H20944097   3.311   5.880   7.500  0.1322 -1.3932  1.3212
  105MOL   H21044098   3.121   6.353   7.061  0.3469 -1.0162 -0.9645
  105MOL   H21144099   3.187   6.362   7.216 -1.3822  1.1944 -0.4076
  105MOL   C21244100   3.286   6.221   7.086  0.4192 -0.0256 -0.3044
  105MOL   O21344101   3.371   6.165   7.185  0.1953 -0.0339 -0.3601
  105MOL   C21444102   3.469   6.248   7.248  0.3790 -0.9974  0.1690
  105MOL   O21544103   3.512   6.198   7.368 -0.7327  0.2367  0.2440
  105MOL   C21644104   3.487   6.269   7.489 -0.5709 -0.1301 -0.1996
  105MOL   C21744105   3.549   6.218   7.604  0.0702 -0.4190 -0.3830
  105MOL   C21844106   3.534   6.278   7.728  0.7106 -0.3518  0.7141
  105MOL   C21944107   3.455   6.395   7.743 -0.1108  0.6367 -0.4210
  105MOL   C22044108   3.382   6.434   7.634 -0.7874 -0.8254 -0.3479
  105MOL   C22144109   3.400   6.374   7.503  0.1547  0.6391 -0.0444
  105MOL   C22244110   3.264   6.116   6.975  0.0796 -0.2631 -0.5534
  105MOL   H22344111   3.352   6.297   7.044  0.2191 -0.3086 -1.1473
  105MOL   H22444112   3.438   6.352   7.241 -1.2081 -1.5795 -2.4575
  105MOL   H22544113   3.563   6.248   7.192 -0.5124  2.4346 -1.4764
  105MOL   H22644114   3.609   6.130   7.586  1.2536  0.4064 -0.5022
  105MOL   H22744115   3.599   6.236   7.803  1.0971 -2.4686 -0.7747
  105MOL   H22844116   3.444   6.444   7.839 -1.8655 -2.0439  0.8230
  105MOL   H22944117   3.310   6.512   7.653  0.1848  0.4960 -1.9794
  105MOL   H23044118   3.338   6.402   7.418  0.9999 -1.5236 -1.4033
  105MOL   H23144119   3.363   6.072   6.966  0.6875  0.5122  1.9109
  105MOL   H23244120   3.198   6.035   7.004  1.7820 -0.9352  1.6073
  105MOL   C23344121   3.219   6.179   6.842 -0.3266  0.2527  0.2579
  105MOL   O23444122   3.306   6.287   6.811  0.1582  0.3120 -0.3369
  105MOL   C23544123   3.261   6.390   6.726 -0.2871 -0.4998 -0.2261
  105MOL   O23644124   3.361   6.459   6.674  0.0305  0.2345 -0.0505
  105MOL   C23744125   3.340   6.565   6.591 -0.1986 -0.5695  0.6035
  105MOL   C23844126   3.215   6.608   6.545  0.2477  0.1715  0.3252
  105MOL   C23944127   3.211   6.716   6.458  0.0580  0.0099  0.8053
  105MOL   C24044128   3.325   6.773   6.399 -0.5327 -0.1462  0.3188
  105MOL   C24144129   3.451   6.722   6.437 -0.1220  0.0223  0.1202
  105MOL   C24244130   3.456   6.620   6.535  0.0767  0.3052  0.2122
  105MOL   C24344131   3.241   6.082   6.723  0.0141  0.4422  0.3157
  105MOL   H24444132   3.115   6.210   6.855 -0.1097  2.0338 -1.9388
  105MOL   H24544133   3.198   6.460   6.780 -0.1977 -0.6412  0.0648
  105MOL   H24644134   3.208   6.348   6.641  0.1454 -0.7055 -0.3949
  105MOL   H24744135   3.127   6.558   6.582  2.5135 -1.9601  3.0935
  105MOL   H24844136   3.109   6.739   6.429  0.4102 -0.3076 -0.7536
  105MOL   H24944137   3.313   6.854   6.328  0.0349 -1.0416 -0.8192
  105MOL   H25044138   3.542   6.771   6.408 -0.5512  1.1402  0.6378
  105MOL   H25144139   3.545   6.577   6.579 -0.8705 -2.6015 -0.5658
  105MOL   H25244140   3.227   6.138   6.630  0.4322  1.0675  0.6223
  105MOL   H25344141   3.347   6.055   6.723  0.0943  0.7567  0.5353
  105MOL   C25444142   3.152   5.960   6.731 -0.8833 -0.3852 -0.1491
  105MOL   O25544143   3.021   6.006   6.709 -0.1055  0.1807 -0.5380
  105MOL   C25644144   2.932   6.003   6.814  0.3092 -0.0168 -0.3383
  105MOL   O25744145   2.860   5.881   6.802  0.1869 -0.2106 -0.1697
  105MOL   C25844146   2.784   5.848   6.694 -0.6648 -0.1793  0.5041
  105MOL   C25944147   2.756   5.940   6.588 -0.6017  0.2533  0.4192
  105MOL   C26044148   2.678   5.903   6.479 -0.4543  0.2888  0.1210
  105MOL   C26144149   2.620   5.777   6.474  0.4239  0.7263 -0.9735
  105MOL   C26244150   2.642   5.687   6.581 -0.3771 -0.0701 -0.4720
  105MOL   C26344151   2.725   5.723   6.691  0.2898 -0.4010  0.3102
  105MOL   C26444152   3.182   5.860   6.619  0.4766  0.3030 -0.0941
  105MOL   H26544153   3.167   5.913   6.828 -2.2605 -0.2090  0.1552
  105MOL   H26644154   2.868   6.091   6.826  2.3058  1.4509 -0.2063
  105MOL   H26744155   2.979   5.991   6.912  0.1646 -0.5296 -0.3307
  105MOL   H26844156   2.811   6.033   6.583 -0.0323 -0.0905  0.2083
  105MOL   H26944157   2.648   5.965   6.396 -0.7712 -2.0906 -1.5882
  105MOL   H27044158   2.556   5.763   6.388  1.8571 -0.5151 -1.8556
  105MOL   H27144159   2.588   5.593   6.583  0.5772 -0.6095  1.8259
  105MOL   H27244160   2.751   5.651   6.766  0.5232 -3.5178 -2.6177
  105MOL   H27344161   3.133   5.901   6.530 -0.6902 -1.4712 -0.2962
  105MOL   H27444162   3.290   5.857   6.604  0.9345 -2.7027  3.1090
  105MOL   C27544163   3.119   5.721   6.634 -0.2358 -0.1179 -0.2020
  105MOL   O27644164   3.159   5.643   6.522 -0.0944  0.3223 -0.2010
  105MOL   C27744165   3.085   5.535   6.480 -0.4856 -0.3105 -0.2228
  105MOL   O27844166   2.967   5.571   6.413  0.4132 -0.2542 -0.1223
  105MOL   C27944167   2.980   5.639   6.295 -0.2378 -0.5209  0.9478
  105MOL   C28044168   2.863   5.666   6.221 -0.4546  0.0681  0.4471
  105MOL   C28144169   2.866   5.743   6.104  0.1364 -0.7373 -0.0270
  105MOL   C28244170   2.986   5.799   6.058 -0.2456  0.0591  0.9387
  105MOL   C28344171   3.103   5.774   6.127 -0.2028  0.8594 -0.6892
  105MOL   C28444172   3.104   5.692   6.248 -0.4052 -0.1432  0.2455
  105MOL   C28544173   3.167   5.655   6.765 -0.1727 -0.8463 -0.5458
  105MOL   H28644174   3.012   5.736   6.646  0.0829  1.9827  0.2192
  105MOL   H28744175   3.061   5.472   6.566 -1.0567 -0.7983 -0.7296
  105MOL   H28844176   3.137   5.465   6.414 -1.4147 -0.8546 -0.4006
  105MOL   H28944177   2.770   5.615   6.242 -0.2762 -0.0780  0.9038
  105MOL   H29044178   2.774   5.767   6.052  0.4369  1.0772  0.2504
  105MOL   H29144179   2.990   5.866   5.973  0.7074 -1.4751 -0.2632
  105MOL   H29244180   3.196   5.815   6.090  0.8885  0.2840  1.3446
  105MOL   H29344181   3.194   5.670   6.305  1.1421  1.4358 -1.4972
  105MOL   H29444182   3.133   5.552   6.772 -1.1186 -0.7062 -2.6171
  105MOL   H29544183   3.098   5.709   6.831 -0.2008  2.4346 -3.1260
  105MOL   C29644184   3.310   5.656   6.815 -0.1677 -0.0260  0.2690
  105MOL   O29744185   3.303   5.619   6.954  0.2211  0.8548 -0.5515
  105MOL   C29844186   3.292   5.720   7.046 -0.4459  0.0875 -0.4967
  105MOL   O29944187   3.416   5.782   7.061  0.1511 -0.6015  0.2789
  105MOL   C30044188   3.516   5.718   7.126  0.3787 -0.7113  0.2253
  105MOL   C30144189   3.516   5.584   7.170 -0.1018 -0.1189 -0.3652
  105MOL   C30244190   3.627   5.512   7.218  0.0518 -0.3367 -0.0123
  105MOL   C30344191   3.743   5.583   7.239 -0.5545  0.1871 -0.2557
  105MOL   C30444192   3.751   5.722   7.205  0.8541 -0.3263  0.1871
  105MOL   C30544193   3.639   5.787   7.146  0.9369  0.1258  0.2605
  105MOL   C30644194   3.397   5.560   6.740 -0.0430 -0.9587 -0.5373
  105MOL   H30744195   3.366   5.750   6.820 -1.8560  0.9898  0.4800
  105MOL   H30844196   3.252   5.691   7.143 -0.9116  0.2441 -0.6420
  105MOL   H30944197   3.218   5.797   7.024 -0.3295  0.1864 -0.5442
  105MOL   H31044198   3.421   5.533   7.157 -0.5582  0.5957  0.0970
  105MOL   H31144199   3.622   5.406   7.238 -2.1975 -0.1361  0.6754
  105MOL   H31244200   3.832   5.526   7.265  0.2655  0.9780 -1.2554
  105MOL   H31344201   3.842   5.776   7.229  0.7896 -0.2213  0.1953
  105MOL   H31444202   3.646   5.891   7.119 -0.1794 -0.0476 -0.7146
  105MOL   H31544203   3.372   5.572   6.635 -0.7654  1.3530 -0.1318
  105MOL   H31644204   3.365   5.461   6.774 -1.3250 -0.8154 -1.3168
  105MOL   C31744205   3.555   5.589   6.750 -0.2614  0.3548  0.0580
  105MOL   O31844206   3.596   5.719   6.692 -0.2232 -0.1459 -0.6667
  105MOL   C31944207   3.706   5.781   6.756 -0.3131  0.1436 -0.1422
  105MOL   O32044208   3.833   5.748   6.711  0.7583 -0.8548  0.9011
  105MOL   C32144209   3.935   5.726   6.801  0.3689  0.0455 -0.4886
  105MOL   C32244210   4.007   5.607   6.789  0.7168 -0.0665  0.9025
  105MOL   C32344211   4.110   5.578   6.879  0.8784  0.6914 -0.6616
  105MOL   C32444212   4.146   5.670   6.974  0.3234 -0.8182 -0.0025
  105MOL   C32544213   4.076   5.795   6.983  0.7595 -0.4501 -0.6072
  105MOL   C32644214   3.969   5.817   6.898 -0.0701  0.4073 -0.1342
  105MOL   C32744215   3.629   5.472   6.680 -0.3181 -0.5730  0.2277
  105MOL   H32844216   3.572   5.602   6.856  4.0972  0.6078 -0.5712
  105MOL   H32944217   3.708   5.774   6.865  1.4330  2.0487 -0.0212
  105MOL   H33044218   3.696   5.887   6.732 -1.8814  0.9790  3.7514
  105MOL   H33144219   3.994   5.534   6.711  0.8246  0.1113  0.7172
  105MOL   H33244220   4.156   5.481   6.866  1.4005  1.0468 -1.4961
  105MOL   H33344221   4.234   5.655   7.035  1.5830  1.7049 -1.1037
  105MOL   H33444222   4.096   5.866   7.062  2.3067 -0.8120 -0.6649
  105MOL   H33544223   3.910   5.906   6.917  1.4422  1.2915  0.4503
  105MOL   H33644224   3.570   5.448   6.591 -2.9404 -1.2421  2.0770
  105MOL   H33744225   3.726   5.494   6.634 -0.2499 -0.2150  0.5493
  105MOL   C33844226   3.654   5.338   6.763 -0.4297 -0.0022  0.7202
  105MOL   O33944227   3.713   5.241   6.681 -0.4619 -0.5522 -0.1573
  105MOL   C34044228   3.627   5.141   6.644  0.2445  0.6232 -0.6017
  105MOL   O34144229   3.541   5.184   6.546  0.0261 -0.1290 -0.0650
  105MOL   C34244230   3.462   5.102   6.471  0.3116 -0.0265 -0.1359
  105MOL   C34344231   3.424   5.160   6.354 -0.5861 -0.1798  1.0151
  105MOL   C34444232   3.346   5.085   6.263 -1.4241 -0.6385  0.5595
  105MOL   C34544233   3.312   4.953   6.302  0.1236 -0.7102 -0.5541
  105MOL   C34644234   3.350   4.897   6.422  0.5844 -0.0278 -0.4366
  105MOL   C34744235   3.424   4.976   6.509 -0.1560 -0.3954 -0.4255
  105MOL   C34844236   3.751   5.342   6.888 -0.2599 -0.1337  0.8577
  105MOL   H34944237   3.557   5.320   6.810 -1.0676  0.1420 -0.5085
  105MOL   H35044238   3.569   5.117   6.732  1.0520  1.7157  0.2358
  105MOL   H35144239   3.679   5.052   6.608  1.5002  0.9293  0.4334
  105MOL   H35244240   3.456   5.262   6.340  3.7739 -1.2469  2.4229
  105MOL   H35344241   3.311   5.129   6.171  1.5240  0.4398 -0.0826
  105MOL   H35444242   3.266   4.885   6.232 -0.5616 -1.6384  0.7671
  105MOL   H35544243   3.331   4.793   6.439  2.5244 -1.2397 -5.0267
  105MOL   H35644244   3.462   4.922   6.595 -1.3008 -2.1226 -0.9808
  105MOL   H35744245   3.725   5.427   6.950 -1.7678 -1.7273  2.4756
  105MOL   H35844246   3.855   5.361   6.860 -0.3922  0.2656  0.6386
  105MOL   C35944247   3.755   5.203   6.963  0.6673  0.1057 -0.0409
  105MOL   O36044248   3.638   5.203   7.041 -0.0660 -0.7846  0.0079
  105MOL   C36144249   3.600   5.077   7.091 -0.2319 -0.0778 -0.1660
  105MOL   O36244250   3.558   4.986   6.991  0.7208 -0.3879  0.1073
  105MOL   C36344251   3.514   4.867   7.039  0.0296 -0.1040  0.2020
  105MOL   C36444252   3.522   4.819   7.172  1.1270 -0.4347 -0.5031
  105MOL   C36544253   3.448   4.701   7.214 -0.0567 -0.5331 -0.0452
  105MOL   C36644254   3.375   4.628   7.120 -0.2104 -0.2705 -0.2399
  105MOL   C36744255   3.374   4.671   6.985 -0.0587  0.3163 -0.5667
  105MOL   C36844256   3.442   4.790   6.949 -0.8850  0.8408  0.2248
  105MOL   C36944257   3.890   5.180   7.048  0.3397  0.6343  0.2766
  105MOL   H37044258   3.745   5.127   6.885 -1.5937 -0.7097  1.0278
  105MOL   H37144259   3.506   5.084   7.146  1.5809 -1.4117  3.2379
  105MOL   H37244260   3.686   5.037   7.143 -2.1159 -2.3880  1.2246
  105MOL   H37344261   3.570   4.876   7.250  0.5341 -1.2933  0.5001
  105MOL   H37444262   3.449   4.663   7.315 -2.0546 -0.8038 -0.1209
  105MOL   H37544263   3.326   4.538   7.155 -1.4071 -0.1777 -1.6523
  105MOL   H37644264   3.310   4.624   6.912 -1.1696  0.4491  0.3130
  105MOL   H37744265   3.436   4.818   6.845 -0.6745 -0.5829 -0.1865
  105MOL   H37844266   3.894   5.097   7.119  2.3179 -0.5861 -1.2010
  105MOL   H37944267   3.909   5.270   7.107 -0.5050 -0.4293  2.2023
  105MOL   C38044268   3.992   5.143   6.952 -0.0513 -0.5056  0.5519
  105MOL   O38144269   3.991   5.003   6.935 -0.2901  0.3726  0.1958
  105MOL   C38244270   3.931   4.953   6.820  0.8644 -0.2707  0.7693
  105MOL   O38344271   3.977   4.823   6.788  0.3769  0.8815 -0.3083
  105MOL   C38444272   3.951   4.721   6.879 -0.0762 -0.2732 -1.2404
  105MOL   C38544273   4.021   4.605   6.849 -0.6921  0.7031 -0.1087
  105MOL   C38644274   4.017   4.496   6.939  0.4320  0.0080 -0.7819
  105MOL   C38744275   3.931   4.502   7.054  0.6240  0.0803  0.3482
  105MOL   C38844276   3.865   4.619   7.090 -0.6376 -0.4250  0.1593
  105MOL   C38944277   3.879   4.728   7.001  0.0292  1.0481  0.2823
  105MOL   C39044278   4.132   5.182   7.011 -0.1489 -0.3971  0.0442
  105MOL   H39144279   3.969   5.199   6.862 -1.4338 -1.1608  0.5012
  105MOL   H39244280   3.823   4.940   6.829  0.8291 -1.8492 -1.3119
  105MOL   H39344281   3.948   5.020   6.736  0.1587 -1.7675 -0.5990
  105MOL   H39444282   4.075   4.594   6.756 -0.4302  1.7422 -0.0851
  105MOL   H39544283   4.073   4.406   6.922  0.1909 -0.0701 -1.1669
  105MOL   H39644284   3.932   4.417   7.121  1.3953 -0.7238 -0.6687
  105MOL   H39744285   3.820   4.646   7.185 -0.6187  0.1679 -0.0006
  105MOL   H39844286   3.845   4.826   7.030  3.2073  2.4541 -0.4176
  105MOL   H39944287   4.128   5.144   7.113  0.1156 -1.3575 -0.2978
  105MOL   H40044288   4.125   5.290   7.020 -3.9593 -0.6866  2.0265
  105MOL   C40144289   4.256   5.156   6.924  0.0532 -0.1997  0.0560
  105MOL   O40244290   4.242   5.248   6.813  0.1492 -0.2016 -0.0067
  105MOL   C40344291   4.272   5.192   6.689  0.6816 -0.1480 -0.2504
  105MOL   O40444292   4.169   5.137   6.616  0.0150  0.0031 -0.0547
  105MOL   C40544293   4.070   5.213   6.557 -0.2621  0.7113  0.1076
  105MOL   C40644294   4.087   5.351   6.541  0.2650 -0.5257 -0.2300
  105MOL   C40744295   3.997   5.428   6.472 -0.0024 -0.7673  0.3094
  105MOL   C40844296   3.883   5.366   6.417 -0.2553 -0.0362 -0.4885
  105MOL   C40944297   3.870   5.222   6.416  0.1415 -0.3077  0.2132
  105MOL   C41044298   3.965   5.148   6.491  0.2879 -0.1559 -0.9296
  105MOL   C41144299   4.392   5.202   6.994 -0.4566 -0.3638 -0.2473
  105MOL   H41244300   4.259   5.049   6.902 -0.4423 -0.7993  2.8159
  105MOL   H41344301   4.349   5.115   6.700  1.4558  0.7045  0.4388
  105MOL   H41444302   4.335   5.262   6.634  3.4132 -2.3904 -0.0881
  105MOL   H41544303   4.164   5.404   6.595 -0.8858  0.0171  0.9146
  105MOL   H41644304   4.002   5.535   6.458  0.3835 -0.6488  1.2935
  105MOL   H41744305   3.802   5.429   6.384 -1.9125 -2.2826 -0.8493
  105MOL   H41844306   3.795   5.183   6.350 -1.8900  2.7494  0.6083
  105MOL   H41944307   3.945   5.042   6.500  1.1525 -0.3885 -1.6336
  105MOL   H42044308   4.483   5.161   6.950  0.8217  0.8945  1.1641
  105MOL   H42144309   4.386   5.156   7.093 -2.3490 -0.7442 -0.5091
  105MOL   H42244310   4.400   5.310   7.003 -2.3821 -0.1554 -0.7518
  106MOL     C144311   2.699   4.021   3.327  0.2595 -0.2301 -0.0806
  106MOL     O244312   2.708   4.109   3.437  0.4832 -0.1962  0.1378
  106MOL     C344313   2.797   4.215   3.405 -0.1434 -0.2558  0.0160
  106MOL     O444314   2.744   4.292   3.297  0.2875 -0.0155  0.1967
  106MOL     C544315   2.817   4.400   3.251 -0.4349 -0.0284 -0.3502
  106MOL     C644316   2.752   4.522   3.229 -0.5018 -0.2921  0.3348
  106MOL     C744317   2.827   4.639   3.191  0.1664  0.4707  0.0094
  106MOL     C844318   2.961   4.628   3.151  0.1434 -0.8423 -0.7318
  106MOL     C944319   3.025   4.506   3.173 -0.0752  0.0010 -0.2008
  106MOL    C1044320   2.958   4.394   3.228 -0.4917  0.8241 -0.1612
  106MOL    C1144321   2.611   3.901   3.362  0.2518  0.4552  0.1042
  106MOL    H1244322   2.654   4.068   3.239  0.3944 -1.6975 -0.9538
  106MOL    H1344323   2.805   4.281   3.491  1.7381 -0.2757 -0.1339
  106MOL    H1444324   2.892   4.166   3.383  0.8519  1.1611  1.0345
  106MOL    H1544325   2.645   4.524   3.243 -0.4549 -2.2810  1.1857
  106MOL    H1644326   2.777   4.735   3.191 -1.5562 -0.4011  0.3689
  106MOL    H1744327   3.009   4.718   3.115 -1.4870  0.4900  0.3327
  106MOL    H1844328   3.129   4.507   3.144  0.9062 -3.4797  2.7669
  106MOL    H1944329   3.008   4.301   3.247 -1.0584  0.7510  1.0231
  106MOL    H2044330   2.526   3.950   3.408  0.5849 -0.4826  1.7563
  106MOL    H2144331   2.657   3.836   3.437  0.3836  0.8485  0.3633
  106MOL    H2244332   2.791   3.987   3.279 -0.7091 -1.8673 -0.8609
  106MOL    C2344333   2.567   3.814   3.240  0.0403  0.5128 -0.5916
  106MOL    O2444334   2.462   3.891   3.182  0.1847  0.1302  0.2123
  106MOL    C2544335   2.443   3.867   3.049 -0.9128 -1.1482 -0.6292
  106MOL    O2644336   2.365   3.757   3.026 -0.1656  0.1378 -0.3805
  106MOL    C2744337   2.408   3.655   2.943 -0.5489 -0.4431  0.2896
  106MOL    C2844338   2.309   3.562   2.893  0.0910  0.3094 -0.5867
  106MOL    C2944339   2.346   3.458   2.802 -0.0295  0.3403  0.4235
  106MOL    C3044340   2.477   3.439   2.760  0.7615 -0.2596  0.0226
  106MOL    C3144341   2.575   3.526   2.805 -0.4111 -0.0453 -0.1339
  106MOL    C3244342   2.541   3.630   2.893 -0.4033  0.5753  0.3416
  106MOL    C3344343   2.518   3.678   3.287  0.2304  0.2477  0.1260
  106MOL    H3444344   2.648   3.797   3.171 -0.9805 -1.7879 -1.2504
  106MOL    H3544345   2.539   3.870   2.997 -1.0907 -0.6652 -0.9293
  106MOL    H3644346   2.384   3.944   3.000  2.9094  0.2371 -3.3039
  106MOL    H3744347   2.205   3.566   2.922 -0.6711  0.0638 -3.2114
  106MOL    H3844348   2.273   3.387   2.766  2.6230 -2.3552  0.1169
  106MOL    H3944349   2.498   3.357   2.692 -0.4453 -0.1551 -0.4851
  106MOL    H4044350   2.680   3.510   2.782 -0.6779 -2.6264  0.2267
  106MOL    H4144351   2.619   3.687   2.941 -0.0821  0.6872 -0.3138
  106MOL    H4244352   2.442   3.644   3.217 -1.2467  2.1996  0.7269
  106MOL    H4344353   2.473   3.696   3.385  0.0738 -1.0517  0.3032
  106MOL    C4444354   2.633   3.571   3.287 -0.4272 -0.3955 -0.4772
  106MOL    O4544355   2.711   3.566   3.162  0.7694  0.5116  0.4901
  106MOL    C4644356   2.853   3.534   3.169  0.4566 -0.3135  0.4977
  106MOL    O4744357   2.921   3.618   3.252 -0.2322 -0.5264 -0.7364
  106MOL    C4844358   2.976   3.729   3.188 -0.1230  0.2925 -0.5492
  106MOL    C4944359   2.935   3.788   3.062  0.0067 -0.7340 -0.0917
  106MOL    C5044360   3.008   3.898   3.006  0.1468 -0.2434 -0.2142
  106MOL    C5144361   3.121   3.950   3.071 -0.2248 -0.8551 -0.3054
  106MOL    C5244362   3.167   3.880   3.177  0.0469  0.1734 -0.4029
  106MOL    C5344363   3.098   3.774   3.247 -0.6612  0.8056  0.1710
  106MOL    C5444364   2.572   3.429   3.317 -0.4120  0.5919 -0.2817
  106MOL    H5544365   2.708   3.595   3.363 -1.9227  1.1627  0.5233
  106MOL    H5644366   2.896   3.533   3.069 -1.1889 -2.0465 -0.2422
  106MOL    H5744367   2.856   3.435   3.214 -0.4824 -0.1930  0.8427
  106MOL    H5844368   2.845   3.758   3.010  0.0077  1.6215 -1.5309
  106MOL    H5944369   2.975   3.945   2.915 -0.9710 -0.2395  0.1825
  106MOL    H6044370   3.179   4.019   3.012 -1.3141  0.1491 -0.2293
  106MOL    H6144371   3.262   3.909   3.218 -0.0772 -1.5502  1.1932
  106MOL    H6244372   3.137   3.717   3.330 -1.0538  1.2189  0.6446
  106MOL    H6344373   2.666   3.376   3.302 -1.2288 -0.9824  0.0695
  106MOL    H6444374   2.538   3.427   3.421  1.2989 -1.2481  0.2857
  106MOL    C6544375   2.465   3.380   3.219  0.1052  0.0109 -0.8244
  106MOL    O6644376   2.469   3.238   3.213  0.0445  0.0111 -0.2055
  106MOL    C6744377   2.539   3.188   3.108  0.0222 -0.3178  0.1876
  106MOL    O6844378   2.677   3.190   3.133  0.4747  0.2747 -0.4013
  106MOL    C6944379   2.757   3.171   3.018  0.1249 -0.5887 -0.0707
  106MOL    C7044380   2.714   3.160   2.879 -0.6967  0.1908 -0.0342
  106MOL    C7144381   2.811   3.167   2.776 -0.1420 -0.9099 -0.3807
  106MOL    C7244382   2.951   3.179   2.807  0.6410  0.3726  0.6114
  106MOL    C7344383   2.992   3.185   2.944  0.1368  0.0095 -0.0631
  106MOL    C7444384   2.892   3.179   3.043  0.0374 -0.3794 -0.6976
  106MOL    C7544385   2.320   3.405   3.267 -0.4532  0.5573 -0.0259
  106MOL    H7644386   2.485   3.421   3.120  0.6332 -1.9280 -1.5593
  106MOL    H7744387   2.509   3.242   3.018 -2.0784  0.0064  1.0503
  106MOL    H7844388   2.516   3.082   3.098  0.4739 -0.5306  1.3276
  106MOL    H7944389   2.614   3.156   2.839  0.3118  2.1134 -2.9313
  106MOL    H8044390   2.773   3.168   2.675 -1.8954 -0.2803  0.2642
  106MOL    H8144391   3.032   3.180   2.736  0.5751  2.0030  0.5418
  106MOL    H8244392   3.097   3.192   2.968 -0.0855  0.7539  0.6850
  106MOL    H8344393   2.927   3.188   3.145  1.2576  0.7282 -1.2016
  106MOL    H8444394   2.298   3.508   3.292 -0.4526  0.7330 -0.7425
  106MOL    H8544395   2.246   3.393   3.188 -0.6496 -0.3011  0.2766
  106MOL    C8644396   2.261   3.334   3.388  0.1814 -0.2479 -1.0091
  106MOL    O8744397   2.231   3.428   3.488  0.2920  0.3014 -0.2943
  106MOL    C8844398   2.249   3.385   3.623  0.4128 -0.1849  0.7462
  106MOL    O8944399   2.375   3.420   3.672 -0.4511  0.9824 -0.6859
  106MOL    C9044400   2.408   3.556   3.683  0.3705 -0.1967  0.3068
  106MOL    C9144401   2.547   3.588   3.701 -0.2991 -0.3663  0.3714
  106MOL    C9244402   2.588   3.725   3.715 -0.1278  0.1091  0.3080
  106MOL    C9344403   2.491   3.826   3.698 -0.6845  0.0894 -0.5575
  106MOL    C9444404   2.351   3.797   3.681 -0.5450  0.6810  0.4846
  106MOL    C9544405   2.319   3.664   3.669 -0.5504 -0.1327  1.0368
  106MOL    C9644406   2.126   3.261   3.356  0.4644 -0.1563  0.4288
  106MOL    H9744407   2.337   3.271   3.432  1.6597  3.3712  1.9325
  106MOL    H9844408   2.236   3.277   3.631  0.6687 -0.2369  0.4624
  106MOL    H9944409   2.176   3.437   3.684  0.3391  2.4243 -1.5043
  106MOL   H10044410   2.611   3.504   3.721  0.3598  0.6658  2.7270
  106MOL   H10144411   2.693   3.735   3.737  0.0281 -1.4611  0.3661
  106MOL   H10244412   2.522   3.929   3.705 -1.2335  0.2895 -1.0719
  106MOL   H10344413   2.273   3.871   3.666 -0.8240  0.1907 -0.5708
  106MOL   H10444414   2.218   3.644   3.638 -0.6490  2.9676 -0.8259
  106MOL   H10544415   2.091   3.236   3.456  0.6744  2.7211  1.2947
  106MOL   H10644416   2.054   3.336   3.324 -0.0542 -0.9842 -0.3640
  106MOL   C10744417   2.133   3.127   3.278  0.4389 -0.3519  0.6648
  106MOL   O10844418   2.178   3.022   3.371  0.1964 -0.1200  0.5077
  106MOL   C10944419   2.315   2.990   3.369  0.3805  0.5825  0.1924
  106MOL   O11044420   2.353   2.925   3.249 -0.2022 -0.3269 -0.1882
  106MOL   C11144421   2.488   2.872   3.227  0.5506 -0.3952  0.0010
  106MOL   C11244422   2.591   2.875   3.328 -0.0548  0.0803 -0.3232
  106MOL   C11344423   2.722   2.840   3.293  0.0529  0.2751 -0.3148
  106MOL   C11444424   2.752   2.783   3.170  0.1381 -0.0857  0.3868
  106MOL   C11544425   2.647   2.766   3.075  0.2282 -0.0965  0.2928
  106MOL   C11644426   2.519   2.822   3.100 -0.6201 -0.0649 -0.0954
  106MOL   C11744427   2.005   3.077   3.205  0.3322 -0.0692  0.1893
  106MOL   H11844428   2.204   3.133   3.196 -0.3561  0.8238  0.0554
  106MOL   H11944429   2.343   2.943   3.463  0.3007  0.5128  0.1820
  106MOL   H12044430   2.371   3.083   3.372  2.0097 -0.4174  1.0298
  106MOL   H12144431   2.568   2.906   3.428 -3.3945  0.6498 -1.2192
  106MOL   H12244432   2.791   2.844   3.376 -0.4184 -1.3629  0.1735
  106MOL   H12344433   2.849   2.741   3.148  0.4723  1.5471 -1.4233
  106MOL   H12444434   2.664   2.718   2.980  3.5561 -1.8610  1.6896
  106MOL   H12544435   2.440   2.816   3.027  0.5176  1.0813 -1.4603
  106MOL   H12644436   1.926   3.044   3.273 -0.4210 -0.0120 -0.6365
  106MOL   H12744437   2.024   2.989   3.144  0.2308 -0.3330  0.5348
  106MOL   C12844438   1.935   3.177   3.110 -0.2221 -0.1844  0.2142
  106MOL   O12944439   1.811   3.116   3.060  0.2501  0.1092 -0.3071
  106MOL   C13044440   1.699   3.120   3.136  0.1817 -0.6881  0.5799
  106MOL   O13144441   1.646   3.249   3.149 -0.3951 -0.4265 -0.2712
  106MOL   C13244442   1.590   3.314   3.040 -0.7632 -0.2952 -0.2558
  106MOL   C13344443   1.566   3.452   3.044  0.0937 -0.8340  0.3326
  106MOL   C13444444   1.516   3.517   2.927 -0.5228  0.6294  1.1983
  106MOL   C13544445   1.495   3.449   2.807 -0.7951 -0.0552 -0.4262
  106MOL   C13644446   1.498   3.307   2.811 -0.7893 -0.0732 -0.3556
  106MOL   C13744447   1.550   3.241   2.920  0.2255 -0.2994  0.1207
  106MOL   C13844448   2.025   3.207   2.995 -1.0453  0.6965  0.3253
  106MOL   H13944449   1.911   3.271   3.161  0.9502  0.5448 -0.5461
  106MOL   H14044450   1.717   3.081   3.236  0.0428  2.9090  2.0696
  106MOL   H14144451   1.623   3.049   3.102 -1.0514  0.2244  1.3669
  106MOL   H14244452   1.585   3.504   3.136  0.3275  2.1401 -1.3448
  106MOL   H14344453   1.494   3.623   2.927  0.5904  0.8622  0.5020
  106MOL   H14444454   1.459   3.496   2.716  0.1332  1.2135 -0.1512
  106MOL   H14544455   1.488   3.250   2.720 -0.3136 -1.0692  0.2128
  106MOL   H14644456   1.547   3.134   2.911 -2.0849 -0.1760 -0.9771
  106MOL   H14744457   2.126   3.233   3.026 -0.4773  1.3319 -2.0143
  106MOL   H14844458   2.049   3.116   2.940  0.3637  1.3229 -0.0957
  106MOL   C14944459   1.953   3.313   2.915  0.4239  0.5781 -0.2170
  106MOL   O15044460   1.998   3.439   2.971  0.4825  0.2477 -0.0402
  106MOL   C15144461   1.912   3.559   2.959 -0.6128  0.3700  0.1470
  106MOL   O15244462   1.835   3.587   3.073 -0.3157  0.3546  0.2519
  106MOL   C15344463   1.900   3.629   3.185  0.3623 -0.3187 -0.1857
  106MOL   C15444464   1.823   3.654   3.298  0.2900 -0.3074 -0.1923
  106MOL   C15544465   1.889   3.697   3.416  0.1171  0.5523  0.4661
  106MOL   C15644466   2.026   3.726   3.418 -0.0472 -0.0613 -0.2153
  106MOL   C15744467   2.100   3.695   3.303 -0.1090 -0.1329  0.0230
  106MOL   C15844468   2.040   3.651   3.187 -0.3593  0.4238 -0.0634
  106MOL   C15944469   1.981   3.307   2.766 -0.0424  0.6087 -0.0228
  106MOL   H16044470   1.848   3.322   2.943  0.9588 -1.0552  2.4944
  106MOL   H16144471   1.971   3.641   2.917 -0.3858  0.9791  1.6242
  106MOL   H16244472   1.852   3.541   2.870 -0.7249  0.4358  0.2090
  106MOL   H16344473   1.715   3.651   3.296  0.2994 -1.7558  0.8919
  106MOL   H16444474   1.832   3.714   3.506 -1.0214 -1.4308  0.1383
  106MOL   H16544475   2.073   3.761   3.509  2.3004 -3.8016  0.1587
  106MOL   H16644476   2.207   3.705   3.309  0.0074 -1.2591 -0.0801
  106MOL   H16744477   2.104   3.645   3.100  0.1275 -3.4912  0.4528
  106MOL   H16844478   2.080   3.262   2.759  1.6119  3.9610  0.7969
  106MOL   H16944479   1.984   3.409   2.730 -1.9770  1.0768  1.0710
  106MOL   C17044480   1.880   3.234   2.671 -0.6891  0.0189  0.8465
  106MOL   O17144481   1.903   3.289   2.544  0.3985  0.6486 -0.1159
  106MOL   C17244482   1.823   3.393   2.505 -0.2677 -0.3693  0.2099
  106MOL   O17344483   1.690   3.358   2.493 -0.0895 -0.0681 -0.0169
  106MOL   C17444484   1.612   3.454   2.432  0.4447  0.3572  0.2060
  106MOL   C17544485   1.498   3.418   2.360  0.2302  0.3715  0.4619
  106MOL   C17644486   1.415   3.511   2.295  0.0480 -1.1654 -0.3988
  106MOL   C17744487   1.455   3.643   2.289  0.5199 -0.1602  0.0348
  106MOL   C17844488   1.566   3.690   2.366 -0.6271  0.1026 -0.0206
  106MOL   C17944489   1.640   3.593   2.441 -0.7435  0.2235 -0.4834
  106MOL   C18044490   1.900   3.083   2.654 -0.5450  0.0572 -0.1352
  106MOL   H18144491   1.783   3.259   2.715 -2.2253 -0.5344 -2.0705
  106MOL   H18244492   1.854   3.436   2.410 -1.1767  2.9230  1.3245
  106MOL   H18344493   1.836   3.477   2.574 -0.1650 -0.6091  0.4854
  106MOL   H18444494   1.466   3.315   2.360 -3.0110  1.3259 -1.3450
  106MOL   H18544495   1.324   3.485   2.241 -0.1030  3.7399 -2.7429
  106MOL   H18644496   1.390   3.712   2.238  0.4315 -0.1121  0.2095
  106MOL   H18744497   1.591   3.794   2.378  0.8943 -0.4424  1.8021
  106MOL   H18844498   1.723   3.632   2.498 -1.3469  1.1856 -0.2449
  106MOL   H18944499   1.935   3.058   2.554 -1.5453 -0.8056 -0.2784
  106MOL   H19044500   1.991   3.061   2.710  0.5989  2.4948 -0.9712
  106MOL   C19144501   1.778   2.990   2.696  0.4877 -0.5196 -0.7654
  106MOL   O19244502   1.842   2.865   2.727  0.2149  0.3041  0.6650
  106MOL   C19344503   1.833   2.837   2.862  0.1090  0.0139  0.1818
  106MOL   O19444504   1.857   2.698   2.888 -0.3865  0.3189 -0.3226
  106MOL   C19544505   1.811   2.647   3.003 -0.0738 -0.5138  0.8280
  106MOL   C19644506   1.810   2.507   3.021  0.3322  0.3291 -0.5259
  106MOL   C19744507   1.775   2.444   3.142  0.2646  0.4169 -0.9013
  106MOL   C19844508   1.740   2.527   3.252 -0.5608 -0.2291 -0.5541
  106MOL   C19944509   1.739   2.668   3.236  0.3946 -0.1031  0.1060
  106MOL   C20044510   1.779   2.727   3.114  0.0716 -0.5515 -0.8909
  106MOL   C20144511   1.682   2.953   2.575 -0.1850 -0.2354 -0.3165
  106MOL   H20244512   1.727   3.036   2.781  2.2993 -0.3997  0.2654
  106MOL   H20344513   1.726   2.840   2.885 -0.0626  1.6733 -0.7277
  106MOL   H20444514   1.894   2.900   2.928  0.3468 -0.1842  0.1521
  106MOL   H20544515   1.829   2.442   2.937  1.0437  1.0035 -0.8996
  106MOL   H20644516   1.764   2.336   3.144 -0.3169  0.4805 -0.5635
  106MOL   H20744517   1.709   2.491   3.349 -0.8573 -0.1541 -0.6237
  106MOL   H20844518   1.710   2.736   3.315 -1.1110 -0.7692  0.1518
  106MOL   H20944519   1.778   2.835   3.111  1.7796 -0.4224  1.7430
  106MOL   H21044520   1.662   3.037   2.508 -0.5812 -1.3331 -1.5935
  106MOL   H21144521   1.737   2.885   2.510 -0.1266 -0.4176 -0.0744
  106MOL   C21244522   1.553   2.875   2.611 -0.1237 -0.4194  0.4822
  106MOL   O21344523   1.476   2.977   2.670  0.2632 -1.1027 -0.5217
  106MOL   C21444524   1.374   2.922   2.753 -0.2883  0.4130  0.8858
  106MOL   O21544525   1.416   2.926   2.888  0.0714  0.3168 -0.7946
  106MOL   C21644526   1.342   2.850   2.976 -0.5094 -0.6847 -0.2871
  106MOL   C21744527   1.219   2.789   2.957  0.4573 -0.3215  0.1136
  106MOL   C21844528   1.147   2.713   3.056  0.5662 -0.8986  0.0944
  106MOL   C21944529   1.206   2.706   3.183  0.0013  0.0016  0.3750
  106MOL   C22044530   1.335   2.766   3.213  0.4586  0.3285  0.4788
  106MOL   C22144531   1.397   2.834   3.110  0.2074 -0.1901  0.2159
  106MOL   C22244532   1.484   2.817   2.489  0.4255  0.5913  0.1283
  106MOL   H22344533   1.591   2.798   2.680  1.8029  1.0225  1.0766
  106MOL   H22444534   1.335   2.824   2.726  2.3637 -0.3284 -0.4505
  106MOL   H22544535   1.295   2.997   2.762 -0.8469  0.1005 -1.2607
  106MOL   H22644536   1.161   2.806   2.868  1.0838 -0.1746 -0.2633
  106MOL   H22744537   1.051   2.672   3.026 -0.5180  0.6857  1.3314
  106MOL   H22844538   1.154   2.649   3.259  0.6928 -0.6027  0.3976
  106MOL   H22944539   1.370   2.771   3.315 -0.3730  2.4201  0.6928
  106MOL   H23044540   1.487   2.890   3.130  0.4150  0.3779 -2.1038
  106MOL   H23144541   1.380   2.791   2.509  0.1924  0.1684 -1.5004
  106MOL   H23244542   1.476   2.893   2.410 -0.8407 -0.5543 -0.8752
  106MOL   C23344543   1.549   2.687   2.432  0.2788 -0.0438 -0.1409
  106MOL   O23444544   1.542   2.580   2.523 -0.1947 -0.0867  0.4771
  106MOL   C23544545   1.673   2.526   2.551  0.2330 -0.8493 -0.2867
  106MOL   O23644546   1.668   2.394   2.605  0.0447  0.4812  0.0970
  106MOL   C23744547   1.588   2.368   2.718  0.1656  0.0485 -0.1028
  106MOL   C23844548   1.543   2.236   2.744 -0.3931  0.3654  1.1305
  106MOL   C23944549   1.469   2.202   2.855  0.6684 -0.8586 -0.5151
  106MOL   C24044550   1.427   2.307   2.938  0.5863 -0.3559 -0.4015
  106MOL   C24144551   1.464   2.442   2.917 -0.1478 -0.4141  0.4765
  106MOL   C24244552   1.551   2.471   2.807  0.0715 -0.4926 -0.4742
  106MOL   C24344553   1.486   2.650   2.292  0.5634 -0.0072  0.0390
  106MOL   H24444554   1.650   2.720   2.408 -0.1745  1.8764  0.4414
  106MOL   H24544555   1.743   2.592   2.602  0.3560 -1.3504  0.2079
  106MOL   H24644556   1.719   2.509   2.454  0.4132  1.9225 -0.7458
  106MOL   H24744557   1.565   2.157   2.674 -1.1630 -0.3245  1.6586
  106MOL   H24844558   1.429   2.102   2.865 -0.1888 -0.2216  2.9558
  106MOL   H24944559   1.361   2.289   3.022 -0.8759  0.8769 -1.2695
  106MOL   H25044560   1.434   2.513   2.993 -2.5284 -0.2924 -0.5553
  106MOL   H25144561   1.587   2.573   2.798 -3.6101  0.9853  0.7150
  106MOL   H25244562   1.506   2.730   2.220 -0.5344 -0.8334 -1.2106
  106MOL   H25344563   1.538   2.564   2.247 -0.5144 -0.0572 -1.1252
  106MOL   C25444564   1.334   2.630   2.292 -0.7004  0.3052  0.2118
  106MOL   O25544565   1.283   2.759   2.256  0.6794 -0.5102 -0.1838
  106MOL   C25644566   1.165   2.779   2.184  0.1658  0.5074 -0.0060
  106MOL   O25744567   1.161   2.727   2.051 -0.2588  0.2860 -0.5657
  106MOL   C25844568   1.060   2.777   1.966 -0.0269  0.0650  0.5538
  106MOL   C25944569   1.068   2.727   1.833 -0.6918 -0.1915 -0.7524
  106MOL   C26044570   0.976   2.776   1.744 -0.0613 -0.6382 -0.0037
  106MOL   C26144571   0.890   2.879   1.778  0.0478  0.7107  0.5124
  106MOL   C26244572   0.876   2.919   1.910 -0.7057  0.0896 -0.1302
  106MOL   C26344573   0.959   2.865   2.002  1.1843  0.0863 -0.1556
  106MOL   C26444574   1.294   2.510   2.189  0.3738  0.6368 -0.6087
  106MOL   H26544575   1.292   2.592   2.385 -0.7505 -1.4248 -0.4945
  106MOL   H26644576   1.168   2.888   2.181  2.1176  0.4228 -2.1729
  106MOL   H26744577   1.074   2.751   2.239 -0.7134  0.0846 -1.6404
  106MOL   H26844578   1.137   2.648   1.806 -0.2646  0.4095 -1.4400
  106MOL   H26944579   0.973   2.737   1.643  1.9915  1.1690 -0.8256
  106MOL   H27044580   0.827   2.919   1.700 -3.0809 -1.6070  1.7685
  106MOL   H27144581   0.816   3.003   1.945  2.7096  2.8999 -0.7766
  106MOL   H27244582   0.954   2.897   2.105 -1.7186 -0.5642 -0.0499
  106MOL   H27344583   1.196   2.519   2.143  0.6251  0.1934 -1.2299
  106MOL   H27444584   1.357   2.511   2.100  0.5098  0.6890 -0.5129
  106MOL   C27544585   1.306   2.368   2.243 -0.1158  0.1783 -0.3967
  106MOL   O27644586   1.217   2.334   2.343 -0.0559 -0.0186 -0.0272
  106MOL   C27744587   1.266   2.308   2.479  0.2582 -0.1044 -0.2715
  106MOL   O27844588   1.320   2.180   2.494  0.4522  0.0272 -0.2853
  106MOL   C27944589   1.236   2.072   2.511  0.5482 -0.5859 -0.6054
  106MOL   C28044590   1.289   1.956   2.569 -0.0425  0.8083 -0.2901
  106MOL   C28144591   1.212   1.840   2.576 -0.1795  0.6873 -0.3931
  106MOL   C28244592   1.083   1.835   2.516 -1.0507  0.5371 -0.3297
  106MOL   C28344593   1.022   1.953   2.466 -0.0540  0.3390  0.6710
  106MOL   C28444594   1.100   2.073   2.464  0.0406 -0.2509 -0.0865
  106MOL   C28544595   1.289   2.267   2.126 -0.7712 -0.1959 -0.1909
  106MOL   H28644596   1.403   2.358   2.293  0.2969 -1.3372 -1.4950
  106MOL   H28744597   1.188   2.327   2.553  1.8763  0.9670  1.2072
  106MOL   H28844598   1.340   2.382   2.512 -0.1220  0.3362 -0.4051
  106MOL   H28944599   1.391   1.949   2.602 -0.3650 -2.3961  0.1717
  106MOL   H29044600   1.262   1.752   2.613 -0.6100 -0.0610 -1.5735
  106MOL   H29144601   1.030   1.741   2.516  0.1652 -0.1812  1.7258
  106MOL   H29244602   0.924   1.952   2.420 -0.3988 -1.1490  1.4161
  106MOL   H29344603   1.057   2.167   2.433  3.7235  1.2262 -0.9637
  106MOL   H29444604   1.349   2.292   2.039  1.0281 -0.1138  1.0429
  106MOL   H29544605   1.184   2.261   2.099 -0.9326 -1.6106  0.6959
  106MOL   C29644606   1.342   2.125   2.145  0.5965 -0.1070 -0.1918
  106MOL   O29744607   1.292   2.041   2.043 -0.0974 -0.4707  0.3749
  106MOL   C29844608   1.161   1.993   2.061 -0.6958 -0.0735  0.3018
  106MOL   O29944609   1.156   1.860   2.111  0.1354  0.2648 -0.2286
  106MOL   C30044610   1.153   1.761   2.019 -0.3923  0.6556 -0.1734
  106MOL   C30144611   1.220   1.765   1.900  0.3319  0.4749 -0.3300
  106MOL   C30244612   1.224   1.649   1.819  0.2514  0.4927  0.8818
  106MOL   C30344613   1.176   1.525   1.869 -0.7552  0.2882 -0.5040
  106MOL   C30444614   1.123   1.518   2.002  0.2929 -0.4368 -0.1499
  106MOL   C30544615   1.099   1.640   2.068  0.1746 -0.2838 -0.1940
  106MOL   C30644616   1.500   2.115   2.146  0.5230 -0.7377  0.2456
  106MOL   H30744617   1.304   2.093   2.242 -1.0676 -2.6519 -1.6409
  106MOL   H30844618   1.119   2.002   1.961  0.1412  0.9753  0.0396
  106MOL   H30944619   1.098   2.050   2.129  0.2083  2.0346 -0.5901
  106MOL   H31044620   1.258   1.859   1.860  1.1277  0.7865  1.1288
  106MOL   H31144621   1.274   1.656   1.723  1.8372 -1.1680  1.5378
  106MOL   H31244622   1.186   1.444   1.799 -1.1036 -1.0635  0.9925
  106MOL   H31344623   1.084   1.430   2.050 -0.5148  1.0562  1.9728
  106MOL   H31444624   1.061   1.635   2.169  2.8352 -0.8518  0.8174
  106MOL   H31544625   1.540   2.199   2.203  0.2114 -0.6323  0.3109
  106MOL   H31644626   1.535   2.130   2.044 -0.9442  0.6262 -0.0914
  106MOL   C31744627   1.568   1.991   2.207  0.8543 -0.5323 -0.7313
  106MOL   O31844628   1.691   2.026   2.279 -0.1913  0.2560  1.0143
  106MOL   C31944629   1.673   2.072   2.406  1.2682  0.3868  0.0659
  106MOL   O32044630   1.640   1.972   2.498  0.2712 -0.0984 -0.1596
  106MOL   C32144631   1.729   1.871   2.540 -0.2499 -0.8297  0.4890
  106MOL   C32244632   1.690   1.770   2.627 -0.1838 -0.3250  0.7384
  106MOL   C32344633   1.773   1.660   2.657  0.4942 -0.1308 -0.0234
  106MOL   C32444634   1.908   1.658   2.604  0.0261  0.7751  0.4791
  106MOL   C32544635   1.951   1.765   2.527 -0.3273 -0.1371 -0.0213
  106MOL   C32644636   1.860   1.866   2.487  0.3278 -0.2141  0.2479
  106MOL   C32744637   1.609   1.890   2.097  0.2263  0.0910  0.0907
  106MOL   H32844638   1.498   1.941   2.274 -0.8744  1.1568 -1.2428
  106MOL   H32944639   1.595   2.149   2.406  0.5637 -0.3013  2.0057
  106MOL   H33044640   1.767   2.111   2.444  0.9563 -0.1697  1.4300
  106MOL   H33144641   1.586   1.767   2.656 -1.0093  0.1089 -2.0966
  106MOL   H33244642   1.737   1.581   2.722  2.0304 -0.2048  0.7666
  106MOL   H33344643   1.979   1.588   2.647 -0.1353 -0.0385 -0.5431
  106MOL   H33444644   2.048   1.758   2.479 -0.2753  2.1971 -0.3051
  106MOL   H33544645   1.903   1.925   2.408 -0.7594 -0.3789 -0.4775
  106MOL   H33644646   1.516   1.860   2.048  1.2198  0.7258 -2.2650
  106MOL   H33744647   1.665   1.934   2.014 -1.7520  1.2048 -0.7017
  106MOL   C33844648   1.677   1.767   2.143 -0.3716 -0.5090  0.7266
  106MOL   O33944649   1.599   1.655   2.100  0.4912  0.4725 -0.7320
  106MOL   C34044650   1.483   1.624   2.172 -0.1995 -0.1632  0.0415
  106MOL   O34144651   1.522   1.584   2.301 -0.4947 -0.7019 -0.2796
  106MOL   C34244652   1.436   1.505   2.369 -0.1662 -0.9048 -0.5855
  106MOL   C34344653   1.303   1.472   2.319 -0.1453 -0.2724  0.2628
  106MOL   C34444654   1.221   1.394   2.409 -0.6060  0.3500  0.0743
  106MOL   C34544655   1.267   1.342   2.524  0.2736 -0.3908 -0.1732
  106MOL   C34644656   1.395   1.365   2.567  0.0227  0.2716  0.4252
  106MOL   C34744657   1.483   1.449   2.491  0.4173  0.6663 -0.2067
  106MOL   C34844658   1.805   1.745   2.060 -0.5103  0.0222  1.3730
  106MOL   H34944659   1.690   1.770   2.251 -2.6882 -0.9806  1.0567
  106MOL   H35044660   1.423   1.555   2.112  0.3707 -0.7991  0.1901
  106MOL   H35144661   1.419   1.711   2.187 -0.8196 -0.7598  0.9630
  106MOL   H35244662   1.254   1.508   2.230 -2.0976  1.2091  1.8972
  106MOL   H35344663   1.121   1.363   2.386 -0.4695  1.7694 -2.7119
  106MOL   H35444664   1.197   1.295   2.592 -1.5102 -0.1704 -1.7915
  106MOL   H35544665   1.424   1.328   2.664 -1.8982  1.3171  1.4325
  106MOL   H35644666   1.581   1.474   2.529  0.0531  0.0266  1.1730
  106MOL   H35744667   1.846   1.846   2.049 -1.1301  0.3504  2.0051
  106MOL   H35844668   1.783   1.714   1.958  1.0404  1.3104  0.6224
  106MOL   C35944669   1.906   1.647   2.131  0.1078  0.7369  0.2566
  106MOL   O36044670   2.035   1.654   2.070 -0.4328  0.1205  0.1193
  106MOL   C36144671   2.115   1.756   2.128 -0.1648 -0.1052  0.5965
  106MOL   O36244672   2.192   1.713   2.227  0.4119 -0.1714 -0.7984
  106MOL   C36344673   2.328   1.693   2.203  0.1441  0.4287  0.6277
  106MOL   C36444674   2.372   1.664   2.078  0.2349 -0.2013  0.8411
  106MOL   C36544675   2.511   1.664   2.051 -0.2270  0.5511  0.5236
  106MOL   C36644676   2.603   1.685   2.153 -0.4342  0.4495  0.2640
  106MOL   C36744677   2.560   1.718   2.282 -0.1272  0.3338  0.6698
  106MOL   C36844678   2.421   1.720   2.306  0.0016  0.4885 -0.4002
  106MOL   C36944679   1.855   1.507   2.128 -0.0795  0.1534  0.1614
  106MOL   H37044680   1.895   1.670   2.237  0.7621 -1.7938  0.8963
  106MOL   H37144681   2.050   1.828   2.177  1.2916  1.3527  0.4329
  106MOL   H37244682   2.151   1.822   2.049 -0.9160  0.3054  0.6027
  106MOL   H37344683   2.304   1.644   1.997  0.2006 -1.8447  1.2475
  106MOL   H37444684   2.542   1.646   1.949  0.1269 -0.4658  0.8079
  106MOL   H37544685   2.710   1.691   2.145 -0.4579  1.0308  0.3587
  106MOL   H37644686   2.621   1.752   2.364  0.6916  0.6233 -0.0606
  106MOL   H37744687   2.386   1.763   2.398  0.1084 -2.4930  1.0960
  106MOL   H37844688   1.819   1.487   2.027 -0.4780  1.8495 -0.0440
  106MOL   H37944689   1.760   1.516   2.180 -0.1471  2.2699 -0.2814
  106MOL   C38044690   1.938   1.393   2.197 -0.0034 -0.7514 -0.9010
  106MOL   O38144691   1.853   1.273   2.207 -0.6603 -0.1102 -0.1237
  106MOL   C38244692   1.855   1.196   2.084  0.0350  0.3648 -0.6087
  106MOL   O38344693   1.793   1.250   1.977  0.5389 -0.2283 -0.0571
  106MOL   C38444694   1.657   1.241   1.975 -0.1854 -0.3393 -0.1748
  106MOL   C38544695   1.602   1.258   1.848 -0.1663 -0.3081  0.2348
  106MOL   C38644696   1.463   1.275   1.841  0.1995  0.0323  0.3490
  106MOL   C38744697   1.384   1.264   1.951  0.0285 -0.4634 -0.2980
  106MOL   C38844698   1.437   1.233   2.076 -0.0154  0.0841 -0.1726
  106MOL   C38944699   1.573   1.225   2.091 -0.0319 -0.0855 -0.3842
  106MOL   C39044700   2.001   1.432   2.335 -0.4133 -0.4018 -0.0118
  106MOL   H39144701   2.020   1.385   2.125  0.5423  0.7903 -0.4711
  106MOL   H39244702   1.957   1.169   2.055 -0.3128 -2.6181  0.7724
  106MOL   H39344703   1.804   1.101   2.099 -0.6778  0.4682 -2.2211
  106MOL   H39444704   1.661   1.256   1.757 -0.3276 -2.1220  0.1418
  106MOL   H39544705   1.419   1.289   1.743  0.3662 -2.3224 -0.1080
  106MOL   H39644706   1.277   1.265   1.938 -0.1036  1.9044  0.8164
  106MOL   H39744707   1.378   1.207   2.162 -2.6768  1.2588 -1.5810
  106MOL   H39844708   1.616   1.220   2.190  4.5847 -1.0413 -2.3075
  106MOL   H39944709   1.929   1.410   2.413 -0.8892  0.8151 -0.0990
  106MOL   H40044710   2.032   1.536   2.347 -0.0892 -0.5848  0.8135
  106MOL   C40144711   2.120   1.344   2.382 -0.0110 -0.0513  0.5334
  106MOL   O40244712   2.203   1.323   2.269 -0.4926 -0.4751 -0.1513
  106MOL   C40344713   2.248   1.186   2.250  0.8227  0.3192  1.0789
  106MOL   O40444714   2.344   1.141   2.342 -0.5699 -0.5494  0.1681
  106MOL   C40544715   2.469   1.203   2.355  0.2306  0.1366  0.4610
  106MOL   C40644716   2.514   1.312   2.278  0.5063 -0.2202  0.5709
  106MOL   C40744717   2.639   1.372   2.300 -0.9069  0.1130  0.7321
  106MOL   C40844718   2.725   1.311   2.390  0.0869  0.4740  0.0423
  106MOL   C40944719   2.685   1.201   2.464  0.1402 -0.4953 -0.6773
  106MOL   C41044720   2.554   1.146   2.447 -0.2876  0.2216  0.7367
  106MOL   C41144721   2.193   1.410   2.500 -0.4266 -1.1189 -0.2472
  106MOL   H41244722   2.073   1.250   2.410 -0.6680  0.3656  0.8168
  106MOL   H41344723   2.286   1.171   2.149  0.7018  0.3713  1.0259
  106MOL   H41444724   2.164   1.117   2.257  0.8043  0.1825 -0.4583
  106MOL   H41544725   2.445   1.353   2.205 -0.7525  0.8159  2.2972
  106MOL   H41644726   2.661   1.460   2.241 -0.9455 -0.2088  0.2367
  106MOL   H41744727   2.817   1.357   2.424 -0.9484  1.9081  0.9436
  106MOL   H41844728   2.756   1.166   2.538 -0.0552  0.2138 -0.1486
  106MOL   H41944729   2.524   1.059   2.504  0.1046 -0.7545 -0.5065
  106MOL   H42044730   2.248   1.501   2.478 -0.8722 -0.1720  2.3901
  106MOL   H42144731   2.257   1.332   2.541  0.5109 -0.0694  0.3184
  106MOL   H42244732   2.121   1.440   2.576  2.3055  0.1930  1.8981
  107MOL     C144733   4.974   7.837   3.016  0.1200  0.4893  0.3228
  107MOL     O244734   4.957   7.937   3.116  0.0630 -0.4687  0.3391
  107MOL     C344735   4.991   0.089   3.065  0.9790  0.0769 -0.1384
  107MOL     O444736   5.120   0.121   3.065 -0.1294 -0.1913  0.8711
  107MOL     C544737   5.182   0.129   3.188 -0.4084  0.0657  0.5290
  107MOL     C644738   5.321   0.138   3.188  0.4628 -0.0799 -0.0626
  107MOL     C744739   5.392   0.154   3.308 -0.4192 -0.1777 -0.4353
  107MOL     C844740   5.326   0.152   3.431  0.4921  0.5094 -0.4356
  107MOL     C944741   5.190   0.116   3.427 -0.2232 -0.0245  0.0645
  107MOL    C1044742   5.116   0.110   3.307  0.2194 -0.0810 -0.7116
  107MOL    C1144743   4.952   7.697   3.084 -0.3625 -0.5150 -0.2556
  107MOL    H1244744   4.913   7.850   2.927  0.3250 -1.2773 -0.0795
  107MOL    H1344745   4.941   0.106   2.970 -0.3548 -1.8819  0.1788
  107MOL    H1444746   4.938   0.164   3.124  2.6193  1.0251  0.1528
  107MOL    H1544747   5.372   0.136   3.093  2.1169 -2.1049  0.8102
  107MOL    H1644748   5.499   0.169   3.300  0.0277 -2.3460  0.9436
  107MOL    H1744749   5.378   0.159   3.526  0.9079 -0.5832 -0.5771
  107MOL    H1844750   5.135   0.094   3.518 -0.8933 -1.1890 -0.6110
  107MOL    H1944751   5.010   0.093   3.313  0.3911 -1.8530 -2.0733
  107MOL    H2044752   4.845   7.691   3.101 -0.7577  4.5816 -0.1755
  107MOL    H2144753   5.008   7.697   3.177  0.4839  2.2110 -0.7160
  107MOL    H2244754   5.077   7.849   2.980 -0.2550  1.6154 -0.4172
  107MOL    C2344755   4.999   7.578   2.994 -0.2714 -0.3141 -0.8321
  107MOL    O2444756   4.912   7.577   2.890  0.8148  0.9681  0.5734
  107MOL    C2544757   4.952   7.515   2.774 -0.3966 -0.2050  0.0251
  107MOL    O2644758   4.858   7.419   2.738  0.2482  0.3904 -0.3808
  107MOL    C2744759   4.895   7.319   2.649  0.7718  0.3790 -0.1830
  107MOL    C2844760   4.800   7.214   2.635  0.4651 -0.2078  0.2008
  107MOL    C2944761   4.827   7.119   2.529 -0.4706 -0.5400  0.4296
  107MOL    C3044762   4.943   7.132   2.447 -0.5452  0.3657  0.6363
  107MOL    C3144763   5.024   7.242   2.458 -0.1971  0.8152  0.4849
  107MOL    C3244764   5.003   7.331   2.564 -0.6577  0.0545 -0.0712
  107MOL    C3344765   4.981   7.445   3.080 -0.0840 -0.0637  0.2762
  107MOL    H3444766   5.104   7.586   2.968 -0.4898  1.0293 -1.3331
  107MOL    H3544767   5.051   7.471   2.776  0.2789  1.3635  2.7954
  107MOL    H3644768   4.938   7.591   2.696 -0.6982  1.8849  2.0804
  107MOL    H3744769   4.711   7.215   2.695  0.4573  2.6505  0.2087
  107MOL    H3844770   4.774   7.025   2.520  1.4641 -1.8536  2.3145
  107MOL    H3944771   4.962   7.050   2.379 -1.9951  0.5666 -0.0371
  107MOL    H4044772   5.103   7.257   2.386  0.6794 -0.7631  1.0977
  107MOL    H4144773   5.082   7.403   2.579 -2.3245  2.5500 -2.5163
  107MOL    H4244774   4.874   7.427   3.096 -0.7449  0.0470 -3.3811
  107MOL    H4344775   5.009   7.458   3.184  0.8023  1.6976 -0.1586
  107MOL    C4444776   5.047   7.314   3.027 -0.1755  0.6512 -0.2964
  107MOL    O4544777   4.971   7.214   3.097 -0.5058  0.3440  0.2949
  107MOL    C4644778   4.868   7.147   3.023  0.4289  0.4045  0.3349
  107MOL    O4744779   4.912   7.055   2.932 -0.3963 -0.0299  0.1971
  107MOL    C4844780   4.817   6.969   2.874 -0.1641 -0.4211  0.8445
  107MOL    C4944781   4.871   6.886   2.771 -0.0248 -0.8831  0.0372
  107MOL    C5044782   4.799   6.781   2.716  0.6276  0.1725 -0.5550
  107MOL    C5144783   4.662   6.760   2.765 -0.7712 -0.5956 -0.3997
  107MOL    C5244784   4.607   6.840   2.867  0.0523 -0.5405 -0.0320
  107MOL    C5344785   4.683   6.951   2.921  0.2163  0.2891  0.0953
  107MOL    C5444786   5.191   7.303   3.072  0.1796 -0.2156  0.4461
  107MOL    H5544787   5.047   7.311   2.918 -0.8884  1.1170 -0.3191
  107MOL    H5644788   4.798   7.221   2.983  2.7710  0.6575 -3.6132
  107MOL    H5744789   4.818   7.084   3.096  2.2397 -1.2779  0.1587
  107MOL    H5844790   4.973   6.903   2.740 -0.2214  0.7257  0.2251
  107MOL    H5944791   4.846   6.710   2.649 -0.7600 -0.6795 -0.6523
  107MOL    H6044792   4.618   6.667   2.730 -1.7761 -0.7350  1.2036
  107MOL    H6144793   4.508   6.811   2.899 -0.4768  2.0555  0.8351
  107MOL    H6244794   4.630   6.996   3.004 -0.8567 -2.0994  0.7356
  107MOL    H6344795   5.243   7.395   3.045  0.4126 -0.4828 -0.0422
  107MOL    H6444796   5.205   7.291   3.179  1.2098 -1.8451  0.1552
  107MOL    C6544797   5.266   7.184   3.004  0.1680 -0.3037 -0.3428
  107MOL    O6644798   5.277   7.222   2.870  0.0246  0.1393 -0.1703
  107MOL    C6744799   5.298   7.120   2.780  0.3968  0.4993  0.7388
  107MOL    O6844800   5.329   7.166   2.648  0.2949 -0.0846  0.8493
  107MOL    C6944801   5.442   7.229   2.620 -0.4249 -0.3344  0.0453
  107MOL    C7044802   5.547   7.248   2.716  0.5057 -0.3407  0.8140
  107MOL    C7144803   5.664   7.316   2.682 -0.8770 -0.4075 -0.1245
  107MOL    C7244804   5.677   7.368   2.550 -0.1234  0.2279 -0.7553
  107MOL    C7344805   5.576   7.343   2.457  0.8255 -0.5791  0.0644
  107MOL    C7444806   5.456   7.272   2.489 -0.5026  0.2837  0.2216
  107MOL    C7544807   5.401   7.173   3.073  0.1958 -0.3797 -0.4934
  107MOL    H7644808   5.198   7.099   2.999  0.7931 -0.8473  0.3414
  107MOL    H7744809   5.206   7.062   2.778  1.2502 -0.9113  1.5613
  107MOL    H7844810   5.372   7.048   2.815 -0.0973 -0.3025  0.1426
  107MOL    H7944811   5.535   7.205   2.814  0.9061 -2.6517 -0.1161
  107MOL    H8044812   5.736   7.342   2.759 -0.8079 -0.7207 -0.0809
  107MOL    H8144813   5.758   7.433   2.521 -0.9161  0.9977 -1.2793
  107MOL    H8244814   5.596   7.377   2.357 -1.3432 -0.8612 -0.4895
  107MOL    H8344815   5.373   7.250   2.423 -0.5095 -0.7273  0.5535
  107MOL    H8444816   5.472   7.117   3.013  0.3232 -1.0539  0.2735
  107MOL    H8544817   5.450   7.271   3.079 -2.1677  0.7966  0.2500
  107MOL    C8644818   5.397   7.095   3.204 -0.1592  0.2615  0.6546
  107MOL    O8744819   5.360   6.957   3.170 -0.1682  0.4080  0.2430
  107MOL    C8844820   5.257   6.900   3.240  0.4998  0.3649 -0.1695
  107MOL    O8944821   5.270   6.757   3.234 -0.4146  0.1007 -0.2346
  107MOL    C9044822   5.248   6.686   3.114 -0.4624  0.5110 -0.2913
  107MOL    C9144823   5.286   6.542   3.106 -0.5435 -0.0460 -0.1856
  107MOL    C9244824   5.250   6.478   2.985  0.2360  0.1525 -0.2204
  107MOL    C9344825   5.199   6.547   2.873 -0.1181  0.3132  0.3516
  107MOL    C9444826   5.161   6.680   2.890 -0.5030  0.6343  0.8130
  107MOL    C9544827   5.183   6.748   3.005 -0.2485 -0.4084 -0.3595
  107MOL    C9644828   5.539   7.107   3.269  0.4234 -0.0766 -0.9423
  107MOL    H9744829   5.333   7.125   3.287 -0.3579  0.0815  0.5642
  107MOL    H9844830   5.166   6.950   3.208  0.2648 -0.3835 -0.6945
  107MOL    H9944831   5.264   6.907   3.348 -0.5592 -0.4246 -0.0395
  107MOL   H10044832   5.343   6.490   3.181  0.1166 -0.5967 -1.0619
  107MOL   H10144833   5.292   6.379   2.975 -0.9662 -0.4677  0.7257
  107MOL   H10244834   5.186   6.508   2.774 -2.1041  0.8623  0.3815
  107MOL   H10344835   5.112   6.727   2.806 -1.9291  0.1367  1.3573
  107MOL   H10444836   5.173   6.856   3.005 -0.6713 -0.4478 -0.4417
  107MOL   H10544837   5.609   7.088   3.187  0.9109  0.1787 -0.5871
  107MOL   H10644838   5.570   7.201   3.314  3.5993 -1.2248 -0.6057
  107MOL   C10744839   5.568   7.008   3.382  0.1191  0.3636 -0.7725
  107MOL   O10844840   5.707   6.977   3.366 -0.6948 -0.3057 -0.3965
  107MOL   C10944841   5.737   6.843   3.339 -0.8018  0.3386  0.1906
  107MOL   O11044842   5.705   6.803   3.213  0.0264 -0.3736  1.0297
  107MOL   C11144843   5.756   6.871   3.102  0.3372  0.2114 -0.2217
  107MOL   C11244844   5.696   6.840   2.977  0.4253 -0.9224 -0.0167
  107MOL   C11344845   5.752   6.885   2.858 -0.1341  0.4429  0.4498
  107MOL   C11444846   5.858   6.979   2.856  0.3610  0.3917 -0.3117
  107MOL   C11544847   5.915   7.014   2.982  0.1065 -0.4601 -0.3129
  107MOL   C11644848   5.867   6.964   3.105  0.3336 -0.5665 -0.3285
  107MOL   C11744849   5.557   7.062   3.524 -0.7636 -0.3070 -0.1722
  107MOL   H11844850   5.505   6.924   3.352 -2.3265  1.4196  1.1626
  107MOL   H11944851   5.695   6.773   3.411 -1.0829  0.5436  0.2243
  107MOL   H12044852   5.846   6.834   3.345 -0.8384 -1.0532 -1.0263
  107MOL   H12144853   5.606   6.780   2.970 -2.2052  2.9401 -0.9875
  107MOL   H12244854   5.703   6.865   2.764  1.7895  0.7971 -0.6618
  107MOL   H12344855   5.891   7.016   2.760 -0.0984 -0.4752 -0.8098
  107MOL   H12444856   5.994   7.087   2.975  0.8886 -1.1761  0.8454
  107MOL   H12544857   5.914   6.979   3.201 -1.6885 -3.6186  1.2263
  107MOL   H12644858   5.624   7.149   3.526 -1.5844  0.3215  0.0588
  107MOL   H12744859   5.601   6.995   3.598 -0.3360  1.9712  1.6846
  107MOL   C12844860   5.422   7.089   3.581 -0.2011 -0.7297  0.3382
  107MOL   O12944861   5.441   7.221   3.635  0.7017  0.2203  0.4335
  107MOL   C13044862   5.359   7.318   3.574  0.3150  0.4548  0.7763
  107MOL   O13144863   5.381   7.336   3.432  0.2895 -0.1536 -0.1159
  107MOL   C13244864   5.345   7.457   3.381 -0.5805 -0.2932  0.1424
  107MOL   C13344865   5.245   7.548   3.436 -0.4637  0.4240  0.5232
  107MOL   C13444866   5.234   7.677   3.382  0.1849 -0.1520  0.2930
  107MOL   C13544867   5.308   7.710   3.265 -0.2321 -0.7293 -0.5270
  107MOL   C13644868   5.401   7.620   3.207 -0.3479 -0.7359 -0.9942
  107MOL   C13744869   5.420   7.494   3.269 -1.0550 -0.0816 -0.7547
  107MOL   C13844870   5.398   7.002   3.708 -0.3289  0.5082 -0.2584
  107MOL   H13944871   5.338   7.077   3.512 -0.2600 -1.5557  0.5519
  107MOL   H14044872   5.395   7.407   3.625  0.3388  1.2541 -0.5904
  107MOL   H14144873   5.254   7.290   3.585 -0.0344  1.2608 -0.4002
  107MOL   H14244874   5.190   7.524   3.526 -0.3701 -0.6708  0.2916
  107MOL   H14344875   5.162   7.747   3.422  0.3680  0.4421 -0.4270
  107MOL   H14444876   5.291   7.808   3.224  0.4636 -1.5902 -2.9742
  107MOL   H14544877   5.453   7.652   3.118  1.0204  0.6362  0.2398
  107MOL   H14644878   5.491   7.429   3.221 -2.8703 -1.3942 -1.7259
  107MOL   H14744879   5.483   7.010   3.776  0.5992 -1.6713 -1.1015
  107MOL   H14844880   5.317   7.045   3.766 -0.4752 -1.7304  1.2748
  107MOL   C14944881   5.353   6.854   3.684  0.3759  0.2113 -0.6073
  107MOL   O15044882   5.443   6.793   3.603  0.2605 -0.5958 -0.3071
  107MOL   C15144883   5.399   6.687   3.517 -0.3252 -0.4576 -0.7849
  107MOL   O15244884   5.396   6.563   3.591 -0.3420 -0.0694  0.1427
  107MOL   C15344885   5.310   6.466   3.559  0.8985 -0.1590  0.4143
  107MOL   C15444886   5.312   6.348   3.635  0.7929 -0.4085 -0.0524
  107MOL   C15544887   5.226   6.237   3.602 -0.4768 -0.3253  0.1568
  107MOL   C15644888   5.134   6.251   3.498  0.2775  0.3721  0.3430
  107MOL   C15744889   5.118   6.375   3.430  0.4528 -0.4203 -0.6124
  107MOL   C15844890   5.210   6.482   3.454 -0.1715  0.2174 -0.1372
  107MOL   C15944891   5.341   6.770   3.812  0.0889 -0.4878 -0.3425
  107MOL   H16044892   5.253   6.858   3.639 -0.1436  2.1123  0.6875
  107MOL   H16144893   5.299   6.709   3.481 -0.3947  0.4031 -0.0569
  107MOL   H16244894   5.467   6.682   3.432  2.2026  0.0787  1.1451
  107MOL   H16344895   5.391   6.339   3.708  0.3726 -1.1953  0.3150
  107MOL   H16444896   5.231   6.145   3.657  0.6287 -0.7120 -0.5549
  107MOL   H16544897   5.070   6.167   3.475  3.8727 -2.2731 -0.4208
  107MOL   H16644898   5.035   6.398   3.366 -1.1123 -2.4260  0.6574
  107MOL   H16744899   5.202   6.569   3.390  1.7198  1.8176  1.7297
  107MOL   H16844900   5.440   6.759   3.858  0.5480 -0.3058 -1.2845
  107MOL   H16944901   5.310   6.669   3.784 -0.7605 -0.7554  1.4657
  107MOL   C17044902   5.240   6.814   3.917  0.9068  0.4165 -0.0917
  107MOL   O17144903   5.109   6.795   3.853  0.2534 -0.4082  0.1720
  107MOL   C17244904   5.023   6.906   3.854 -0.0652 -0.3101 -0.1214
  107MOL   O17344905   5.061   7.001   3.762 -0.4497  0.4051 -0.1502
  107MOL   C17444906   5.030   6.988   3.629 -0.0636 -0.5759 -0.5086
  107MOL   C17544907   4.981   6.867   3.568 -0.1682  0.0438 -0.0137
  107MOL   C17644908   4.938   6.857   3.430 -0.3841 -0.2673  0.0594
  107MOL   C17744909   4.939   6.977   3.355 -0.2374  0.0387  0.1028
  107MOL   C17844910   4.988   7.102   3.414 -0.1870  0.3481  0.1074
  107MOL   C17944911   5.027   7.105   3.553 -0.7137  0.1944  0.8540
  107MOL   C18044912   5.243   6.717   4.043  0.6793  0.4054  0.4049
  107MOL   H18144913   5.263   6.917   3.946  0.3820  0.9310 -1.4406
  107MOL   H18244914   5.007   6.959   3.947  1.6603  0.6664 -0.3454
  107MOL   H18344915   4.920   6.877   3.836  0.3793 -3.2043  1.6855
  107MOL   H18444916   4.974   6.779   3.631 -2.6732  1.1651  1.3601
  107MOL   H18544917   4.903   6.763   3.391 -0.5348 -0.1061 -0.1895
  107MOL   H18644918   4.899   6.983   3.255 -0.4977  0.5398  0.2337
  107MOL   H18744919   4.989   7.185   3.346 -1.3291  0.0157 -0.3313
  107MOL   H18844920   5.060   7.201   3.590  2.6896 -0.4301 -0.3694
  107MOL   H18944921   5.224   6.613   4.020  1.3989  0.4102 -0.2106
  107MOL   H19044922   5.346   6.697   4.072  1.4543  0.9722 -1.9031
  107MOL   C19144923   5.153   6.766   4.161  0.1337  0.4875 -0.1402
  107MOL   O19244924   5.213   6.882   4.210 -0.0058  0.0510  0.7909
  107MOL   C19344925   5.131   6.973   4.278  0.5554 -0.7309 -0.4496
  107MOL   O19444926   5.196   7.097   4.317  0.0294  0.3835  0.8310
  107MOL   C19544927   5.110   7.202   4.355  0.2855 -0.6564  0.4256
  107MOL   C19644928   5.171   7.319   4.392  0.6222  0.0531 -0.3907
  107MOL   C19744929   5.096   7.440   4.412 -0.2351 -0.6347  0.5385
  107MOL   C19844930   4.959   7.441   4.402  0.4149  0.3085  0.3873
  107MOL   C19944931   4.893   7.323   4.379 -0.1084 -0.3559 -0.4379
  107MOL   C20044932   4.967   7.204   4.351 -0.3668  0.7207 -0.6000
  107MOL   C20144933   5.137   6.657   4.268  0.4263  0.1298 -0.3480
  107MOL   H20244934   5.057   6.790   4.115 -1.8921 -2.5957  2.2611
  107MOL   H20344935   5.108   6.933   4.377  0.8794  0.2680  0.0338
  107MOL   H20444936   5.037   6.987   4.226  1.1894 -0.2569 -1.4721
  107MOL   H20544937   5.278   7.319   4.404  0.5558 -2.8878  0.6775
  107MOL   H20644938   5.150   7.530   4.435 -0.2046 -0.4771 -0.1524
  107MOL   H20744939   4.909   7.536   4.413  0.4851  0.3278  0.5468
  107MOL   H20844940   4.786   7.328   4.362 -0.2212  0.5535  0.4795
  107MOL   H20944941   4.915   7.110   4.347 -2.5895  1.8530  0.8407
  107MOL   H21044942   5.225   6.643   4.331 -0.5247 -2.0241  0.5596
  107MOL   H21144943   5.061   6.683   4.342 -0.8388 -2.5535 -0.6519
  107MOL   C21244944   5.106   6.506   4.220  0.5234  0.5195 -0.2544
  107MOL   O21344945   5.097   6.426   4.339 -0.0865  0.2700 -0.0484
  107MOL   C21444946   5.215   6.358   4.369 -0.1528  0.5323 -0.3856
  107MOL   O21544947   5.218   6.315   4.505  0.1271  0.3466 -0.4153
  107MOL   C21644948   5.123   6.215   4.542 -0.1047  0.2026 -0.1928
  107MOL   C21744949   5.090   6.213   4.683  0.2472 -0.1494  0.4252
  107MOL   C21844950   4.978   6.141   4.731 -0.1421 -1.2519  0.2797
  107MOL   C21944951   4.894   6.069   4.647 -0.9787 -0.2085 -0.4547
  107MOL   C22044952   4.925   6.073   4.511 -0.5646  0.4774  0.1531
  107MOL   C22144953   5.040   6.144   4.454  0.4080  0.2023 -0.0658
  107MOL   C22244954   4.994   6.500   4.121 -0.1779 -0.1072  0.1270
  107MOL   H22344955   5.196   6.472   4.168  0.8979 -0.1680  0.8308
  107MOL   H22444956   5.297   6.426   4.348 -0.4420  1.0062  0.0077
  107MOL   H22544957   5.232   6.273   4.303  1.8542  0.2766  0.4206
  107MOL   H22644958   5.143   6.275   4.754  2.8716 -0.8718 -0.8518
  107MOL   H22744959   4.956   6.142   4.836  0.4973  0.5252  0.4090
  107MOL   H22844960   4.811   6.010   4.684 -1.2516  0.4418 -0.0329
  107MOL   H22944961   4.856   6.032   4.439 -0.5163  1.6335 -0.5720
  107MOL   H23044962   5.058   6.158   4.348  1.2315  0.1439  0.0660
  107MOL   H23144963   5.012   6.562   4.033  1.3696 -1.0897 -0.2692
  107MOL   H23244964   4.982   6.402   4.075  0.7890 -1.1650  2.0905
  107MOL   C23344965   4.857   6.537   4.173  0.6219 -0.2297  0.0133
  107MOL   O23444966   4.830   6.673   4.148 -0.1845 -0.0204 -0.0910
  107MOL   C23544967   4.755   6.739   4.243  0.2694  0.8390 -0.1436
  107MOL   O23644968   4.758   6.883   4.227  0.0362  0.1528 -0.5259
  107MOL   C23744969   4.713   6.941   4.111 -0.2489  0.4311  0.5865
  107MOL   C23844970   4.678   7.077   4.123  0.0722 -0.0645 -0.9793
  107MOL   C23944971   4.622   7.147   4.012 -0.3373  0.3391 -0.1516
  107MOL   C24044972   4.592   7.077   3.896 -0.2306 -0.3243  1.3189
  107MOL   C24144973   4.632   6.947   3.881 -0.2518 -0.3142 -0.1665
  107MOL   C24244974   4.685   6.875   3.991 -0.2803 -0.4312 -0.1618
  107MOL   C24344975   4.740   6.448   4.118  0.1039 -0.1016  0.5559
  107MOL   H24444976   4.865   6.516   4.280 -1.5843 -0.7335  0.0923
  107MOL   H24544977   4.793   6.724   4.344 -3.9661 -2.8078  1.0921
  107MOL   H24644978   4.652   6.703   4.235  0.0952  1.0414  1.1871
  107MOL   H24744979   4.689   7.120   4.221  0.4536 -0.6478 -0.7645
  107MOL   H24844980   4.582   7.244   4.036 -3.1276 -0.6236 -0.7682
  107MOL   H24944981   4.547   7.139   3.820  0.6744 -1.0148  0.1992
  107MOL   H25044982   4.611   6.902   3.786  0.2141 -0.0887 -0.3776
  107MOL   H25144983   4.704   6.769   3.985 -3.5097 -1.0274 -1.0767
  107MOL   H25244984   4.645   6.501   4.128  0.9487  1.5728  0.0244
  107MOL   H25344985   4.732   6.427   4.011 -2.4278  0.4715  0.6000
  107MOL   C25444986   4.724   6.321   4.201  0.4622  0.5454  0.0738
  107MOL   O25544987   4.654   6.375   4.316 -0.2730  0.1361 -0.0663
  107MOL   C25644988   4.671   6.322   4.443  0.1314  0.1213 -0.1675
  107MOL   O25744989   4.624   6.401   4.546 -0.2783  0.4706  0.6780
  107MOL   C25844990   4.495   6.372   4.597 -0.0904  0.3998  0.1278
  107MOL   C25944991   4.485   6.399   4.736  0.3521  0.3437  0.1051
  107MOL   C26044992   4.368   6.376   4.805  0.2217 -0.2389 -0.0285
  107MOL   C26144993   4.258   6.316   4.731 -0.0462  0.7398  0.0969
  107MOL   C26244994   4.270   6.276   4.592  0.5324 -0.2200  0.0050
  107MOL   C26344995   4.390   6.317   4.521 -0.7438 -0.4353 -0.7276
  107MOL   C26444996   4.634   6.216   4.129  0.6482 -0.7069  0.3328
  107MOL   H26544997   4.826   6.292   4.228 -0.3735 -1.6922  0.9449
  107MOL   H26644998   4.774   6.311   4.476  0.4748  2.0697 -0.5558
  107MOL   H26744999   4.644   6.216   4.444  1.2611 -0.1800  1.4929
  107MOL   H26845000   4.565   6.445   4.793 -0.0334  0.7613  0.3133
  107MOL   H26945001   4.357   6.406   4.908  3.9877 -2.5208  1.1356
  107MOL   H27045002   4.161   6.298   4.775 -0.9758 -0.0487 -2.1812
  107MOL   H27145003   4.192   6.223   4.539  0.7370  0.3340 -0.8574
  107MOL   H27245004   4.402   6.289   4.417 -0.5171 -0.3540 -0.7241
  107MOL   H27345005   4.555   6.171   4.189  0.8033 -0.3263  0.8185
  107MOL   H27445006   4.578   6.269   4.052  0.6383 -0.3560  0.5815
  107MOL   C27545007   4.713   6.101   4.062  0.1996 -0.5538 -0.3060
  107MOL   O27645008   4.788   6.036   4.164 -0.3672  1.1927 -0.7421
  107MOL   C27745009   4.913   5.986   4.118 -0.3877  0.3273 -0.7846
  107MOL   O27845010   5.000   6.084   4.098  0.5347 -0.2011 -0.1494
  107MOL   C27945011   5.126   6.053   4.041 -0.6568  0.4104 -0.8901
  107MOL   C28045012   5.179   5.921   4.024  0.0706  0.3656  0.1179
  107MOL   C28145013   5.306   5.902   3.961 -0.6411 -0.9925 -0.0687
  107MOL   C28245014   5.380   6.016   3.919 -0.7830 -0.5186 -0.2207
  107MOL   C28345015   5.328   6.143   3.939  0.5076 -0.4093 -0.4538
  107MOL   C28445016   5.198   6.160   3.995  0.3643  0.1038  0.5345
  107MOL   C28545017   4.628   5.996   3.992  0.6610 -0.1753 -0.5543
  107MOL   H28645018   4.780   6.132   3.982  0.7163 -0.1735  0.2730
  107MOL   H28745019   4.895   5.929   4.027 -0.9596  1.9326 -1.7052
  107MOL   H28845020   4.952   5.928   4.201 -0.2675  1.5981  0.0541
  107MOL   H28945021   5.120   5.839   4.063 -0.7081  1.7539  1.9698
  107MOL   H29045022   5.338   5.801   3.939  1.5666 -0.6610  1.4094
  107MOL   H29145023   5.471   6.010   3.862 -0.4573 -0.7689  0.3222
  107MOL   H29245024   5.388   6.231   3.918  1.8664 -0.9610  0.9971
  107MOL   H29345025   5.157   6.259   4.008 -1.4618 -0.8501  2.2116
  107MOL   H29445026   4.565   5.966   4.075 -1.8958  1.9099 -1.6589
  107MOL   H29545027   4.682   5.906   3.963 -0.9528 -0.9335 -1.3357
  107MOL   C29645028   4.538   6.040   3.874 -0.6232 -0.0706  0.2868
  107MOL   O29745029   4.631   6.041   3.756 -0.3279  0.1002 -0.0483
  107MOL   C29845030   4.586   6.128   3.650 -0.8701  0.0850 -0.3368
  107MOL   O29945031   4.573   6.264   3.691  0.7816 -0.5825  0.2404
  107MOL   C30045032   4.690   6.335   3.715  0.4175 -0.7504 -0.0558
  107MOL   C30145033   4.815   6.273   3.732 -0.9074 -0.2191 -0.6890
  107MOL   C30245034   4.933   6.350   3.756 -0.0292 -1.0377  0.1448
  107MOL   C30345035   4.913   6.489   3.765 -0.5831 -0.2327  0.2017
  107MOL   C30445036   4.788   6.556   3.762  0.6946  0.0905  0.0003
  107MOL   C30545037   4.678   6.479   3.733  0.6376 -0.1981 -0.0241
  107MOL   C30645038   4.418   5.954   3.847  0.0498 -0.2304  0.6214
  107MOL   H30745039   4.496   6.140   3.885  1.1599  0.7010  0.2976
  107MOL   H30845040   4.492   6.090   3.610 -0.8231 -1.8055  1.2975
  107MOL   H30945041   4.649   6.128   3.561 -2.3898  2.7967 -1.5090
  107MOL   H31045042   4.823   6.165   3.733  0.7014 -0.0989  0.2980
  107MOL   H31145043   5.031   6.306   3.757  0.4374 -0.0571 -0.8593
  107MOL   H31245044   4.999   6.550   3.787 -0.6369  0.2512 -0.9183
  107MOL   H31345045   4.788   6.663   3.771  0.3593  0.0888  0.0115
  107MOL   H31445046   4.577   6.518   3.730  1.4041  1.8441 -0.3345
  107MOL   H31545047   4.454   5.851   3.845 -0.9459 -0.5913  0.7136
  107MOL   H31645048   4.373   5.983   3.751 -0.4715  1.4144  1.3497
  107MOL   C31745049   4.310   5.961   3.956  0.1014 -0.2506 -0.2544
  107MOL   O31845050   4.268   5.826   3.983 -0.2517 -0.1376  0.5255
  107MOL   C31945051   4.313   5.770   4.106  0.5394 -0.1417  0.2107
  107MOL   O32045052   4.265   5.842   4.213 -0.5598 -0.0377 -0.9483
  107MOL   C32145053   4.336   5.838   4.334  0.1782 -0.0538 -0.5627
  107MOL   C32245054   4.304   5.940   4.430  0.4043  0.5624  0.4546
  107MOL   C32345055   4.358   5.939   4.563 -0.2606 -0.2995 -0.2761
  107MOL   C32445056   4.456   5.838   4.595  0.0436 -0.0013 -0.8991
  107MOL   C32545057   4.486   5.738   4.503  0.1285 -0.2503  0.5164
  107MOL   C32645058   4.432   5.737   4.374  0.7543  0.1617  0.2674
  107MOL   C32745059   4.186   6.043   3.912 -0.6154 -0.0791  0.4420
  107MOL   H32845060   4.354   6.002   4.047 -0.7231  0.7871 -0.3163
  107MOL   H32945061   4.422   5.783   4.107  0.3211  1.9700  1.5664
  107MOL   H33045062   4.308   5.662   4.113  2.2217 -0.1972  0.9278
  107MOL   H33145063   4.224   6.011   4.410  0.2855 -0.3127 -2.2873
  107MOL   H33245064   4.322   6.018   4.626 -3.6217 -0.3981 -1.9274
  107MOL   H33345065   4.483   5.841   4.699 -0.8814  0.2406 -0.6646
  107MOL   H33445066   4.573   5.679   4.529 -0.6799 -0.0316  4.1004
  107MOL   H33545067   4.462   5.661   4.303 -0.0498 -0.3251  0.4354
  107MOL   H33645068   4.173   6.031   3.804  0.7366 -0.7152  0.3493
  107MOL   H33745069   4.099   5.992   3.954 -0.6368 -0.1340  0.3329
  107MOL   C33845070   4.177   6.186   3.975 -0.4967 -0.0113  0.7035
  107MOL   O33945071   4.102   6.274   3.889 -0.1406  0.5784  0.0826
  107MOL   C34045072   4.170   6.331   3.778  0.5708 -0.2347 -0.1708
  107MOL   O34145073   4.221   6.237   3.685  0.5149 -0.4236  0.3505
  107MOL   C34245074   4.254   6.278   3.560  0.0368 -0.0490  0.1151
  107MOL   C34345075   4.283   6.414   3.536  0.2215  0.2381 -0.2046
  107MOL   C34445076   4.325   6.456   3.411  0.4986  0.2712  0.8594
  107MOL   C34545077   4.348   6.358   3.301 -0.3155  0.3562 -1.0083
  107MOL   C34645078   4.326   6.225   3.334 -0.2265 -0.0388 -0.8565
  107MOL   C34745079   4.275   6.182   3.458 -0.6304  0.3987  0.1315
  107MOL   C34845080   4.108   6.173   4.113  0.5150  0.2018 -0.4146
  107MOL   H34945081   4.279   6.223   3.986 -1.6126  2.6689  2.3249
  107MOL   H35045082   4.255   6.389   3.814 -0.3523 -0.3215  2.2412
  107MOL   H35145083   4.104   6.406   3.735  0.7278 -1.1087 -1.9898
  107MOL   H35245084   4.262   6.492   3.608 -3.9451  0.4998 -1.5888
  107MOL   H35345085   4.327   6.562   3.392 -0.8792  0.0967 -0.4043
  107MOL   H35445086   4.379   6.393   3.204  0.5871  1.0213 -0.4905
  107MOL   H35545087   4.345   6.147   3.262 -0.7690 -0.8917 -0.0803
  107MOL   H35645088   4.256   6.076   3.468 -0.0612  0.4272  1.6942
  107MOL   H35745089   4.162   6.099   4.171 -2.1406  0.0450  1.9705
  107MOL   H35845090   4.003   6.144   4.110  0.4688 -0.4226  3.9261
  107MOL   C35945091   4.114   6.304   4.188  0.9738 -0.7783 -0.0432
  107MOL   O36045092   4.253   6.318   4.215 -0.3104  0.3296 -0.2109
  107MOL   C36145093   4.304   6.445   4.203 -0.2316 -0.0498 -0.2622
  107MOL   O36245094   4.284   6.505   4.078  0.0255  0.0611  0.3140
  107MOL   C36345095   4.274   6.643   4.073 -1.1045 -0.0556 -0.2935
  107MOL   C36445096   4.182   6.695   3.983  0.0366 -0.1044  0.5001
  107MOL   C36545097   4.175   6.827   3.954  0.0394 -0.8144 -0.3049
  107MOL   C36645098   4.243   6.918   4.036  0.2181 -0.4095 -0.3936
  107MOL   C36745099   4.332   6.874   4.138  0.0992  0.5609 -0.2012
  107MOL   C36845100   4.351   6.732   4.152  0.6365  0.2312 -0.5978
  107MOL   C36945101   4.015   6.338   4.304 -0.3039  0.2762  0.0236
  107MOL   H37045102   4.080   6.366   4.105  2.9420 -0.3162 -0.5274
  107MOL   H37145103   4.412   6.439   4.210 -0.0947  1.8712 -0.5000
  107MOL   H37245104   4.266   6.515   4.278 -1.1869  0.2040 -0.9647
  107MOL   H37345105   4.123   6.625   3.925  0.7743 -0.9305  0.7326
  107MOL   H37445106   4.094   6.870   3.896  1.2262  2.4005  0.3459
  107MOL   H37545107   4.226   7.024   4.023  1.7426 -0.1511 -0.3235
  107MOL   H37645108   4.384   6.943   4.203  2.2168  1.7193 -3.0103
  107MOL   H37745109   4.421   6.697   4.225  0.2993 -1.9054 -1.2698
  107MOL   H37845110   4.040   6.432   4.353  0.3199  1.1730 -1.9250
  107MOL   H37945111   4.045   6.274   4.387  0.3167  0.5282  0.0003
  107MOL   C38045112   3.863   6.336   4.269 -0.8194  0.6000  0.2773
  107MOL   O38145113   3.814   6.210   4.252  0.3051  0.6064 -0.0563
  107MOL   C38245114   3.842   6.113   4.347  0.4174  0.3480 -0.2722
  107MOL   O38345115   3.797   6.155   4.472  0.0084  0.2926  0.2854
  107MOL   C38445116   3.860   6.112   4.591  0.2088  0.0768  0.7973
  107MOL   C38545117   3.820   6.191   4.703 -0.8232 -0.5858  0.2705
  107MOL   C38645118   3.871   6.159   4.829  0.3507  0.9544 -0.5311
  107MOL   C38745119   3.958   6.050   4.842 -0.3581  0.5400 -0.2592
  107MOL   C38845120   4.006   5.976   4.726  0.2686 -0.1120  0.5171
  107MOL   C38945121   3.953   6.002   4.596 -0.5527  0.1510 -0.2862
  107MOL   C39045122   3.814   6.407   4.141  0.0051 -0.2808  1.2700
  107MOL   H39145123   3.811   6.380   4.354 -2.3276  1.5994 -1.1358
  107MOL   H39245124   3.789   6.020   4.325  5.1974 -2.0135 -2.5135
  107MOL   H39345125   3.949   6.095   4.340  0.6207  0.1838  2.7071
  107MOL   H39445126   3.753   6.275   4.689  1.8572  1.5224 -0.2570
  107MOL   H39545127   3.845   6.222   4.912 -1.3725  1.2963 -1.3037
  107MOL   H39645128   3.995   6.026   4.941  0.3321  0.5263 -0.5186
  107MOL   H39745129   4.077   5.895   4.739  0.4253 -0.2771 -1.2871
  107MOL   H39845130   3.977   5.941   4.510 -1.0046  0.7639 -0.8451
  107MOL   H39945131   3.846   6.359   4.049  2.1045  2.6494  0.3971
  107MOL   H40045132   3.868   6.502   4.140 -0.4027 -0.0449  1.0743
  107MOL   C40145133   3.665   6.432   4.132  0.0027 -0.3649 -0.1837
  107MOL   O40245134   3.619   6.520   4.239 -0.1072 -0.4058  0.5050
  107MOL   C40345135   3.488   6.555   4.243  0.3831 -0.0572 -0.0320
  107MOL   O40445136   3.471   6.673   4.168  0.2205  0.1796  0.4863
  107MOL   C40545137   3.362   6.752   4.174  1.3584  0.3582 -0.2527
  107MOL   C40645138   3.242   6.710   4.232  0.3846 -0.5024 -0.5600
  107MOL   C40745139   3.127   6.787   4.223  0.0088  0.4658 -0.1057
  107MOL   C40845140   3.141   6.918   4.172  0.2945  0.4457 -0.2693
  107MOL   C40945141   3.259   6.970   4.119  0.2417  0.2102 -0.4598
  107MOL   C41045142   3.365   6.878   4.108 -0.4668 -0.0751 -0.0702
  107MOL   C41145143   3.629   6.488   3.999  0.4148 -0.0388  0.2262
  107MOL   H41245144   3.613   6.336   4.135  3.5424 -2.5384 -3.5479
  107MOL   H41345145   3.473   6.570   4.350 -0.2701 -2.3707  0.2192
  107MOL   H41445146   3.418   6.480   4.206 -0.4317  0.8557 -0.3832
  107MOL   H41545147   3.233   6.616   4.286  0.7392  0.0490  0.4719
  107MOL   H41645148   3.036   6.748   4.267 -0.3385  0.8400 -0.4845
  107MOL   H41745149   3.056   6.985   4.179 -0.3180 -0.4092  0.5555
  107MOL   H41845150   3.257   7.071   4.082 -0.0507  0.2515 -0.3376
  107MOL   H41945151   3.455   6.907   4.057 -0.1685 -2.0876 -0.7404
  107MOL   H42045152   3.521   6.497   3.989  0.5867  0.9616 -0.9765
  107MOL   H42145153   3.661   6.422   3.919  1.9241  0.5466  0.3383
  107MOL   H42245154   3.675   6.585   3.980 -1.0060  0.5148 -0.5164
  108MOL     C145155   1.819   4.237   3.389  0.0238 -0.5445  0.0629
  108MOL     O245156   1.890   4.122   3.423  0.3798  0.1030 -0.2627
  108MOL     C345157   1.838   4.070   3.544 -0.4049  0.7096  1.3277
  108MOL     O445158   1.899   3.951   3.597  0.5922 -0.1999  0.0876
  108MOL     C545159   1.999   3.975   3.691 -0.3464  0.1476  0.3553
  108MOL     C645160   2.077   4.093   3.689 -0.0104 -0.9363  0.0426
  108MOL     C745161   2.176   4.125   3.785 -0.4307  0.4004 -0.3410
  108MOL     C845162   2.188   4.035   3.893 -0.6716  0.5594 -0.2916
  108MOL     C945163   2.119   3.913   3.898 -0.2748  0.1110  0.4120
  108MOL    C1045164   2.027   3.881   3.797  0.2799  0.0812 -0.1630
  108MOL    C1145165   1.894   4.321   3.275  0.0025 -0.5900  0.0503
  108MOL    H1245166   1.721   4.214   3.349  0.1298  1.4325 -1.4063
  108MOL    H1345167   1.838   4.148   3.620 -1.6239  2.1312 -0.1045
  108MOL    H1445168   1.740   4.030   3.521  0.4636 -0.3201 -0.8178
  108MOL    H1545169   2.066   4.168   3.612  1.4452  0.5906  1.2855
  108MOL    H1645170   2.234   4.216   3.783  1.9496 -1.0629 -0.5610
  108MOL    H1745171   2.244   4.059   3.982  2.0087  0.5584 -1.9327
  108MOL    H1845172   2.134   3.845   3.981 -1.6098 -1.1000 -0.3176
  108MOL    H1945173   1.973   3.788   3.797  1.2092 -0.4700 -1.2149
  108MOL    H2045174   1.904   4.254   3.190  0.7317  0.1029 -0.4174
  108MOL    H2145175   1.993   4.334   3.320  0.3419 -0.5321 -0.7149
  108MOL    H2245176   1.801   4.309   3.470 -3.1138 -1.0376 -0.1614
  108MOL    C2345177   1.843   4.459   3.239 -0.7978  0.1486  0.1684
  108MOL    O2445178   1.708   4.436   3.191 -0.2506 -0.4439 -0.2394
  108MOL    C2545179   1.611   4.501   3.267 -0.2074  0.8433  0.0474
  108MOL    O2645180   1.590   4.440   3.388  0.2588 -0.7387  0.6171
  108MOL    C2745181   1.481   4.484   3.462 -0.1052  0.1914  0.6293
  108MOL    C2845182   1.419   4.605   3.450 -0.1757 -0.4553  0.0506
  108MOL    C2945183   1.309   4.638   3.535 -0.3758 -0.1676 -0.1363
  108MOL    C3045184   1.258   4.542   3.630 -0.5011 -0.0889 -0.6160
  108MOL    C3145185   1.330   4.422   3.639  0.4649  0.5536 -0.5287
  108MOL    C3245186   1.436   4.395   3.554  0.1899  0.7380 -0.7380
  108MOL    C3345187   1.914   4.528   3.117 -0.5267  1.1024  0.0553
  108MOL    H3445188   1.843   4.524   3.327 -2.8025 -2.6253  2.3045
  108MOL    H3545189   1.521   4.496   3.206  0.8956 -1.1152 -1.4622
  108MOL    H3645190   1.639   4.606   3.283 -1.3272  1.1151  0.2321
  108MOL    H3745191   1.454   4.692   3.395 -0.5653 -0.2264  0.1602
  108MOL    H3845192   1.265   4.736   3.533  1.0901  0.4890 -0.8308
  108MOL    H3945193   1.181   4.571   3.699 -0.0343  1.2404 -0.6296
  108MOL    H4045194   1.302   4.343   3.706 -1.7675  0.5285 -1.4645
  108MOL    H4145195   1.475   4.295   3.565  2.3025  1.6014 -0.1337
  108MOL    H4245196   1.849   4.608   3.081 -1.4000  0.6080  0.5319
  108MOL    H4345197   1.919   4.453   3.038 -4.7871 -0.4431  1.1129
  108MOL    C4445198   2.047   4.596   3.149 -0.6382 -0.2876  0.1819
  108MOL    O4545199   2.027   4.695   3.250 -0.0435 -0.1413 -0.5904
  108MOL    C4645200   2.123   4.681   3.356 -0.3718  0.7169  0.2203
  108MOL    O4745201   2.096   4.570   3.434 -0.2511  0.6961 -0.3343
  108MOL    C4845202   1.993   4.568   3.525  0.1870 -0.6516 -0.7029
  108MOL    C4945203   1.991   4.450   3.607  0.6392 -0.2322  0.5375
  108MOL    C5045204   1.888   4.437   3.707  0.0732 -1.2557 -0.1759
  108MOL    C5145205   1.794   4.539   3.723 -0.2402 -0.2327 -0.1840
  108MOL    C5245206   1.797   4.650   3.638  0.1110  0.1467  0.6798
  108MOL    C5345207   1.893   4.672   3.541 -0.3841 -1.2138 -0.6786
  108MOL    C5445208   2.110   4.656   3.026 -0.7450 -0.7560  0.8483
  108MOL    H5545209   2.110   4.518   3.193  0.9394  0.5538 -0.5236
  108MOL    H5645210   2.116   4.768   3.421 -2.6780 -0.2844  1.3804
  108MOL    H5745211   2.227   4.684   3.322  0.2201 -0.4067  1.8655
  108MOL    H5845212   2.065   4.372   3.604  0.4705 -0.4228  1.2008
  108MOL    H5945213   1.882   4.345   3.764 -1.7370 -1.6543 -0.9513
  108MOL    H6045214   1.710   4.531   3.790  0.4105  0.1646  0.7060
  108MOL    H6145215   1.720   4.727   3.645  0.9072  0.8423  1.9158
  108MOL    H6245216   1.899   4.763   3.484 -2.0851 -0.7973 -0.1962
  108MOL    H6345217   2.119   4.571   2.958  3.1605 -0.1882  0.5223
  108MOL    H6445218   2.037   4.717   2.974  0.6006 -0.6025 -0.8964
  108MOL    C6545219   2.252   4.719   3.044  0.6136 -0.2385 -0.1052
  108MOL    O6645220   2.360   4.626   3.088 -0.1557  0.1977  0.1856
  108MOL    C6745221   2.397   4.531   2.996 -0.4244 -0.0723 -1.0048
  108MOL    O6845222   2.301   4.431   2.986  0.2674  0.2901 -0.3438
  108MOL    C6945223   2.289   4.337   3.087 -0.7927 -0.1019 -1.1300
  108MOL    C7045224   2.187   4.246   3.069 -0.4638 -0.7305  0.3518
  108MOL    C7145225   2.168   4.143   3.162 -0.1937 -0.2885 -0.4948
  108MOL    C7245226   2.245   4.133   3.278 -0.5214  0.0110  0.5257
  108MOL    C7345227   2.359   4.215   3.291 -0.0594 -0.4228  0.0110
  108MOL    C7445228   2.377   4.319   3.201 -0.6710 -0.4201 -0.1457
  108MOL    C7545229   2.305   4.800   2.925  0.4138  0.2903  0.0628
  108MOL    H7645230   2.245   4.802   3.115  1.0383  3.4277 -4.1509
  108MOL    H7745231   2.487   4.491   3.043 -1.7477 -0.4300  1.2925
  108MOL    H7845232   2.422   4.568   2.896  1.7904 -0.1327 -0.4941
  108MOL    H7945233   2.119   4.250   2.985  1.9103  0.9037 -1.5748
  108MOL    H8045234   2.094   4.067   3.138 -0.1596 -0.2483 -0.7339
  108MOL    H8145235   2.236   4.047   3.342  1.4597  0.5498  1.5628
  108MOL    H8245236   2.431   4.207   3.371 -2.3547 -2.3927  1.9354
  108MOL    H8345237   2.461   4.386   3.213 -2.4142  1.3738  2.2865
  108MOL    H8445238   2.410   4.820   2.945  0.3826  0.7773 -0.2703
  108MOL    H8545239   2.291   4.730   2.843  1.6276  0.9989 -0.7475
  108MOL    C8645240   2.231   4.929   2.884 -0.4729 -0.0538 -0.1967
  108MOL    O8745241   2.210   5.014   2.999 -0.1044  0.2012  0.2571
  108MOL    C8845242   2.102   5.097   2.993  0.6839 -0.1422  0.1223
  108MOL    O8945243   2.096   5.187   2.886 -0.0853 -0.0161  0.0221
  108MOL    C9045244   2.183   5.289   2.885 -0.4526 -0.4480  0.2166
  108MOL    C9145245   2.176   5.384   2.776  0.1730  0.6338  0.6063
  108MOL    C9245246   2.276   5.482   2.764  0.7634 -0.8555  1.0074
  108MOL    C9345247   2.383   5.490   2.856 -0.7978  0.0294  0.4744
  108MOL    C9445248   2.385   5.403   2.970 -0.5653 -0.1689 -0.6626
  108MOL    C9545249   2.291   5.298   2.980  0.6306  0.0517 -0.5542
  108MOL    C9645250   2.305   5.008   2.778  0.1043 -0.4965  0.3509
  108MOL    H9745251   2.135   4.895   2.844 -0.8499  1.0538 -0.2626
  108MOL    H9845252   2.091   5.149   3.088 -2.2651 -0.1549 -0.1666
  108MOL    H9945253   2.009   5.040   2.982 -0.5771  1.6852  1.0099
  108MOL   H10045254   2.091   5.382   2.710  0.4500 -1.7929  0.2869
  108MOL   H10145255   2.281   5.561   2.690 -0.6089 -0.8460  0.8956
  108MOL   H10245256   2.467   5.557   2.838 -0.8091 -0.0994 -0.0563
  108MOL   H10345257   2.466   5.412   3.040  0.0187  1.7962 -1.5742
  108MOL   H10445258   2.299   5.222   3.055 -0.1326  1.2124  0.7321
  108MOL   H10545259   2.243   5.091   2.744 -1.0369 -1.0668  0.9889
  108MOL   H10645260   2.395   5.056   2.817 -1.5941  1.8138  1.5710
  108MOL   C10745261   2.336   4.939   2.642 -0.0405 -0.5080 -0.3899
  108MOL   O10845262   2.219   4.892   2.580  0.1317 -0.4460  0.2123
  108MOL   C10945263   2.244   4.785   2.499 -0.1698 -0.1206  0.9148
  108MOL   O11045264   2.300   4.678   2.572  0.1734 -0.1862 -0.7696
  108MOL   C11145265   2.209   4.588   2.628 -0.4521  0.0024 -0.6948
  108MOL   C11245266   2.082   4.630   2.667 -0.4516  0.4034 -0.6170
  108MOL   C11345267   1.991   4.538   2.721 -0.1780 -0.2734 -0.5413
  108MOL   C11445268   2.034   4.409   2.750 -0.0914 -0.4329  0.0628
  108MOL   C11545269   2.162   4.358   2.707  0.5204  0.8194 -0.9792
  108MOL   C11645270   2.251   4.451   2.650  0.2247 -0.2291 -0.6141
  108MOL   C11745271   2.412   5.030   2.545 -0.3374  0.3673  0.3358
  108MOL   H11845272   2.401   4.854   2.664  1.4672  1.0688  1.4520
  108MOL   H11945273   2.311   4.814   2.417 -1.4258  0.1666 -0.0206
  108MOL   H12045274   2.148   4.750   2.462  0.8215 -0.4229 -1.4755
  108MOL   H12145275   2.045   4.727   2.638  0.1798  1.0005  0.5359
  108MOL   H12245276   1.887   4.567   2.730 -0.0089  0.2067 -0.0578
  108MOL   H12345277   1.963   4.345   2.800  1.4811 -1.6147  0.8184
  108MOL   H12445278   2.199   4.262   2.738  2.2825  1.6508 -0.4249
  108MOL   H12545279   2.351   4.422   2.623  1.6295  0.9177  3.0270
  108MOL   H12645280   2.350   5.119   2.541 -0.9641 -0.1017 -0.3516
  108MOL   H12745281   2.400   5.001   2.441 -1.2556 -1.7560  1.0020
  108MOL   C12845282   2.565   5.059   2.587 -0.2102  0.0845  0.0010
  108MOL   O12945283   2.598   5.184   2.535 -0.0547  0.7548 -0.1272
  108MOL   C13045284   2.577   5.300   2.611 -1.0993  0.4338 -0.4386
  108MOL   O13145285   2.626   5.289   2.741 -0.2228  0.4555 -0.0208
  108MOL   C13245286   2.761   5.276   2.770  0.3085  0.5051 -0.0551
  108MOL   C13345287   2.871   5.278   2.678 -0.0864 -0.5515  0.8485
  108MOL   C13445288   3.007   5.261   2.725 -0.3686  0.3740  0.0874
  108MOL   C13545289   3.032   5.251   2.862  0.1339  0.7259  0.1958
  108MOL   C13645290   2.921   5.249   2.950  0.2200  0.1778 -0.5937
  108MOL   C13745291   2.787   5.270   2.908 -0.2898 -0.4235  0.2329
  108MOL   C13845292   2.654   4.947   2.507 -0.8242  0.7902 -0.8355
  108MOL   H13945293   2.577   5.053   2.695 -0.9487 -2.6326 -0.0342
  108MOL   H14045294   2.470   5.314   2.628 -0.9006  0.6626  0.6769
  108MOL   H14145295   2.614   5.395   2.572 -0.9114  0.4419 -0.2355
  108MOL   H14245296   2.849   5.291   2.573 -1.1175 -0.2355  1.0917
  108MOL   H14345297   3.088   5.247   2.655 -1.3498  0.2365 -1.0350
  108MOL   H14445298   3.125   5.227   2.912  0.5276  2.9425  0.5816
  108MOL   H14545299   2.935   5.239   3.056 -3.0851  2.3320  0.1184
  108MOL   H14645300   2.703   5.274   2.975 -1.5954 -1.4638 -1.2915
  108MOL   H14745301   2.608   4.853   2.475  2.0620 -0.5503 -1.2290
  108MOL   H14845302   2.667   4.991   2.408 -3.3201 -0.5460 -1.7965
  108MOL   C14945303   2.793   4.917   2.568 -0.2281 -0.3011  0.0465
  108MOL   O15045304   2.764   4.854   2.692  0.2986 -0.1832 -0.0893
  108MOL   C15145305   2.840   4.884   2.806 -0.5335  0.0724 -1.0832
  108MOL   O15245306   2.965   4.831   2.785  0.1297  0.3698  0.2605
  108MOL   C15345307   2.989   4.691   2.789  0.4181 -0.8247 -0.7447
  108MOL   C15445308   2.885   4.599   2.819 -0.2573  0.2513 -0.3939
  108MOL   C15545309   2.913   4.464   2.847 -0.3379  0.6183  1.0225
  108MOL   C15645310   3.046   4.417   2.833  0.2706 -0.3637  0.5245
  108MOL   C15745311   3.151   4.504   2.801  0.2144 -0.1116 -0.3608
  108MOL   C15845312   3.124   4.641   2.779  0.1475  0.4503  0.2074
  108MOL   C15945313   2.884   4.837   2.468 -0.0074 -0.4077  0.9014
  108MOL   H16045314   2.839   5.014   2.585  1.0589 -0.6630 -1.3489
  108MOL   H16145315   2.856   4.992   2.802  0.9873 -0.1885 -2.9925
  108MOL   H16245316   2.792   4.850   2.897 -0.2189  1.7492 -0.2713
  108MOL   H16345317   2.782   4.630   2.828 -0.3187  0.8490 -2.9641
  108MOL   H16445318   2.835   4.396   2.877  1.7062 -0.5374  3.8559
  108MOL   H16545319   3.060   4.312   2.854 -1.9129 -0.4070  1.9210
  108MOL   H16645320   3.250   4.460   2.793  1.0947  1.2390  2.4235
  108MOL   H16745321   3.207   4.705   2.753 -0.8728  0.8419 -2.2677
  108MOL   H16845322   2.844   4.811   2.370 -2.5230  3.3033  0.8283
  108MOL   H16945323   2.897   4.738   2.513  2.6062 -0.5472 -0.1184
  108MOL   C17045324   3.020   4.901   2.440 -0.2307  0.2942 -0.4785
  108MOL   O17145325   3.112   4.804   2.381 -0.0332  0.1352  0.0811
  108MOL   C17245326   3.177   4.727   2.473  0.2504  0.3535  0.0504
  108MOL   O17345327   3.268   4.647   2.407  0.7334 -0.0221  0.2582
  108MOL   C17445328   3.376   4.702   2.344  0.0244 -0.4055  0.2132
  108MOL   C17545329   3.455   4.613   2.261  0.2409 -0.5581  0.4497
  108MOL   C17645330   3.567   4.667   2.191 -0.8262 -0.2554 -0.5271
  108MOL   C17745331   3.602   4.803   2.208 -0.7581  0.6575 -0.7917
  108MOL   C17845332   3.518   4.890   2.279  0.1176 -0.1853  0.0009
  108MOL   C17945333   3.414   4.839   2.352 -0.5624 -0.9070 -0.2495
  108MOL   C18045334   3.002   5.019   2.340 -0.4723 -0.4041  0.2596
  108MOL   H18145335   3.065   4.958   2.521 -1.6219 -0.2684  0.7006
  108MOL   H18245336   3.106   4.662   2.524  0.7600 -0.9401 -0.8732
  108MOL   H18345337   3.238   4.784   2.543  1.1262  0.1602 -0.5525
  108MOL   H18445338   3.433   4.508   2.255  1.7218 -0.8393 -0.4846
  108MOL   H18545339   3.624   4.597   2.132 -1.5579  0.3091 -1.9139
  108MOL   H18645340   3.685   4.847   2.155 -0.1828  0.4626 -0.0598
  108MOL   H18745341   3.549   4.993   2.280  0.2653 -0.2130 -1.0924
  108MOL   H18845342   3.353   4.907   2.409 -0.8482 -2.1680  0.9738
  108MOL   H18945343   2.941   4.983   2.257 -1.1711  0.3444  0.4462
  108MOL   H19045344   2.940   5.095   2.387  2.4932  1.5528  1.1326
  108MOL   C19145345   3.130   5.094   2.303  0.4489 -0.0063 -0.9095
  108MOL   O19245346   3.163   5.205   2.386  0.3012 -0.4301  0.0367
  108MOL   C19345347   3.276   5.199   2.463 -0.4404 -0.4861  0.7079
  108MOL   O19445348   3.257   5.101   2.561  0.1523 -0.0785 -0.4572
  108MOL   C19545349   3.365   5.053   2.635 -0.3435 -0.7068  0.0715
  108MOL   C19645350   3.498   5.107   2.629  0.4098  0.1811 -0.3240
  108MOL   C19745351   3.601   5.046   2.703 -0.1623 -0.8720 -0.6837
  108MOL   C19845352   3.573   4.937   2.788  0.4172  0.3600  0.8210
  108MOL   C19945353   3.447   4.886   2.796 -0.5089 -0.6867 -0.5151
  108MOL   C20045354   3.346   4.939   2.722 -0.0309  0.6118  0.1509
  108MOL   C20145355   3.110   5.132   2.159  0.1311  0.1575  0.0765
  108MOL   H20245356   3.217   5.029   2.305  0.2214 -0.2622  1.6195
  108MOL   H20345357   3.299   5.295   2.509 -0.1250  0.3874 -1.2551
  108MOL   H20445358   3.353   5.182   2.389  0.0504  0.5944  0.9632
  108MOL   H20545359   3.530   5.194   2.573  2.1909  0.3392  0.8988
  108MOL   H20645360   3.703   5.080   2.707 -0.2135 -0.7472 -0.4907
  108MOL   H20745361   3.655   4.896   2.844  1.2658 -0.1137 -0.7177
  108MOL   H20845362   3.432   4.807   2.868  1.7217  0.0504  0.7957
  108MOL   H20945363   3.248   4.898   2.742 -0.8819 -0.1788 -4.9860
  108MOL   H21045364   3.022   5.192   2.137 -0.7929 -0.6301  1.5395
  108MOL   H21145365   3.194   5.199   2.142  0.0624  0.9284  2.5345
  108MOL   C21245366   3.124   5.030   2.037 -0.5865  0.0331 -0.3028
  108MOL   O21345367   2.998   4.970   2.024 -0.3877 -0.0036 -0.3872
  108MOL   C21445368   2.988   4.835   2.022 -0.3600  0.1908  0.0356
  108MOL   O21545369   3.042   4.780   1.908 -0.2799 -0.6074  0.1098
  108MOL   C21645370   2.970   4.795   1.788  0.1491 -0.7983  0.0168
  108MOL   C21745371   2.885   4.903   1.758 -0.6330 -0.2515  0.7149
  108MOL   C21845372   2.834   4.912   1.630 -0.5418  0.5854 -0.0432
  108MOL   C21945373   2.857   4.811   1.532  0.9047  0.1627 -0.7507
  108MOL   C22045374   2.946   4.709   1.558 -0.1912  0.1708  0.0658
  108MOL   C22145375   3.001   4.702   1.685  0.9021  0.0603 -0.2607
  108MOL   C22245376   3.176   5.077   1.902  0.3531 -0.2446  0.5465
  108MOL   H22345377   3.197   4.955   2.066  0.1875  1.1186  0.5891
  108MOL   H22445378   2.882   4.817   2.010 -0.4336  1.1232 -0.7457
  108MOL   H22545379   3.025   4.796   2.117 -0.9365  0.0545  0.2042
  108MOL   H22645380   2.872   4.982   1.831 -0.0082  1.3755 -0.9110
  108MOL   H22745381   2.771   4.995   1.600 -0.2494  1.3770  1.5029
  108MOL   H22845382   2.801   4.823   1.440  1.3342  2.8536 -0.7188
  108MOL   H22945383   2.962   4.625   1.492  2.5958 -1.2328  2.4495
  108MOL   H23045384   3.071   4.623   1.710  0.2863  0.8411  4.1762
  108MOL   H23145385   3.098   5.067   1.826 -0.8055  0.3923  1.6153
  108MOL   H23245386   3.168   5.186   1.903  2.0478 -0.1125  0.7671
  108MOL   C23345387   3.307   5.023   1.845 -0.1576 -0.2568  0.0315
  108MOL   O23445388   3.331   5.078   1.714  0.7519  0.0077 -0.6502
  108MOL   C23545389   3.265   5.004   1.612  0.0665 -0.5419 -0.3067
  108MOL   O23645390   3.302   5.060   1.492 -0.1010 -0.3570  0.2728
  108MOL   C23745391   3.249   5.188   1.451 -0.0795 -0.6566 -0.1493
  108MOL   C23845392   3.312   5.259   1.345 -0.3889  0.3900 -0.3321
  108MOL   C23945393   3.280   5.388   1.303 -0.2027 -0.3515  0.2255
  108MOL   C24045394   3.176   5.459   1.368 -0.8177 -0.0115 -0.4458
  108MOL   C24145395   3.113   5.392   1.479  0.3194  0.0336 -0.0620
  108MOL   C24245396   3.149   5.261   1.519  1.0067 -0.5372 -0.1628
  108MOL   C24345397   3.423   5.071   1.935 -0.8380  0.3807 -0.0610
  108MOL   H24445398   3.295   4.915   1.849 -1.0183 -0.1470  0.4684
  108MOL   H24545399   3.157   5.009   1.624  0.1624  0.2915  0.2546
  108MOL   H24645400   3.292   4.898   1.615 -0.1162 -0.5876 -0.2641
  108MOL   H24745401   3.389   5.209   1.288 -1.1495 -0.7866 -0.3212
  108MOL   H24845402   3.317   5.431   1.212 -2.5575  0.0610 -0.5489
  108MOL   H24945403   3.148   5.559   1.337  1.1745  0.4655 -0.7687
  108MOL   H25045404   3.035   5.438   1.538  0.3885  0.7506 -0.5191
  108MOL   H25145405   3.092   5.225   1.604  0.7231 -1.9337 -0.9256
  108MOL   H25245406   3.408   5.177   1.953  0.3133  0.3667  1.0551
  108MOL   H25345407   3.408   5.020   2.030  1.1464  0.8560  0.5354
  108MOL   C25445408   3.567   5.034   1.892  0.5082 -0.4977  0.3358
  108MOL   O25545409   3.650   5.060   2.003 -0.2994  0.5705  0.4702
  108MOL   C25645410   3.705   5.178   2.023  0.3978  0.3781  0.6885
  108MOL   O25745411   3.735   5.204   2.160 -0.1996  0.2411  0.1191
  108MOL   C25845412   3.871   5.196   2.198  0.6364 -0.9329  0.4498
  108MOL   C25945413   3.970   5.164   2.103 -0.2142 -0.4107 -0.3658
  108MOL   C26045414   4.100   5.131   2.149  0.5521 -0.1300 -0.1313
  108MOL   C26145415   4.135   5.181   2.281  0.2744  0.2797 -0.8992
  108MOL   C26245416   4.041   5.231   2.369 -0.3385  0.2791  0.0185
  108MOL   C26345417   3.908   5.228   2.328 -1.0873  0.6916 -0.1092
  108MOL   C26445418   3.586   4.888   1.856 -0.7472  0.2903  0.5714
  108MOL   H26545419   3.610   5.093   1.811 -1.1747  1.8617  1.1220
  108MOL   H26645420   3.626   5.249   1.999  0.0555  0.0762  0.9172
  108MOL   H26745421   3.785   5.200   1.953 -0.0985 -1.8015 -0.5818
  108MOL   H26845422   3.948   5.125   2.005 -3.0123  1.1071 -0.3801
  108MOL   H26945423   4.179   5.101   2.082  0.5232 -2.8067  0.9510
  108MOL   H27045424   4.237   5.182   2.316 -0.9041 -0.2074  2.7597
  108MOL   H27145425   4.071   5.262   2.468  1.7381 -0.2730 -0.4050
  108MOL   H27245426   3.832   5.249   2.401 -0.7205 -1.0247  0.8189
  108MOL   H27345427   3.577   4.821   1.942 -1.0789  1.3023  1.3299
  108MOL   H27445428   3.508   4.860   1.786 -0.9905 -1.1764  1.4034
  108MOL   C27545429   3.718   4.846   1.774 -0.9641  0.2140  0.1689
  108MOL   O27645430   3.734   4.934   1.657 -0.6157 -0.1405 -0.3346
  108MOL   C27745431   3.652   4.910   1.558 -0.3843 -0.2447 -0.6952
  108MOL   O27845432   3.663   4.781   1.522  0.4115 -0.3745  0.0954
  108MOL   C27945433   3.580   4.742   1.420 -0.4517 -0.2909 -0.0670
  108MOL   C28045434   3.493   4.829   1.341 -0.8386  0.1797 -0.3561
  108MOL   C28145435   3.424   4.781   1.230 -0.2580 -0.0355  0.4811
  108MOL   C28245436   3.423   4.645   1.202  0.4567 -0.1783  0.6425
  108MOL   C28345437   3.490   4.555   1.288 -0.4740  0.1860 -0.8074
  108MOL   C28445438   3.580   4.608   1.383  1.0024  0.4923  0.1366
  108MOL   C28545439   3.852   4.851   1.849 -0.0290 -0.4637  0.2005
  108MOL   H28645440   3.697   4.742   1.746  1.6250 -0.2608 -0.1506
  108MOL   H28745441   3.692   4.966   1.474  0.5938  0.0353 -0.0468
  108MOL   H28845442   3.553   4.949   1.580  0.8528  1.8839  1.2864
  108MOL   H28945443   3.491   4.936   1.356  0.5663  0.0206  1.0222
  108MOL   H29045444   3.391   4.853   1.156  2.3984 -0.6110 -1.3433
  108MOL   H29145445   3.359   4.619   1.118 -0.1852  2.6149  0.1976
  108MOL   H29245446   3.487   4.448   1.272  2.4570 -0.1305  0.5107
  108MOL   H29345447   3.645   4.541   1.438  0.3821 -1.0178 -0.9509
  108MOL   H29445448   3.854   4.808   1.950  1.9404  1.8596  1.1976
  108MOL   H29545449   3.847   4.957   1.874  0.2775 -0.1480 -1.0607
  108MOL   C29645450   3.983   4.805   1.783  0.2781  0.6229  0.0925
  108MOL   O29745451   4.098   4.854   1.864  0.7957 -0.3886  0.6099
  108MOL   C29845452   4.229   4.844   1.802 -0.4837 -0.0855 -0.0210
  108MOL   O29945453   4.317   4.928   1.859  0.1499  0.2026 -0.7654
  108MOL   C30045454   4.363   4.906   1.985  0.3647 -0.7053 -0.0599
  108MOL   C30145455   4.453   4.993   2.046  0.8618  0.3397  0.3863
  108MOL   C30245456   4.511   4.970   2.174  0.0674 -1.1057  0.6266
  108MOL   C30345457   4.471   4.853   2.238 -1.3724  0.3171 -0.3468
  108MOL   C30445458   4.400   4.751   2.174 -0.2010  0.2520  0.2765
  108MOL   C30545459   4.346   4.786   2.050  0.5363  0.6579 -0.2819
  108MOL   C30645460   3.989   4.648   1.763  0.0145  0.7727  0.3276
  108MOL   H30745461   3.973   4.847   1.683 -0.3279  1.7722  0.6156
  108MOL   H30845462   4.237   4.870   1.696 -2.2616  1.7535  0.2603
  108MOL   H30945463   4.272   4.744   1.795 -2.3216 -0.9019 -0.1177
  108MOL   H31045464   4.477   5.085   1.996 -1.6866  0.9943  0.2676
  108MOL   H31145465   4.569   5.046   2.223 -1.1249 -1.1051  2.0678
  108MOL   H31245466   4.523   4.825   2.329  1.1055 -0.6544 -2.0202
  108MOL   H31345467   4.396   4.653   2.220  1.0570  0.6957  1.3718
  108MOL   H31445468   4.288   4.707   2.005 -1.0136  1.6501 -0.0438
  108MOL   H31545469   4.085   4.619   1.720 -0.0698  0.1432  0.5657
  108MOL   H31645470   3.917   4.626   1.684 -1.9738  0.8912  2.0851
  108MOL   C31745471   3.939   4.552   1.874 -1.7158  0.7908  0.8633
  108MOL   O31845472   4.047   4.534   1.969  0.0914  0.2469 -0.2102
  108MOL   C31945473   4.037   4.613   2.084 -0.9368 -0.3008 -0.9964
  108MOL   O32045474   3.936   4.580   2.166 -0.1999  0.1746  0.2667
  108MOL   C32145475   3.911   4.659   2.279  0.0622 -0.2658 -0.3243
  108MOL   C32245476   3.954   4.793   2.292 -0.2196  0.2561 -0.0042
  108MOL   C32345477   3.922   4.857   2.412 -0.4351 -0.0650 -0.2065
  108MOL   C32445478   3.836   4.800   2.504  0.1167  0.2056 -0.1760
  108MOL   C32545479   3.782   4.673   2.493 -0.3973  0.2550  1.3541
  108MOL   C32645480   3.832   4.596   2.382 -0.2429 -0.6353 -0.2580
  108MOL   C32745481   3.893   4.413   1.815 -0.3851 -0.5927  0.1159
  108MOL   H32845482   3.849   4.589   1.922 -2.0745 -2.2159  2.6821
  108MOL   H32945483   4.037   4.715   2.046 -0.1385  0.3800  0.7469
  108MOL   H33045484   4.131   4.593   2.135 -0.4358 -1.8071 -2.4635
  108MOL   H33145485   4.020   4.845   2.224 -1.6873 -0.8875 -2.3712
  108MOL   H33245486   3.953   4.961   2.415  0.1360 -0.2451  0.1926
  108MOL   H33345487   3.809   4.863   2.587  0.0799  0.2810 -0.2443
  108MOL   H33445488   3.721   4.630   2.570 -0.6485 -0.8850  0.5313
  108MOL   H33545489   3.808   4.492   2.364 -0.8036 -0.3553 -1.1486
  108MOL   H33645490   3.812   4.440   1.748  0.3801  1.6080  0.0231
  108MOL   H33745491   3.971   4.372   1.751 -0.5248  0.6770 -0.8940
  108MOL   C33845492   3.858   4.309   1.918 -0.4375  0.1566 -1.0206
  108MOL   O33945493   3.739   4.236   1.887  0.2069  0.0278 -0.4934
  108MOL   C34045494   3.631   4.271   1.966  0.1526 -0.5828 -0.1722
  108MOL   O34145495   3.583   4.399   1.943 -0.2754 -0.6499 -0.4512
  108MOL   C34245496   3.502   4.430   1.839 -0.2799 -0.9250  0.3803
  108MOL   C34345497   3.424   4.542   1.851  0.1367  0.3072 -0.9145
  108MOL   C34445498   3.340   4.589   1.745 -0.4842 -0.0883 -0.3952
  108MOL   C34545499   3.347   4.517   1.622 -0.4054  0.6537 -0.3197
  108MOL   C34645500   3.430   4.397   1.613  0.1055 -0.4398  0.0419
  108MOL   C34745501   3.508   4.350   1.720 -0.6108 -0.0842  0.3202
  108MOL   C34845502   3.971   4.216   1.949 -0.1290 -0.4720 -0.0246
  108MOL   H34945503   3.851   4.360   2.014 -1.5362 -1.4834 -0.1984
  108MOL   H35045504   3.656   4.266   2.072  0.1145  0.8565 -0.0752
  108MOL   H35145505   3.556   4.193   1.956  1.5089 -1.8316 -0.8883
  108MOL   H35245506   3.432   4.588   1.948 -2.7239  1.4109 -1.1589
  108MOL   H35345507   3.286   4.682   1.754  3.9545  2.6214 -0.5228
  108MOL   H35445508   3.285   4.549   1.539 -1.6223  0.7473  0.6009
  108MOL   H35545509   3.433   4.346   1.517 -1.7768  2.1703 -1.4683
  108MOL   H35645510   3.566   4.260   1.709 -0.1859  0.2921 -0.5506
  108MOL   H35745511   4.067   4.267   1.956 -1.0624  1.3238 -0.0258
  108MOL   H35845512   3.984   4.156   1.859 -2.1656  0.8874 -1.2905
  108MOL   C35945513   3.960   4.126   2.070  0.1267 -0.5283 -0.4841
  108MOL   O36045514   4.078   4.146   2.148 -0.6628  0.1360  0.1182
  108MOL   C36145515   4.086   4.262   2.229  0.7309 -0.1863 -0.3488
  108MOL   O36245516   4.199   4.250   2.307 -0.2602  0.1608 -0.4512
  108MOL   C36345517   4.324   4.254   2.249 -0.4403 -0.1747 -0.1249
  108MOL   C36445518   4.440   4.270   2.330 -0.3490 -0.2005 -0.9151
  108MOL   C36545519   4.570   4.279   2.273 -0.0840  0.7360 -0.0987
  108MOL   C36645520   4.586   4.261   2.132 -0.0177  0.1760 -0.9451
  108MOL   C36745521   4.479   4.251   2.047  0.4194  0.1981  0.2755
  108MOL   C36845522   4.347   4.249   2.110 -0.0299  0.8012  0.4365
  108MOL   C36945523   3.963   3.975   2.045 -0.1446  0.1747  0.0974
  108MOL   H37045524   3.866   4.148   2.120  1.5269  2.6032  0.9277
  108MOL   H37145525   3.998   4.277   2.292  0.3275 -1.5715 -0.5722
  108MOL   H37245526   4.095   4.347   2.161  0.1017 -0.9431 -1.3979
  108MOL   H37345527   4.432   4.292   2.436 -0.8434  1.9744 -1.3842
  108MOL   H37445528   4.657   4.282   2.338 -0.9865 -2.1346  1.3388
  108MOL   H37545529   4.690   4.267   2.101  0.4610  0.9221  0.7250
  108MOL   H37645530   4.492   4.222   1.944 -1.6629 -1.7808  0.5131
  108MOL   H37745531   4.267   4.224   2.043 -0.1705  0.7708  0.6153
  108MOL   H37845532   4.060   3.933   2.019 -0.9376 -0.2077 -2.3139
  108MOL   H37945533   3.901   3.959   1.957  1.9797 -2.7994 -0.9430
  108MOL   C38045534   3.910   3.892   2.157 -1.0293  0.1340 -0.7276
  108MOL   O38145535   4.007   3.812   2.225 -0.1182  0.4017  0.6720
  108MOL   C38245536   4.100   3.889   2.296  0.9066  0.1693 -0.2109
  108MOL   O38345537   4.043   3.974   2.390  0.3044  0.2446 -0.1786
  108MOL   C38445538   3.974   3.924   2.501  0.5883  0.3703  0.6258
  108MOL   C38545539   3.941   3.789   2.515 -0.6029  0.5524  0.1228
  108MOL   C38645540   3.865   3.742   2.629  0.1095 -0.1569 -0.5009
  108MOL   C38745541   3.827   3.828   2.728  0.2988 -0.3813  0.3141
  108MOL   C38845542   3.850   3.965   2.706  0.0088  0.0772  0.4351
  108MOL   C38945543   3.925   4.017   2.600  0.4895  0.5482 -0.3356
  108MOL   C39045544   3.798   3.796   2.116  0.3846  0.4316 -0.2961
  108MOL   H39145545   3.863   3.963   2.225  2.8595  0.4267  1.8470
  108MOL   H39245546   4.178   3.828   2.340 -1.2276 -2.1501  0.4857
  108MOL   H39345547   4.155   3.949   2.224  0.1406  0.3746 -0.6299
  108MOL   H39445548   3.970   3.714   2.443 -2.3469 -1.3571  1.3381
  108MOL   H39545549   3.821   3.645   2.642  0.6060 -0.5703 -1.7981
  108MOL   H39645550   3.765   3.789   2.807 -0.5565  0.1087 -0.1165
  108MOL   H39745551   3.789   4.024   2.773 -3.7726  0.5228 -3.1706
  108MOL   H39845552   3.927   4.123   2.577 -0.9619  1.2843  2.6257
  108MOL   H39945553   3.845   3.703   2.086  0.2208  0.4343 -0.5605
  108MOL   H40045554   3.726   3.822   2.039 -0.2628 -2.3228 -0.6943
  108MOL   C40145555   3.706   3.774   2.236 -0.1108 -0.0589 -0.0772
  108MOL   O40245556   3.627   3.895   2.254  0.1087 -0.4322 -0.1900
  108MOL   C40345557   3.557   3.907   2.377  0.5035 -0.0761  0.2373
  108MOL   O40445558   3.423   3.872   2.358 -0.1982 -0.0115 -0.1757
  108MOL   C40545559   3.337   3.961   2.289  0.0716  0.3806  1.0586
  108MOL   C40645560   3.383   4.069   2.221  0.2819  0.4197 -0.3610
  108MOL   C40745561   3.297   4.148   2.144  0.1901 -0.1061  0.5937
  108MOL   C40845562   3.155   4.135   2.156 -0.1294  0.2813 -0.3115
  108MOL   C40945563   3.106   4.026   2.231  0.2394 -0.8050  0.1442
  108MOL   C41045564   3.201   3.938   2.292  0.5718 -0.3773 -0.2620
  108MOL   C41145565   3.604   3.665   2.199 -0.0419  0.1708  0.9264
  108MOL   H41245566   3.763   3.743   2.324  1.4612 -2.1059 -1.7563
  108MOL   H41345567   3.572   4.011   2.406  0.4994  0.5785 -2.0181
  108MOL   H41445568   3.589   3.834   2.452 -1.4157 -1.3897 -0.1703
  108MOL   H41545569   3.488   4.093   2.227 -0.4874  3.4525  2.4740
  108MOL   H41645570   3.338   4.231   2.088 -0.0208 -2.0078 -2.4856
  108MOL   H41745571   3.088   4.206   2.109 -1.1609  0.7797  1.8751
  108MOL   H41845572   3.000   4.010   2.246 -0.3120  0.5158 -2.1357
  108MOL   H41945573   3.170   3.850   2.348  2.8474 -1.7630 -1.1381
  108MOL   H42045574   3.527   3.642   2.273  0.2429  2.6434  2.0405
  108MOL   H42145575   3.652   3.568   2.185 -2.1076 -0.9976  1.8383
  108MOL   H42245576   3.554   3.696   2.108 -0.6941  2.9122  2.1471
  109MOL     C145577   6.166   1.248   5.956 -0.2927 -0.0660  0.1968
  109MOL     O245578   6.255   1.185   6.053  0.8061  0.2315 -0.2612
  109MOL     C345579   6.255   1.039   6.065 -0.3260 -0.4931  0.4501
  109MOL     O445580   6.148   0.986   6.131 -0.3347 -0.4017 -0.0218
  109MOL     C545581   6.158   0.994   6.270  0.1505  0.5046 -0.0542
  109MOL     C645582   6.231   1.088   6.343 -0.4238  0.5189 -0.4043
  109MOL     C745583   6.223   1.070   6.483  0.3271 -0.0974  0.2440
  109MOL     C845584   6.151   0.965   6.549  0.0566  0.4525 -0.2076
  109MOL     C945585   6.082   0.874   6.469  0.0547  0.7353  0.3750
  109MOL    C1045586   6.082   0.894   6.336  0.7933  0.7358 -0.3559
  109MOL    C1145587   6.153   1.389   5.994 -0.2469 -0.0754 -0.4443
  109MOL    H1245588   6.221   1.255   5.862 -0.6577 -0.2328 -0.0348
  109MOL    H1345589   6.246   1.009   5.961  4.1188 -2.0751  0.4045
  109MOL    H1445590   6.351   1.005   6.103  0.1472  0.1925 -0.1105
  109MOL    H1545591   6.286   1.169   6.297 -2.1672  1.0549 -1.5763
  109MOL    H1645592   6.272   1.144   6.544  1.0664 -2.2142  2.3373
  109MOL    H1745593   6.152   0.966   6.657  0.9009  1.1843 -0.2119
  109MOL    H1845594   6.023   0.798   6.519 -1.7821  1.3440 -0.8384
  109MOL    H1945595   6.033   0.818   6.277  0.6755 -1.5940  2.6039
  109MOL    H2045596   6.253   1.431   5.983 -0.3278  1.1663  2.7825
  109MOL    H2145597   6.137   1.404   6.101  0.9429 -2.9435  0.1998
  109MOL    H2245598   6.069   1.200   5.942 -1.4322  2.3920 -0.5156
  109MOL    C2345599   6.070   1.476   5.907  0.5571  0.2986 -0.6566
  109MOL    O2445600   6.129   1.467   5.779  0.1743 -0.5782  0.5205
  109MOL    C2545601   6.032   1.452   5.684  0.1384  0.6202 -0.6287
  109MOL    O2645602   5.981   1.320   5.686  0.4050  0.6469 -0.1016
  109MOL    C2745603   5.887   1.287   5.592  0.0643  0.3265  0.0756
  109MOL    C2845604   5.862   1.148   5.591  0.8387 -0.5133 -0.5194
  109MOL    C2945605   5.756   1.100   5.514 -0.2418 -0.3862  0.1640
  109MOL    C3045606   5.682   1.180   5.422 -0.2396  0.2640  0.0159
  109MOL    C3145607   5.714   1.317   5.418  0.5146 -0.2390  0.2479
  109MOL    C3245608   5.817   1.372   5.502 -0.3637  0.2742  0.1163
  109MOL    C3345609   6.048   1.623   5.942 -0.0982 -0.2370  0.1044
  109MOL    H3445610   5.967   1.442   5.892 -0.7027  4.8861 -3.7702
  109MOL    H3545611   6.070   1.472   5.583 -1.7560  0.6243 -1.3633
  109MOL    H3645612   5.965   1.537   5.682 -0.0090  0.5201  0.2172
  109MOL    H3745613   5.911   1.074   5.653  2.9159  2.8405  2.0647
  109MOL    H3845614   5.732   0.994   5.520 -0.7832 -0.4618 -2.7545
  109MOL    H3945615   5.600   1.143   5.363 -1.2036 -0.1079  1.5493
  109MOL    H4045616   5.668   1.376   5.339 -0.6967  0.9014  1.7726
  109MOL    H4145617   5.845   1.476   5.490 -0.0357  0.2934  0.9709
  109MOL    H4245618   6.013   1.690   5.863  0.1780 -0.7191 -0.4312
  109MOL    H4345619   6.144   1.666   5.971  0.7463 -1.9670 -0.0629
  109MOL    C4445620   5.955   1.632   6.072  0.3362 -0.3165 -0.0082
  109MOL    O4545621   5.848   1.729   6.052 -0.5244 -0.1957 -0.2807
  109MOL    C4645622   5.748   1.670   5.978 -0.0024 -0.5442 -0.7868
  109MOL    O4745623   5.770   1.660   5.843 -0.0752 -0.3699  0.4876
  109MOL    C4845624   5.755   1.766   5.761 -0.0888 -0.2258 -0.3003
  109MOL    C4945625   5.745   1.902   5.813 -0.3084 -0.0989  0.3165
  109MOL    C5045626   5.733   2.015   5.733  0.4119 -0.3786 -0.4034
  109MOL    C5145627   5.749   1.996   5.595  0.3946  0.1110  0.7530
  109MOL    C5245628   5.760   1.868   5.544 -0.0545  0.2515 -0.0214
  109MOL    C5345629   5.767   1.753   5.624 -0.2477 -0.8749  0.1174
  109MOL    C5445630   6.045   1.696   6.183  0.4410 -0.0613 -0.0722
  109MOL    H5545631   5.918   1.540   6.118 -0.9291  0.0124 -0.3546
  109MOL    H5645632   5.658   1.729   5.998  0.8453  0.2039  0.8745
  109MOL    H5745633   5.717   1.573   6.016 -1.2136  1.1344  2.6946
  109MOL    H5845634   5.733   1.920   5.919 -1.2763  0.4389  0.1170
  109MOL    H5945635   5.726   2.114   5.774 -0.6393 -0.9534  0.8285
  109MOL    H6045636   5.755   2.075   5.522  1.0826 -0.2776  0.3930
  109MOL    H6145637   5.782   1.857   5.438  0.9578 -0.0713  0.2184
  109MOL    H6245638   5.780   1.654   5.583 -0.4128 -1.3814  1.2600
  109MOL    H6345639   6.138   1.639   6.187  0.1568 -0.4593  0.9950
  109MOL    H6445640   6.071   1.796   6.148 -0.5420  0.3601  0.3784
  109MOL    C6545641   5.974   1.703   6.323 -0.7303  0.1328 -0.0290
  109MOL    O6645642   5.981   1.571   6.374 -0.3424  0.0179 -0.2830
  109MOL    C6745643   5.879   1.553   6.463  0.3418  0.0700 -0.4799
  109MOL    O6845644   5.760   1.523   6.396 -0.0314  0.6298  0.6268
  109MOL    C6945645   5.754   1.394   6.351  0.2205  0.1117 -0.0577
  109MOL    C7045646   5.630   1.334   6.326  0.3921 -0.7125 -0.6982
  109MOL    C7145647   5.614   1.195   6.308 -0.6938  0.3771  0.2612
  109MOL    C7245648   5.722   1.103   6.317  0.5733 -0.3456  0.7975
  109MOL    C7345649   5.850   1.164   6.336  0.4909 -0.4148  0.1569
  109MOL    C7445650   5.869   1.309   6.347 -0.1364 -0.5430 -0.4371
  109MOL    C7545651   6.038   1.803   6.422 -0.5671 -0.2917 -0.5317
  109MOL    H7645652   5.873   1.737   6.301 -0.0808  1.4318 -1.1084
  109MOL    H7745653   5.874   1.641   6.528 -1.4410  0.7349 -1.4687
  109MOL    H7845654   5.905   1.471   6.529 -1.6682  0.1064  0.4002
  109MOL    H7945655   5.545   1.400   6.324  0.3158 -0.8027 -0.4685
  109MOL    H8045656   5.517   1.152   6.290  0.0401 -0.1797 -2.5709
  109MOL    H8145657   5.715   0.995   6.316 -0.7751 -0.2634  1.3454
  109MOL    H8245658   5.946   1.115   6.349  0.7125 -0.0693 -0.1821
  109MOL    H8345659   5.973   1.334   6.356 -0.4327  0.8408 -0.6964
  109MOL    H8445660   6.064   1.743   6.509 -1.1667  1.0191  0.5646
  109MOL    H8545661   6.136   1.840   6.391  0.0542  0.9442  2.6504
  109MOL    C8645662   5.952   1.923   6.467  0.1444 -0.3098  0.0187
  109MOL    O8745663   6.001   1.986   6.579 -0.3053 -0.2622 -0.0218
  109MOL    C8845664   6.014   1.910   6.692  0.1093 -0.4378 -0.3277
  109MOL    O8945665   6.150   1.880   6.720 -0.0677 -0.2505  0.5247
  109MOL    C9045666   6.176   1.809   6.831 -0.4127  0.1745 -0.5179
  109MOL    C9145667   6.309   1.819   6.879  0.1865  0.5642 -0.0000
  109MOL    C9245668   6.341   1.757   6.998 -0.2799  1.0399  0.1970
  109MOL    C9345669   6.245   1.681   7.070 -0.1898 -0.5344 -0.6069
  109MOL    C9445670   6.114   1.662   7.020 -0.7978  0.5369  0.3935
  109MOL    C9545671   6.082   1.726   6.896  0.1553  0.4659  0.0761
  109MOL    C9645672   5.932   2.031   6.361  0.1416 -0.2067  0.2414
  109MOL    H9745673   5.854   1.883   6.494  0.2459 -0.7033 -0.2083
  109MOL    H9845674   5.930   1.842   6.708  1.7922 -2.5864 -0.4108
  109MOL    H9945675   5.989   2.000   6.749 -1.5160 -0.6469 -0.6837
  109MOL   H10045676   6.385   1.871   6.824 -0.3203  1.1349 -0.1667
  109MOL   H10145677   6.444   1.765   7.030  0.0913  2.3270 -1.2549
  109MOL   H10245678   6.279   1.638   7.163 -0.3147  0.3009 -0.1758
  109MOL   H10345679   6.042   1.603   7.073  0.9961 -1.2109  0.9621
  109MOL   H10445680   5.984   1.712   6.853  0.6915  0.6501 -1.2466
  109MOL   H10545681   6.023   2.079   6.323 -0.1336  0.5841  0.5736
  109MOL   H10645682   5.909   1.971   6.273 -1.2569 -0.8230  1.0109
  109MOL   C10745683   5.814   2.128   6.388 -0.0493 -0.2289 -0.0551
  109MOL   O10845684   5.706   2.052   6.439  0.1335  0.2470  0.1095
  109MOL   C10945685   5.633   1.977   6.350 -0.0976  0.2709 -0.4336
  109MOL   O11045686   5.557   2.049   6.268  0.2359 -1.2929  0.5118
  109MOL   C11145687   5.444   2.118   6.316  0.5003 -0.5548 -0.5775
  109MOL   C11245688   5.424   2.153   6.453 -0.2556  0.7398 -0.0951
  109MOL   C11345689   5.316   2.238   6.487  0.8708 -0.5792 -0.2538
  109MOL   C11445690   5.220   2.270   6.386 -0.2444 -0.3886 -0.2409
  109MOL   C11545691   5.238   2.232   6.251 -0.0082  0.4795  1.1437
  109MOL   C11645692   5.354   2.149   6.216 -0.1338  0.0333  0.0890
  109MOL   C11745693   5.843   2.221   6.511 -0.3385 -0.7919 -0.4421
  109MOL   H11845694   5.788   2.181   6.297  2.9319  0.8651 -0.3129
  109MOL   H11945695   5.574   1.902   6.403  0.5928 -0.5725 -0.8542
  109MOL   H12045696   5.709   1.934   6.285  0.1584  0.9649 -0.5933
  109MOL   H12145697   5.492   2.114   6.528 -0.1119  0.8045 -0.1916
  109MOL   H12245698   5.293   2.267   6.589 -1.8242 -1.8043 -0.4596
  109MOL   H12345699   5.137   2.329   6.421 -1.6949 -1.2564 -2.0923
  109MOL   H12445700   5.163   2.262   6.179  0.9350  0.8652  0.3109
  109MOL   H12545701   5.378   2.109   6.118 -1.5849  0.9344 -0.6564
  109MOL   H12645702   5.946   2.257   6.515 -0.4942 -0.2121 -1.4559
  109MOL   H12745703   5.839   2.156   6.597  2.3019 -1.0198 -0.4463
  109MOL   C12845704   5.746   2.338   6.530  0.3633 -0.2591 -0.3970
  109MOL   O12945705   5.742   2.413   6.408 -0.5849 -0.6370 -0.7422
  109MOL   C13045706   5.629   2.493   6.397  0.0292 -0.9220  0.5267
  109MOL   O13145707   5.637   2.618   6.463  0.2169 -0.6352 -0.0133
  109MOL   C13245708   5.524   2.679   6.512  0.5877  0.4910 -0.4133
  109MOL   C13345709   5.395   2.642   6.465  0.4415  0.4102  0.1741
  109MOL   C13445710   5.271   2.703   6.519 -0.3882 -0.7106  1.0776
  109MOL   C13545711   5.280   2.794   6.628 -0.5957  0.4576 -0.2309
  109MOL   C13645712   5.407   2.821   6.674 -0.3597  0.6059 -0.1190
  109MOL   C13745713   5.529   2.765   6.623  0.0132  0.3872 -0.4344
  109MOL   C13845714   5.784   2.425   6.655  0.2998 -0.1616 -0.5972
  109MOL   H13945715   5.646   2.297   6.547  0.7675 -1.1670 -0.1714
  109MOL   H14045716   5.540   2.435   6.420 -2.6674  2.2481 -1.4801
  109MOL   H14145717   5.630   2.514   6.290  1.4644 -0.1196  0.6859
  109MOL   H14245718   5.387   2.560   6.395 -1.2323 -0.8460  1.7802
  109MOL   H14345719   5.180   2.663   6.478  0.7893 -0.7489 -1.6377
  109MOL   H14445720   5.195   2.838   6.678 -0.9994 -1.4316  0.8243
  109MOL   H14545721   5.400   2.868   6.771 -0.3697  1.1049 -0.3614
  109MOL   H14645722   5.619   2.783   6.679  0.0292  0.8461 -0.6024
  109MOL   H14745723   5.883   2.465   6.635  0.1097  0.8826  0.5002
  109MOL   H14845724   5.726   2.517   6.667 -1.5830 -1.2537 -1.0333
  109MOL   C14945725   5.784   2.350   6.792 -0.0945  0.3081 -0.3856
  109MOL   O15045726   5.834   2.436   6.892 -0.7585 -0.9373  0.0101
  109MOL   C15145727   5.966   2.454   6.907  0.0750  0.5510  0.1354
  109MOL   O15245728   6.016   2.328   6.933 -0.0158  0.3564 -0.0047
  109MOL   C15345729   5.999   2.272   7.062 -0.1599  0.0296 -0.1596
  109MOL   C15445730   6.073   2.152   7.081  0.3716  0.3716  0.6861
  109MOL   C15545731   6.062   2.085   7.205  0.4369  0.5156  0.3818
  109MOL   C15645732   5.965   2.121   7.301 -0.8014 -0.3108 -0.3763
  109MOL   C15745733   5.898   2.246   7.284 -0.5601  0.5855  0.2081
  109MOL   C15845734   5.918   2.323   7.167 -0.0618  0.2303 -0.1407
  109MOL   C15945735   5.637   2.309   6.820  0.0771 -0.3769 -0.3619
  109MOL   H16045736   5.850   2.263   6.784 -1.5187 -1.1489  2.6610
  109MOL   H16145737   6.003   2.504   6.818  1.8210  0.8227  0.9772
  109MOL   H16245738   5.983   2.522   6.991  1.0035  0.2666  0.1908
  109MOL   H16345739   6.135   2.104   7.007  0.1492  0.7839  0.2349
  109MOL   H16445740   6.119   1.993   7.208 -1.2844 -0.6348 -1.1437
  109MOL   H16545741   5.935   2.051   7.378 -1.3800 -0.3281 -0.6085
  109MOL   H16645742   5.834   2.281   7.364  0.0552 -0.1418  1.0293
  109MOL   H16745743   5.869   2.418   7.151 -0.5847 -0.4779 -3.1617
  109MOL   H16845744   5.572   2.294   6.734 -0.1101 -1.2730 -0.0743
  109MOL   H16945745   5.590   2.391   6.873  1.5992 -0.3919  1.0386
  109MOL   C17045746   5.633   2.175   6.895  0.5760  0.3353 -0.3897
  109MOL   O17145747   5.517   2.172   6.982  0.0566  0.0350  0.0026
  109MOL   C17245748   5.541   2.235   7.104 -0.2485  0.0383 -0.4366
  109MOL   O17345749   5.608   2.165   7.207  0.3643 -0.3344  0.5230
  109MOL   C17445750   5.549   2.044   7.252 -0.2435 -0.1042  0.1392
  109MOL   C17545751   5.428   1.992   7.211 -0.0283 -0.4764 -0.3850
  109MOL   C17645752   5.394   1.863   7.256  0.0705 -0.2352  0.3650
  109MOL   C17745753   5.462   1.806   7.361  0.5261  0.1005 -0.3509
  109MOL   C17845754   5.567   1.872   7.422  0.1618  0.7814 -0.1309
  109MOL   C17945755   5.617   1.988   7.362  0.0693  0.3492 -0.3079
  109MOL   C18045756   5.595   2.049   6.797  0.7017 -0.1913 -0.2021
  109MOL   H18145757   5.714   2.151   6.964 -0.6437 -3.2369 -0.0943
  109MOL   H18245758   5.444   2.269   7.141 -0.0863  0.6731 -0.5894
  109MOL   H18345759   5.604   2.322   7.087  0.5739 -0.7861 -1.7733
  109MOL   H18445760   5.376   2.045   7.133  0.5200 -0.9494 -1.0681
  109MOL   H18545761   5.305   1.824   7.209 -1.0682  0.1376  2.1859
  109MOL   H18645762   5.436   1.708   7.399 -0.3846  0.1480 -0.8414
  109MOL   H18745763   5.623   1.818   7.498 -1.2794 -0.1362  0.3000
  109MOL   H18845764   5.717   2.020   7.389  0.0076 -0.0709  0.4335
  109MOL   H18945765   5.493   2.036   6.760  0.9526  0.3979 -1.0865
  109MOL   H19045766   5.664   2.064   6.714  0.2545 -0.3391 -0.6044
  109MOL   C19145767   5.620   1.913   6.863  0.2353 -0.1573 -0.1703
  109MOL   O19245768   5.761   1.890   6.882 -0.8412  0.4731 -0.6602
  109MOL   C19345769   5.793   1.875   7.018  1.1896 -0.3290  0.1235
  109MOL   O19445770   5.729   1.756   7.057  0.1187 -0.0232 -0.1843
  109MOL   C19545771   5.754   1.698   7.180  0.2747 -0.2950 -0.8014
  109MOL   C19645772   5.859   1.740   7.264 -0.0731 -0.3470  0.0395
  109MOL   C19745773   5.882   1.670   7.385 -0.3374 -0.1281 -0.1573
  109MOL   C19845774   5.799   1.560   7.418  0.5067 -0.3977 -0.0804
  109MOL   C19945775   5.699   1.518   7.330  0.1385 -0.4206  0.4649
  109MOL   C20045776   5.673   1.595   7.216 -0.0693  0.1268 -0.0810
  109MOL   C20145777   5.577   1.792   6.775  0.2248 -0.0698 -0.1948
  109MOL   H20245778   5.572   1.914   6.961  0.8425 -2.8422  0.2011
  109MOL   H20345779   5.757   1.954   7.083  0.2276 -0.7814  0.1462
  109MOL   H20445780   5.899   1.877   7.043  0.8662  1.1868  1.4679
  109MOL   H20545781   5.920   1.823   7.232  1.3086 -1.7095 -0.9262
  109MOL   H20645782   5.949   1.700   7.464 -0.8361  1.1038 -0.1952
  109MOL   H20745783   5.809   1.498   7.506  0.6252  2.5254  2.0065
  109MOL   H20845784   5.644   1.426   7.347  0.1818 -1.1967 -3.1928
  109MOL   H20945785   5.593   1.552   7.158  0.5854  0.0546 -0.9376
  109MOL   H21045786   5.636   1.783   6.684  2.2797 -1.0050  1.2098
  109MOL   H21145787   5.597   1.695   6.819 -2.4933 -0.5292  0.1363
  109MOL   C21245788   5.429   1.782   6.719 -0.3213 -0.6294  0.1295
  109MOL   O21345789   5.413   1.659   6.645  0.4267  0.0159  0.1062
  109MOL   C21445790   5.444   1.659   6.512 -0.2982 -0.4216  0.0516
  109MOL   O21545791   5.365   1.734   6.430 -0.2430 -0.7579 -0.1073
  109MOL   C21645792   5.233   1.702   6.415  0.1839  0.0275  0.0715
  109MOL   C21745793   5.172   1.588   6.468 -0.3759 -0.4808  0.1549
  109MOL   C21845794   5.040   1.559   6.432 -0.3407  0.3129 -0.5734
  109MOL   C21945795   4.975   1.644   6.340  0.1403 -1.1957 -0.7962
  109MOL   C22045796   5.041   1.764   6.291  0.9227 -0.3404 -0.1665
  109MOL   C22145797   5.171   1.792   6.326  0.0522 -0.5428  0.6699
  109MOL   C22245798   5.337   1.766   6.832  0.2319 -0.1005  0.5506
  109MOL   H22345799   5.406   1.873   6.664 -0.6313 -2.1110 -2.2990
  109MOL   H22445800   5.447   1.556   6.479 -0.5489 -1.0264  1.8437
  109MOL   H22545801   5.546   1.693   6.497 -0.6023  0.2834 -0.4520
  109MOL   H22645802   5.221   1.520   6.536  0.4631 -0.2935 -0.2469
  109MOL   H22745803   4.982   1.484   6.483  1.3896  0.2377  1.3347
  109MOL   H22845804   4.870   1.625   6.325  0.2550 -2.1940 -0.3819
  109MOL   H22945805   4.986   1.833   6.230 -1.1772 -1.3323  0.5152
  109MOL   H23045806   5.229   1.875   6.287  0.0651 -1.7283 -1.9541
  109MOL   H23145807   5.365   1.672   6.879  0.1310 -0.2953  0.2157
  109MOL   H23245808   5.361   1.847   6.902  4.1474  0.4055 -1.2591
  109MOL   C23345809   5.188   1.784   6.797 -0.8372  0.1674  0.9265
  109MOL   O23445810   5.119   1.769   6.920  0.3928  0.0607  0.4987
  109MOL   C23545811   5.098   1.643   6.965  0.5231  0.2585 -0.2470
  109MOL   O23645812   5.048   1.561   6.867  0.4077 -0.0213  0.0367
  109MOL   C23745813   4.911   1.561   6.847 -0.2674 -0.3012  0.2432
  109MOL   C23845814   4.850   1.472   6.754 -0.2015 -0.3261  0.0493
  109MOL   C23945815   4.709   1.476   6.729 -0.2054  0.1429  0.0888
  109MOL   C24045816   4.623   1.564   6.795  0.4282 -0.3388  0.2298
  109MOL   C24145817   4.685   1.666   6.871 -0.1736 -0.0606 -0.7566
  109MOL   C24245818   4.826   1.664   6.900 -0.1139 -0.2369  0.7023
  109MOL   C24345819   5.157   1.926   6.736 -0.6449 -0.2006  0.4954
  109MOL   H24445820   5.148   1.711   6.727 -0.2987  2.0626 -1.3944
  109MOL   H24545821   5.026   1.634   7.047  0.0806  0.0627 -0.6546
  109MOL   H24645822   5.192   1.599   6.998  0.2251 -0.1388  0.0929
  109MOL   H24745823   4.911   1.394   6.711 -1.2756 -0.2365 -1.6622
  109MOL   H24845824   4.665   1.401   6.665 -1.0467  0.6002  0.1339
  109MOL   H24945825   4.515   1.563   6.791  0.4640 -1.7653 -0.6413
  109MOL   H25045826   4.617   1.722   6.934 -0.5431 -0.9048 -0.3870
  109MOL   H25145827   4.862   1.734   6.974  1.2968  0.2139 -0.3757
  109MOL   H25245828   5.225   2.002   6.775 -0.2668 -0.1778 -0.1841
  109MOL   H25345829   5.194   1.920   6.633 -2.0659 -0.0045 -0.0366
  109MOL   C25445830   5.016   1.983   6.747  0.4957 -0.7192 -0.7456
  109MOL   O25545831   5.026   2.102   6.823 -0.4674  0.0919  0.5373
  109MOL   C25645832   5.029   2.089   6.966 -0.1260 -0.2856  0.1865
  109MOL   O25745833   4.924   2.021   7.015  0.1594 -0.3222 -0.1002
  109MOL   C25845834   4.934   1.989   7.153  0.4476 -0.0156  0.0476
  109MOL   C25945835   5.045   2.028   7.238  0.0549  0.2154  1.2541
  109MOL   C26045836   5.068   1.966   7.365  0.1357 -0.7094  0.1108
  109MOL   C26145837   4.982   1.870   7.409  0.5317  0.6732  0.3446
  109MOL   C26245838   4.865   1.844   7.333  0.2173 -0.1717  0.7382
  109MOL   C26345839   4.842   1.898   7.203  0.0134 -0.5816  0.1230
  109MOL   C26445840   4.962   2.024   6.608 -0.8391  0.1674  0.6021
  109MOL   H26545841   4.950   1.902   6.777 -1.2120  1.1744  0.6804
  109MOL   H26645842   5.034   2.190   7.006  1.2096 -0.8593  1.4890
  109MOL   H26745843   5.123   2.037   6.983 -0.5327 -1.0631  0.0899
  109MOL   H26845844   5.113   2.101   7.196 -0.8561 -0.0088 -0.6211
  109MOL   H26945845   5.152   2.001   7.424  1.2691  0.9881 -2.4112
  109MOL   H27045846   4.997   1.810   7.498 -0.9548 -0.8108 -0.3679
  109MOL   H27145847   4.803   1.760   7.360 -0.5932  0.1555 -0.0873
  109MOL   H27245848   4.760   1.872   7.137 -1.0273  2.7831  0.0123
  109MOL   H27345849   5.024   2.110   6.583  0.2743 -0.8966 -0.3816
  109MOL   H27445850   4.975   1.950   6.528 -0.4083 -1.0732  1.8058
  109MOL   C27545851   4.807   2.048   6.609  0.0292 -0.0126 -0.3279
  109MOL   O27645852   4.769   2.140   6.505 -0.2174 -0.4533  0.0074
  109MOL   C27745853   4.785   2.274   6.547 -0.0315 -0.1491 -0.0058
  109MOL   O27845854   4.700   2.311   6.654 -0.2716  0.1164 -0.0747
  109MOL   C27945855   4.585   2.384   6.618  0.1067  0.1878 -0.1272
  109MOL   C28045856   4.508   2.352   6.500 -0.0009  0.1123 -0.4068
  109MOL   C28145857   4.394   2.428   6.464 -0.0787  0.1200  0.1537
  109MOL   C28245858   4.363   2.540   6.544 -0.3566 -0.1243 -0.2645
  109MOL   C28345859   4.435   2.567   6.668  0.0357  0.6675  0.1024
  109MOL   C28445860   4.551   2.495   6.695  0.3865  0.3032  0.3378
  109MOL   C28545861   4.724   1.920   6.593 -0.3360 -0.1950 -0.5860
  109MOL   H28645862   4.789   2.103   6.702  1.1809  0.1242 -0.1740
  109MOL   H28745863   4.761   2.333   6.459 -0.0396  2.0245  1.4133
  109MOL   H28845864   4.886   2.295   6.583 -0.4691 -0.7718  1.6161
  109MOL   H28945865   4.545   2.263   6.450 -1.6268  0.2064 -1.8208
  109MOL   H29045866   4.334   2.400   6.378  0.4523  0.3325 -0.2897
  109MOL   H29145867   4.285   2.604   6.506 -0.2197 -0.2249 -0.7174
  109MOL   H29245868   4.411   2.648   6.735  4.0344  1.9022  0.1577
  109MOL   H29345869   4.614   2.526   6.777 -1.3861  0.5407  1.6542
  109MOL   H29445870   4.743   1.838   6.662  0.1452 -0.5968 -1.1864
  109MOL   H29545871   4.756   1.881   6.496 -3.2389 -1.6566 -1.0092
  109MOL   C29645872   4.573   1.947   6.588  0.7977 -0.2029  0.0971
  109MOL   O29745873   4.504   1.829   6.546  0.0995 -0.0692  0.0919
  109MOL   C29845874   4.481   1.824   6.403 -0.6553  0.0727  0.0000
  109MOL   O29945875   4.590   1.859   6.319 -0.1909 -0.4505  0.4061
  109MOL   C30045876   4.568   1.842   6.181  0.2854  0.0221  0.5368
  109MOL   C30145877   4.679   1.854   6.099 -0.2606 -0.4957 -0.3203
  109MOL   C30245878   4.668   1.835   5.958 -0.0275 -0.4363 -0.0997
  109MOL   C30345879   4.546   1.794   5.905  0.1836  0.3720 -0.6274
  109MOL   C30445880   4.432   1.780   5.981  0.8186 -0.6354 -0.3843
  109MOL   C30545881   4.443   1.795   6.117  0.0934  0.4323 -0.9319
  109MOL   C30645882   4.517   1.986   6.733  0.3221 -0.6142 -0.0920
  109MOL   H30745883   4.544   2.031   6.526 -0.1952 -0.8146 -0.2746
  109MOL   H30845884   4.399   1.892   6.380  0.6154  1.9211  0.8099
  109MOL   H30945885   4.455   1.718   6.394 -0.2050 -0.3183  2.8157
  109MOL   H31045886   4.771   1.882   6.148 -0.4947  1.1737 -0.8005
  109MOL   H31145887   4.754   1.840   5.893  0.2550 -1.0386  0.2163
  109MOL   H31245888   4.530   1.775   5.800  2.7142  1.7536 -1.3187
  109MOL   H31345889   4.333   1.762   5.942 -0.3203  1.9618  1.2183
  109MOL   H31445890   4.354   1.778   6.177 -0.9760  2.9927 -1.7135
  109MOL   H31545891   4.590   2.058   6.768  2.1058 -1.1757 -2.5184
  109MOL   H31645892   4.517   1.893   6.790  0.1089 -1.4534 -1.4423
  109MOL   C31745893   4.385   2.058   6.737  0.4386  0.0924 -0.0633
  109MOL   O31845894   4.373   2.089   6.876  0.1373 -0.1688  0.3671
  109MOL   C31945895   4.383   2.220   6.912 -0.0957  0.1956 -0.1918
  109MOL   O32045896   4.268   2.288   6.875  0.2991  0.1127  0.1121
  109MOL   C32145897   4.151   2.248   6.916  0.5165 -0.1069 -0.5523
  109MOL   C32245898   4.042   2.320   6.867 -0.5193 -0.2813 -0.1806
  109MOL   C32345899   3.907   2.299   6.909  0.6067 -0.2207 -0.1260
  109MOL   C32445900   3.883   2.204   7.007  0.0650  0.3922 -0.3636
  109MOL   C32545901   3.989   2.136   7.065  0.0875 -0.2471 -0.3554
  109MOL   C32645902   4.120   2.154   7.021 -0.1731 -0.3850 -0.2137
  109MOL   C32745903   4.255   1.981   6.692  0.2072 -0.8535 -0.2595
  109MOL   H32845904   4.403   2.151   6.683  0.0087  0.4642  0.4321
  109MOL   H32945905   4.467   2.268   6.863  0.6531 -0.7561  0.1310
  109MOL   H33045906   4.407   2.241   7.017 -0.6660 -1.5679  0.3122
  109MOL   H33145907   4.065   2.394   6.792 -0.8429  1.1427  1.0958
  109MOL   H33245908   3.827   2.344   6.851 -1.1830 -1.4833  1.2852
  109MOL   H33345909   3.783   2.180   7.042 -0.0982  1.6880  0.0554
  109MOL   H33445910   3.972   2.066   7.146  1.6096 -0.2330 -0.0006
  109MOL   H33545911   4.198   2.102   7.075  0.8381  0.2450 -1.0510
  109MOL   H33645912   4.282   1.875   6.698  1.8401 -0.5333 -1.6403
  109MOL   H33745913   4.181   2.005   6.768  0.7732 -0.2711  0.1165
  109MOL   C33845914   4.197   2.010   6.555 -1.1617  0.0789  0.5546
  109MOL   O33945915   4.091   1.922   6.533 -0.0133 -0.6415 -0.8135
  109MOL   C34045916   4.123   1.801   6.476  0.0646  0.3169 -0.3826
  109MOL   O34145917   4.141   1.822   6.337  0.2385 -0.2292  0.1645
  109MOL   C34245918   4.032   1.842   6.252  0.4590  0.2086 -0.0464
  109MOL   C34345919   3.898   1.871   6.294 -0.5264  0.0106  0.1225
  109MOL   C34445920   3.796   1.902   6.200  0.2628 -0.2521 -0.0946
  109MOL   C34545921   3.825   1.907   6.061  0.2256  0.2373 -0.6631
  109MOL   C34645922   3.959   1.873   6.017  0.4797 -0.5760 -0.5794
  109MOL   C34745923   4.061   1.846   6.115 -0.3471 -0.5072 -0.1563
  109MOL   C34845924   4.135   2.149   6.544  0.0007  0.1022  0.5007
  109MOL   H34945925   4.276   2.025   6.481 -1.4948 -0.4687  0.0797
  109MOL   H35045926   4.041   1.732   6.495  1.3156 -2.0453 -3.1590
  109MOL   H35145927   4.211   1.756   6.522 -0.6464  0.6590  1.3385
  109MOL   H35245928   3.879   1.890   6.398  0.8037 -0.8716  0.5337
  109MOL   H35345929   3.695   1.932   6.225  0.3871  0.4844 -0.4540
  109MOL   H35445930   3.760   1.951   5.987  0.3214  2.5681  0.6138
  109MOL   H35545931   3.976   1.868   5.910 -2.0982 -0.7857 -1.0148
  109MOL   H35645932   4.154   1.815   6.071  0.0225  2.5997 -1.6520
  109MOL   H35745933   4.210   2.227   6.561 -0.2235  0.7502 -1.3266
  109MOL   H35845934   4.069   2.155   6.630  0.3437 -2.5036  0.9776
  109MOL   C35945935   4.066   2.172   6.416 -0.0996 -0.0841  0.2278
  109MOL   O36045936   4.164   2.219   6.328 -0.1499 -0.5878 -0.4568
  109MOL   C36145937   4.159   2.168   6.201  0.2057 -0.8967 -0.3288
  109MOL   O36245938   4.269   2.215   6.128 -0.0844 -0.2520 -0.6238
  109MOL   C36345939   4.263   2.343   6.087 -0.1322 -0.9584 -0.2841
  109MOL   C36445940   4.344   2.370   5.980 -0.0304 -0.8165 -0.6284
  109MOL   C36545941   4.363   2.495   5.925 -0.1971 -1.2519  0.4174
  109MOL   C36645942   4.274   2.599   5.959  0.1310  0.0009 -0.1904
  109MOL   C36745943   4.196   2.582   6.075 -0.6795  0.4161 -0.6062
  109MOL   C36845944   4.180   2.450   6.130  0.4345 -0.4966  0.3662
  109MOL   C36945945   3.965   2.290   6.425  0.2985  0.4373 -0.1070
  109MOL   H37045946   4.011   2.085   6.378  2.1585 -0.5823 -2.0490
  109MOL   H37145947   4.067   2.198   6.152 -0.4035  1.8771  2.3774
  109MOL   H37245948   4.169   2.060   6.214 -0.1738 -0.8138  0.6975
  109MOL   H37345949   4.397   2.283   5.942 -0.9184 -1.5949 -0.0930
  109MOL   H37445950   4.441   2.517   5.853 -1.3410  4.6598  0.7346
  109MOL   H37545951   4.288   2.698   5.917  0.3676  0.6764  1.4403
  109MOL   H37645952   4.141   2.655   6.133 -3.0431 -1.5535 -0.2813
  109MOL   H37745953   4.120   2.430   6.217 -0.4590  0.2887 -0.0659
  109MOL   H37845954   3.943   2.314   6.321 -1.8388  1.8329  0.6605
  109MOL   H37945955   4.023   2.372   6.467  1.5112  0.5629 -1.9512
  109MOL   C38045956   3.826   2.273   6.495 -1.0437 -0.0568 -0.2681
  109MOL   O38145957   3.772   2.140   6.474  0.9786 -0.3405 -0.8693
  109MOL   C38245958   3.763   2.067   6.591  0.0430 -0.1886 -0.5040
  109MOL   O38345959   3.664   2.129   6.663  0.1852  0.0823  0.0685
  109MOL   C38445960   3.633   2.069   6.781 -0.4370 -0.1047 -0.2268
  109MOL   C38545961   3.523   2.123   6.844  0.4256 -0.4520 -0.6209
  109MOL   C38645962   3.488   2.088   6.976 -0.1621  0.1776  0.3799
  109MOL   C38745963   3.565   1.984   7.040  0.5930  0.0216  0.2285
  109MOL   C38845964   3.664   1.921   6.968  0.2996 -1.1430 -0.6543
  109MOL   C38945965   3.703   1.960   6.839  0.3469  0.8025 -0.3484
  109MOL   C39045966   3.726   2.375   6.441 -0.3941 -0.4903  0.4116
  109MOL   H39145967   3.851   2.278   6.601  0.1757  1.2491 -0.5967
  109MOL   H39245968   3.742   1.963   6.566 -0.1792  0.6747 -4.1175
  109MOL   H39345969   3.857   2.073   6.646 -0.0703 -1.9348 -0.0703
  109MOL   H39445970   3.473   2.209   6.803  0.0978 -0.7067 -0.7612
  109MOL   H39545971   3.404   2.131   7.027 -0.2544  3.3221 -2.2805
  109MOL   H39645972   3.539   1.951   7.140  1.8070  0.9207  0.8584
  109MOL   H39745973   3.719   1.843   7.019  0.6045  0.1959  1.0768
  109MOL   H39845974   3.786   1.908   6.793  0.1229  0.3973 -0.3029
  109MOL   H39945975   3.625   2.339   6.463  0.5999 -2.2192  2.3289
  109MOL   H40045976   3.731   2.384   6.333  0.5253  0.5945  0.5415
  109MOL   C40145977   3.732   2.512   6.510 -0.1722  0.0404 -0.0156
  109MOL   O40245978   3.870   2.549   6.502 -0.5589 -0.2398 -0.0632
  109MOL   C40345979   3.917   2.609   6.616  0.6013 -0.1822 -0.1768
  109MOL   O40445980   3.862   2.738   6.638 -0.3422  0.1818  0.6707
  109MOL   C40545981   3.908   2.804   6.746 -0.8377  0.3311 -0.3142
  109MOL   C40645982   3.841   2.929   6.780  0.1486 -0.0399 -0.5958
  109MOL   C40745983   3.871   3.001   6.900 -0.7418 -0.0268 -0.1129
  109MOL   C40845984   3.979   2.947   6.979  0.9544  0.1295 -0.1033
  109MOL   C40945985   4.047   2.826   6.944 -0.0107  0.1784 -0.6566
  109MOL   C41045986   4.007   2.752   6.834 -0.4977  0.1259 -0.3074
  109MOL   C41145987   3.647   2.610   6.429 -0.2437  0.6447  0.0351
  109MOL   H41245988   3.697   2.504   6.612 -1.9015  1.2419 -0.4840
  109MOL   H41345989   4.025   2.613   6.603  0.6578  0.0574  0.3646
  109MOL   H41445990   3.896   2.559   6.711  1.2291 -0.4123 -0.1541
  109MOL   H41545991   3.775   2.982   6.713  0.8029  0.2813 -0.9886
  109MOL   H41645992   3.812   3.089   6.923 -0.3962  0.3927 -0.8152
  109MOL   H41745993   4.005   2.986   7.077 -1.8347  1.4782  0.1356
  109MOL   H41845994   4.129   2.783   7.000 -2.7471 -1.3428  2.3410
  109MOL   H41945995   4.048   2.656   6.808 -0.1324  0.7222 -1.9695
  109MOL   H42045996   3.632   2.698   6.492  0.0259 -0.6707  1.9711
  109MOL   H42145997   3.545   2.572   6.426 -0.8257  2.0204  1.6701
  109MOL   H42245998   3.674   2.642   6.328  0.9123 -1.7632 -0.4524
  110MOL     C145999   6.644   3.535   4.226 -0.5921 -0.6311  0.1647
  110MOL     O246000   6.691   3.524   4.093  0.1694 -0.4142  0.6229
  110MOL     C346001   6.725   3.644   4.023 -0.0901  0.5060 -0.0971
  110MOL     O446002   6.617   3.735   4.029  0.0457  0.0468 -0.2124
  110MOL     C546003   6.499   3.698   3.970 -0.6184 -0.2224 -0.3764
  110MOL     C646004   6.395   3.789   3.979 -0.6883 -0.4520 -0.1415
  110MOL     C746005   6.269   3.764   3.917  0.3576 -0.2806  0.2246
  110MOL     C846006   6.262   3.654   3.829 -0.1332 -0.1690 -0.1363
  110MOL     C946007   6.364   3.557   3.819 -0.9566 -0.0811  0.4787
  110MOL    C1046008   6.479   3.574   3.903 -0.3548  0.4564  0.0464
  110MOL    C1146009   6.640   3.409   4.303  0.5174  0.2431  0.2342
  110MOL    H1246010   6.722   3.601   4.265 -3.0900  1.7900  1.3171
  110MOL    H1346011   6.813   3.689   4.068  0.7056 -0.1031 -1.0336
  110MOL    H1446012   6.761   3.632   3.921 -0.0287  0.3680 -0.0581
  110MOL    H1546013   6.413   3.880   4.034 -1.1809 -2.2450  3.0723
  110MOL    H1646014   6.199   3.847   3.921  1.2124  0.4702 -0.2162
  110MOL    H1746015   6.167   3.647   3.779 -0.0261 -0.8724 -0.2426
  110MOL    H1846016   6.355   3.479   3.745  2.1128  1.4944 -1.6797
  110MOL    H1946017   6.553   3.496   3.907  1.3081  2.0344  0.7993
  110MOL    H2046018   6.728   3.348   4.283 -1.2596 -1.8939 -1.2658
  110MOL    H2146019   6.561   3.351   4.256 -0.0584  2.0384 -1.0689
  110MOL    H2246020   6.552   3.588   4.251  0.6340  0.8277  1.7141
  110MOL    C2346021   6.604   3.441   4.452  0.5038  0.7081  0.4751
  110MOL    O2446022   6.707   3.522   4.514 -0.1416 -0.3743  0.3641
  110MOL    C2546023   6.662   3.606   4.622  0.1852  0.1083  0.4957
  110MOL    O2646024   6.561   3.700   4.591 -0.7071 -0.4284 -0.5574
  110MOL    C2746025   6.589   3.813   4.517 -0.3711  0.0670 -0.2073
  110MOL    C2846026   6.492   3.910   4.508 -0.1689  0.0992 -0.4538
  110MOL    C2946027   6.524   4.030   4.449 -0.6310  0.2951  0.0667
  110MOL    C3046028   6.652   4.054   4.392  0.6149  0.4066 -0.4266
  110MOL    C3146029   6.739   3.951   4.388 -0.6633  0.0104 -0.0004
  110MOL    C3246030   6.711   3.833   4.452 -0.0266 -0.2314 -0.4048
  110MOL    C3346031   6.581   3.321   4.542  0.4173  0.2473 -0.1032
  110MOL    H3446032   6.518   3.506   4.437  0.7360  1.0871  0.7600
  110MOL    H3546033   6.748   3.661   4.662  0.0910 -0.7295  1.8758
  110MOL    H3646034   6.623   3.542   4.701  0.7440 -0.5232  0.2615
  110MOL    H3746035   6.397   3.890   4.555 -0.1654  1.4691  0.1703
  110MOL    H3846036   6.462   4.116   4.470 -0.1468  0.6666 -0.0056
  110MOL    H3946037   6.674   4.156   4.364  2.5894 -0.3559 -1.7196
  110MOL    H4046038   6.833   3.967   4.336  0.0454 -2.9550  0.2409
  110MOL    H4146039   6.782   3.752   4.457  2.0789  1.5662 -0.2812
  110MOL    H4246040   6.585   3.359   4.644 -2.0598  0.7807 -0.1810
  110MOL    H4346041   6.660   3.246   4.534  0.7413  0.6226 -0.4350
  110MOL    C4446042   6.447   3.240   4.509 -0.3302  0.4967  1.0079
  110MOL    O4546043   6.385   3.202   4.632  1.0258  0.0323 -0.0393
  110MOL    C4646044   6.250   3.239   4.651 -0.1381  0.3567  0.5538
  110MOL    O4746045   6.235   3.381   4.645 -0.4225 -0.0847 -0.3990
  110MOL    C4846046   6.301   3.449   4.750 -0.1237 -0.4010  0.1456
  110MOL    C4946047   6.366   3.390   4.859  0.1272  0.2660  0.3205
  110MOL    C5046048   6.422   3.472   4.963  0.4310  0.5862  0.4316
  110MOL    C5146049   6.424   3.613   4.945  0.0754 -0.0477  0.3574
  110MOL    C5246050   6.367   3.668   4.827  0.3206 -1.2102 -0.3424
  110MOL    C5346051   6.299   3.584   4.737  0.1921  0.0242  0.2079
  110MOL    C5446052   6.475   3.122   4.406 -0.2030 -0.1102  0.2169
  110MOL    H5546053   6.385   3.312   4.455 -1.1135 -1.0226 -0.1330
  110MOL    H5646054   6.209   3.189   4.739  0.3590 -1.2108 -0.0722
  110MOL    H5746055   6.190   3.199   4.569 -0.0487 -0.9962  1.1288
  110MOL    H5846056   6.364   3.282   4.863 -0.5067  0.3046  1.2104
  110MOL    H5946057   6.460   3.433   5.056 -0.1602  3.0119  1.7484
  110MOL    H6046058   6.464   3.675   5.023  2.3848 -0.1438 -0.7077
  110MOL    H6146059   6.364   3.775   4.812  1.0395 -1.1825 -0.3019
  110MOL    H6246060   6.241   3.632   4.659  1.8660  0.1087 -0.9992
  110MOL    H6346061   6.566   3.141   4.348  0.2199 -0.6224  0.7143
  110MOL    H6446062   6.508   3.033   4.460  0.0530  0.6010  1.2312
  110MOL    C6546063   6.362   3.081   4.312  0.6030 -0.5328  0.2517
  110MOL    O6646064   6.357   3.191   4.217 -0.7519 -0.1373 -0.3958
  110MOL    C6746065   6.223   3.209   4.165  0.0566  0.1351 -0.0069
  110MOL    O6846066   6.132   3.241   4.272  0.6515 -0.0284  0.1332
  110MOL    C6946067   6.112   3.373   4.314  0.3318 -0.7346 -0.2845
  110MOL    C7046068   6.002   3.392   4.402  0.0925  0.0337  0.3412
  110MOL    C7146069   5.979   3.513   4.471 -0.3491 -0.1348  0.2297
  110MOL    C7246070   6.067   3.617   4.442 -0.4131  0.2900 -0.2816
  110MOL    C7346071   6.178   3.601   4.354  0.3360 -0.5174  0.6699
  110MOL    C7446072   6.199   3.480   4.286 -0.1843  0.6708  0.1678
  110MOL    C7546073   6.403   2.954   4.232 -0.1923  0.2935 -0.0264
  110MOL    H7646074   6.263   3.064   4.354 -0.4852 -0.6502 -2.2454
  110MOL    H7746075   6.206   3.120   4.105  3.0802 -1.2469  1.0954
  110MOL    H7846076   6.224   3.294   4.096 -0.6765  0.5569  0.4897
  110MOL    H7946077   5.942   3.306   4.428  2.4662 -1.3866  1.3889
  110MOL    H8046078   5.900   3.522   4.544 -2.1451  0.4601 -1.7681
  110MOL    H8146079   6.054   3.718   4.477  0.7996  0.8050 -1.2520
  110MOL    H8246080   6.237   3.690   4.341 -2.3382  1.2985  0.6638
  110MOL    H8346081   6.278   3.476   4.211  0.8422  0.9162  1.2185
  110MOL    H8446082   6.333   2.943   4.149  0.5300 -0.7178 -0.5009
  110MOL    H8546083   6.500   2.966   4.184  0.0425  1.5781  0.7289
  110MOL    C8646084   6.401   2.827   4.320  0.3805  0.2276  0.4213
  110MOL    O8746085   6.308   2.738   4.257  0.4429  0.1498 -0.0460
  110MOL    C8846086   6.186   2.739   4.327 -0.3337 -0.4022 -0.6009
  110MOL    O8946087   6.130   2.857   4.334  0.2049 -0.4506 -0.5246
  110MOL    C9046088   6.008   2.870   4.400 -0.4654 -0.1784 -0.3493
  110MOL    C9146089   5.922   2.756   4.420 -0.2141  0.2786 -0.0243
  110MOL    C9246090   5.797   2.777   4.484 -0.8486 -0.1476 -0.5045
  110MOL    C9346091   5.755   2.908   4.522  0.0253 -0.1815 -0.0344
  110MOL    C9446092   5.838   3.019   4.500  0.4378 -0.4019 -0.2864
  110MOL    C9546093   5.970   3.001   4.440  0.1010  0.9003 -0.2985
  110MOL    C9646094   6.535   2.752   4.310 -0.0105 -0.3322 -1.1769
  110MOL    H9746095   6.383   2.860   4.423  1.6125  0.8348  0.4461
  110MOL    H9846096   6.210   2.722   4.432  2.0109 -0.4319 -1.1208
  110MOL    H9946097   6.112   2.675   4.280  0.1101  0.5057 -2.5572
  110MOL   H10046098   5.943   2.659   4.377 -1.0327 -1.1106  2.5773
  110MOL   H10146099   5.742   2.687   4.508 -0.5176  0.2505  1.8922
  110MOL   H10246100   5.656   2.925   4.564 -0.2654 -2.9609  0.4888
  110MOL   H10346101   5.817   3.115   4.543 -1.6291 -1.7360  1.8149
  110MOL   H10446102   6.037   3.084   4.426  0.6059  0.5792  0.2155
  110MOL   H10546103   6.532   2.709   4.210 -0.9560 -1.0160 -0.8611
  110MOL   H10646104   6.621   2.816   4.289 -0.4947  1.6024  2.3508
  110MOL   C10746105   6.550   2.656   4.430  0.1083  0.0943  0.4440
  110MOL   O10846106   6.631   2.545   4.404 -0.5375 -0.0508  0.2702
  110MOL   C10946107   6.570   2.436   4.358 -0.1962 -0.8241  0.0960
  110MOL   O11046108   6.488   2.477   4.253  0.2656  0.0273  0.7474
  110MOL   C11146109   6.412   2.380   4.195  0.2917  0.8423 -0.0808
  110MOL   C11246110   6.308   2.419   4.113 -0.1936  0.6335  0.3247
  110MOL   C11346111   6.224   2.328   4.048  0.7911  0.2043 -0.4289
  110MOL   C11446112   6.246   2.185   4.066 -0.1087 -0.3127 -0.5474
  110MOL   C11546113   6.353   2.145   4.145 -0.0169 -0.4660 -0.6413
  110MOL   C11646114   6.426   2.240   4.210 -0.2662 -0.0980 -0.3820
  110MOL   C11746115   6.621   2.729   4.549  0.0713  0.4119  0.9078
  110MOL   H11846116   6.453   2.627   4.471 -0.1858  0.1018 -0.2332
  110MOL   H11946117   6.501   2.380   4.421 -1.0247 -0.4498 -0.4749
  110MOL   H12046118   6.653   2.374   4.324  0.7618  1.0899 -1.1440
  110MOL   H12146119   6.287   2.524   4.098  0.8531  0.9078  0.7261
  110MOL   H12246120   6.134   2.358   3.998  1.7174  0.9931 -1.6408
  110MOL   H12346121   6.178   2.110   4.028 -1.5416  0.7335 -0.1305
  110MOL   H12446122   6.369   2.041   4.166  0.8029  0.0122  1.2026
  110MOL   H12546123   6.513   2.205   4.264  0.4897  1.3672 -0.5961
  110MOL   H12646124   6.574   2.826   4.568  1.3842  0.8341  2.0789
  110MOL   H12746125   6.722   2.761   4.524 -0.8260  1.9837 -0.8031
  110MOL   C12846126   6.639   2.646   4.676  0.4590  0.0101 -0.6554
  110MOL   O12946127   6.503   2.623   4.726  0.1888  0.6612 -0.5896
  110MOL   C13046128   6.474   2.499   4.781  0.2207  0.1306  0.2456
  110MOL   O13146129   6.435   2.402   4.683 -0.1762  0.4630  0.0274
  110MOL   C13246130   6.312   2.401   4.624 -0.3987 -0.0304  0.4226
  110MOL   C13346131   6.219   2.504   4.639 -0.5166 -0.0664 -0.5759
  110MOL   C13446132   6.090   2.499   4.586 -0.3506  0.9235 -0.2803
  110MOL   C13546133   6.049   2.377   4.521 -0.1710  0.0303 -0.5519
  110MOL   C13646134   6.137   2.268   4.505  0.2962 -0.3146 -0.2778
  110MOL   C13746135   6.272   2.284   4.559  0.1330 -0.4675  0.8451
  110MOL   C13846136   6.705   2.734   4.786  0.1419  0.2231 -0.0413
  110MOL   H13946137   6.704   2.563   4.647  1.3631  0.9241 -1.2524
  110MOL   H14046138   6.392   2.515   4.852 -1.6396 -0.0677 -1.8100
  110MOL   H14146139   6.550   2.458   4.848 -0.6217 -0.0170  1.1330
  110MOL   H14246140   6.241   2.600   4.682 -0.3717 -0.5877  0.5272
  110MOL   H14346141   6.015   2.576   4.593 -1.8730 -0.3248 -2.2037
  110MOL   H14446142   5.944   2.370   4.496 -0.1549 -0.7239 -0.4101
  110MOL   H14546143   6.104   2.176   4.459 -1.7084  0.5684 -0.6429
  110MOL   H14646144   6.342   2.202   4.556  1.3076  0.5619 -3.0200
  110MOL   H14746145   6.792   2.787   4.747  1.1876 -1.4142  0.0378
  110MOL   H14846146   6.630   2.804   4.825 -1.6966 -0.5339 -2.1385
  110MOL   C14946147   6.776   2.650   4.892 -0.4233  0.2019  0.4390
  110MOL   O15046148   6.895   2.593   4.839  0.1689 -0.1550  0.2272
  110MOL   C15146149   6.915   2.465   4.877  0.3928  0.2462 -0.5795
  110MOL   O15246150   6.950   2.450   5.012  0.1883  0.3507  0.0499
  110MOL   C15346151   7.024   2.337   5.051  0.4210  1.0267 -0.1707
  110MOL   C15446152   7.063   2.233   4.963 -0.0014  0.7278  0.2115
  110MOL   C15546153   7.166   2.152   5.008  0.1446  0.0419 -0.2776
  110MOL   C15646154   7.228   2.167   5.133 -0.0187  0.0815  0.4653
  110MOL   C15746155   7.179   2.256   5.229  0.1911 -0.1026 -0.0774
  110MOL   C15846156   7.079   2.343   5.183 -0.5674 -0.0300  0.1113
  110MOL   C15946157   6.824   2.736   5.007  0.0774 -0.8717 -0.2846
  110MOL   H16046158   6.704   2.579   4.932 -0.6635  0.3881  0.3367
  110MOL   H16146159   6.823   2.407   4.864 -0.1298  1.1141 -0.7866
  110MOL   H16246160   6.998   2.425   4.819 -0.6123 -1.8422 -0.6408
  110MOL   H16346161   7.041   2.222   4.858  2.2356 -1.6520 -0.0798
  110MOL   H16446162   7.207   2.082   4.936 -2.6549 -1.0739 -0.8371
  110MOL   H16546163   7.295   2.091   5.170  1.1884  0.2938 -1.2556
  110MOL   H16646164   7.213   2.271   5.330  0.3957  0.4297 -0.2226
  110MOL   H16746165   7.058   2.432   5.242  0.7883 -0.6433  1.5667
  110MOL   H16846166   6.910   2.789   4.966 -0.4154  0.5406  0.5089
  110MOL   H16946167   6.860   2.663   5.079 -4.0719 -2.4392  0.3367
  110MOL   C17046168   6.736   2.840   5.082  0.9550 -0.2112  0.0506
  110MOL   O17146169   6.639   2.773   5.158 -0.1804 -0.2781  0.8431
  110MOL   C17246170   6.513   2.746   5.096 -0.3109  0.0993 -0.0867
  110MOL   O17346171   6.435   2.851   5.059  0.4303  0.2707  0.3699
  110MOL   C17446172   6.324   2.824   4.980 -0.5147  0.0448 -0.0950
  110MOL   C17546173   6.295   2.909   4.870  0.0978  0.4339  0.3344
  110MOL   C17646174   6.173   2.890   4.796 -0.1288 -0.0257 -0.3010
  110MOL   C17746175   6.089   2.777   4.817 -0.1929  0.2750  0.5718
  110MOL   C17846176   6.116   2.692   4.928 -0.7080  0.3171 -0.4684
  110MOL   C17946177   6.233   2.718   5.002 -0.3163  0.1688  0.0059
  110MOL   C18046178   6.814   2.926   5.191  0.3268 -0.1911  0.2943
  110MOL   H18146179   6.673   2.900   5.015  1.6352  1.7264  1.1350
  110MOL   H18246180   6.462   2.700   5.181  1.4915 -0.0729  0.9287
  110MOL   H18346181   6.509   2.671   5.017  0.7983 -0.1327  0.0711
  110MOL   H18446182   6.352   2.994   4.837  0.0009 -0.3375 -1.9504
  110MOL   H18546183   6.149   2.957   4.715  0.5846  0.6341  0.0327
  110MOL   H18646184   5.999   2.758   4.760 -0.1871  0.1590  0.6009
  110MOL   H18746185   6.048   2.611   4.950  0.3275 -0.0272  1.6225
  110MOL   H18846186   6.262   2.657   5.086  1.5355 -0.2175 -0.8869
  110MOL   H18946187   6.827   2.865   5.280  2.4302  0.2306  0.3161
  110MOL   H19046188   6.916   2.940   5.155 -0.1722  2.8919 -0.1010
  110MOL   C19146189   6.736   3.056   5.209 -0.2004  0.2409 -0.2115
  110MOL   O19246190   6.795   3.147   5.118 -0.0253 -0.1854 -0.1209
  110MOL   C19346191   6.704   3.211   5.026  0.3179 -0.0240 -0.1187
  110MOL   O19446192   6.684   3.137   4.903 -0.2557  0.2940  0.4559
  110MOL   C19546193   6.797   3.120   4.824  0.2476 -0.1302  0.0764
  110MOL   C19646194   6.928   3.150   4.858 -0.1660  0.2766 -0.3940
  110MOL   C19746195   7.028   3.128   4.766  0.2661 -0.1271 -0.1331
  110MOL   C19846196   7.004   3.080   4.635  0.8529  0.1247 -0.1067
  110MOL   C19946197   6.869   3.066   4.594  0.3680  0.4747 -0.7888
  110MOL   C20046198   6.766   3.079   4.693  0.3418  0.5053  0.0187
  110MOL   C20146199   6.760   3.127   5.343 -0.4240 -0.3374 -0.5013
  110MOL   H20246200   6.631   3.040   5.182 -0.8177  1.9661  1.0397
  110MOL   H20346201   6.755   3.302   4.995  2.3152 -0.5161  1.6432
  110MOL   H20446202   6.605   3.235   5.065 -0.3311  0.1208 -1.7986
  110MOL   H20546203   6.958   3.190   4.953  0.3065  1.0411 -0.8583
  110MOL   H20646204   7.132   3.142   4.793  0.1373 -1.1932  0.9780
  110MOL   H20746205   7.089   3.062   4.570  2.4602 -0.7513  2.1613
  110MOL   H20846206   6.840   3.051   4.492 -2.9114 -0.7597  0.2471
  110MOL   H20946207   6.666   3.061   4.656  0.7939 -0.4880 -0.7482
  110MOL   H21046208   6.867   3.137   5.358 -0.3245  0.2251 -1.5875
  110MOL   H21146209   6.727   3.230   5.329  0.6354  0.0688 -0.0586
  110MOL   C21246210   6.686   3.063   5.463  0.3048  0.6614 -0.1839
  110MOL   O21346211   6.719   2.932   5.487 -0.3748  0.0795  0.4774
  110MOL   C21446212   6.606   2.842   5.456 -0.0811  0.2829 -0.1706
  110MOL   O21546213   6.511   2.835   5.560  0.0435  0.1678 -0.1446
  110MOL   C21646214   6.400   2.765   5.524  0.6484  1.0186  0.6673
  110MOL   C21746215   6.327   2.788   5.407 -0.3011  0.7694  0.1089
  110MOL   C21846216   6.209   2.714   5.378  0.5025  0.5918  0.8550
  110MOL   C21946217   6.163   2.619   5.467 -1.0298 -0.4412  0.3568
  110MOL   C22046218   6.229   2.604   5.588 -0.2193 -0.3600  0.0117
  110MOL   C22146219   6.350   2.668   5.618  0.4498  0.0305 -0.6967
  110MOL   C22246220   6.737   3.139   5.591 -0.5157 -0.6001  0.0291
  110MOL   H22346221   6.580   3.083   5.451 -0.3162 -2.4480 -0.3676
  110MOL   H22446222   6.649   2.742   5.456 -1.5049 -0.3323 -0.0713
  110MOL   H22546223   6.564   2.852   5.356  2.3128 -0.1604 -1.2549
  110MOL   H22646224   6.351   2.851   5.323 -0.8903  1.3046  0.3351
  110MOL   H22746225   6.157   2.730   5.285 -1.4276 -0.8878  1.6585
  110MOL   H22846226   6.071   2.566   5.447 -0.4062 -0.2732 -3.2200
  110MOL   H22946227   6.182   2.545   5.666  1.9996 -0.5910  1.2092
  110MOL   H23046228   6.404   2.651   5.711 -0.5231  1.8948  0.2278
  110MOL   H23146229   6.844   3.125   5.598 -0.1027  2.0081 -0.5429
  110MOL   H23246230   6.718   3.243   5.563 -1.5037 -0.9873 -0.7883
  110MOL   C23346231   6.668   3.106   5.728 -0.5959  0.1606 -0.7088
  110MOL   O23446232   6.752   3.175   5.825 -0.2060  0.1337  0.2103
  110MOL   C23546233   6.859   3.097   5.870 -0.1512 -1.0949  0.1327
  110MOL   O23646234   6.825   2.983   5.949  0.1595 -0.1835  0.3327
  110MOL   C23746235   6.782   3.007   6.078  0.2906 -0.2565 -0.1551
  110MOL   C23846236   6.715   3.125   6.114  0.5020  0.1558  0.0390
  110MOL   C23946237   6.669   3.146   6.245  0.1383 -0.6132 -0.3895
  110MOL   C24046238   6.688   3.049   6.343  0.5907  0.4874 -0.3681
  110MOL   C24146239   6.746   2.927   6.301 -0.1942  0.3631 -0.6229
  110MOL   C24246240   6.797   2.911   6.173  0.4225  0.4744  0.0550
  110MOL   C24346241   6.529   3.166   5.728 -0.4035  0.2681 -0.7543
  110MOL   H24446242   6.668   2.998   5.742  1.3789 -0.0377 -1.9390
  110MOL   H24546243   6.923   3.154   5.937 -2.4241  1.0628  0.4945
  110MOL   H24646244   6.929   3.071   5.790  0.9097 -3.1867  1.6927
  110MOL   H24746245   6.684   3.205   6.048 -4.0436 -1.4014  0.1179
  110MOL   H24846246   6.637   3.244   6.277  0.2344 -0.9204  0.6407
  110MOL   H24946247   6.653   3.071   6.442 -0.1658  1.5172 -0.8558
  110MOL   H25046248   6.752   2.839   6.363 -1.2301  0.8474  0.1747
  110MOL   H25146249   6.846   2.819   6.147 -1.3551 -1.4024  3.0720
  110MOL   H25246250   6.532   3.274   5.736  0.2673  0.2403 -0.5597
  110MOL   H25346251   6.476   3.144   5.635  0.1344  0.0042 -1.0007
  110MOL   C25446252   6.451   3.119   5.850  0.0957  0.1369  0.7914
  110MOL   O25546253   6.325   3.178   5.850 -0.3992 -0.4719  0.3301
  110MOL   C25646254   6.306   3.266   5.957 -0.0760  0.0099 -0.6534
  110MOL   O25746255   6.401   3.367   5.961 -0.0735 -0.0623  0.3378
  110MOL   C25846256   6.365   3.491   5.900  0.1194 -0.1983 -0.2773
  110MOL   C25946257   6.441   3.606   5.937  0.2171  0.5339  0.0783
  110MOL   C26046258   6.412   3.718   5.865  0.2703 -0.5826  0.4389
  110MOL   C26146259   6.310   3.721   5.772  0.1521  0.7083 -0.6515
  110MOL   C26246260   6.239   3.607   5.736 -0.3546  0.0770  0.2183
  110MOL   C26346261   6.278   3.487   5.790 -0.0577  0.0423 -0.1216
  110MOL   C26446262   6.411   2.968   5.848  0.9999 -0.2787 -0.0744
  110MOL   H26546263   6.513   3.144   5.937  0.3248  1.7271  0.1773
  110MOL   H26646264   6.311   3.215   6.053 -1.7071  2.8329  0.9632
  110MOL   H26746265   6.206   3.309   5.948 -0.2609  0.1282  1.8254
  110MOL   H26846266   6.527   3.603   6.001  0.1554 -1.5058  0.1032
  110MOL   H26946267   6.469   3.809   5.881  1.2077 -1.0752 -0.0497
  110MOL   H27046268   6.295   3.819   5.729  4.0680  1.4995 -0.4673
  110MOL   H27146269   6.167   3.609   5.656  0.0456 -0.2589 -0.1558
  110MOL   H27246270   6.229   3.402   5.744 -1.7183  1.3634 -0.8372
  110MOL   H27346271   6.337   2.955   5.770 -0.1188 -3.5673  1.4901
  110MOL   H27446272   6.500   2.911   5.822 -0.0685 -2.2558  0.5300
  110MOL   C27546273   6.354   2.895   5.972  0.2801 -0.3472 -0.3038
  110MOL   O27646274   6.328   2.765   5.923  0.1170 -0.6864  0.2895
  110MOL   C27746275   6.194   2.729   5.950  0.0302  0.5987  0.0970
  110MOL   O27846276   6.176   2.604   5.893 -0.3102 -0.3026 -0.2432
  110MOL   C27946277   6.065   2.532   5.933 -0.7676 -0.2144  0.3292
  110MOL   C28046278   6.067   2.394   5.917  0.1869  0.1996 -0.0462
  110MOL   C28146279   5.957   2.314   5.952  0.3326 -0.2483  0.5669
  110MOL   C28246280   5.846   2.369   6.011  0.4644 -0.8873  0.1116
  110MOL   C28346281   5.838   2.507   6.019  0.4536 -0.8744  0.7873
  110MOL   C28446282   5.944   2.587   5.984  0.0063  0.0626  0.1265
  110MOL   C28546283   6.451   2.890   6.091  0.5268 -0.2649 -0.5810
  110MOL   H28646284   6.260   2.944   5.992  0.3166  0.4678 -2.0162
  110MOL   H28746285   6.120   2.795   5.905 -0.5094 -0.9212 -1.2887
  110MOL   H28846286   6.178   2.726   6.058 -1.6188 -0.8078 -0.1625
  110MOL   H28946287   6.155   2.344   5.879  0.2944  0.3996 -0.0608
  110MOL   H29046288   5.962   2.208   5.932  0.1906 -0.0692 -0.4536
  110MOL   H29146289   5.760   2.307   6.031  0.0327 -1.1292 -2.2586
  110MOL   H29246290   5.748   2.553   6.059 -1.6337 -2.9734 -1.3198
  110MOL   H29346291   5.933   2.694   5.993  1.9281  0.2430  0.4591
  110MOL   H29446292   6.444   2.993   6.127  0.4346 -0.0599 -1.1753
  110MOL   H29546293   6.551   2.864   6.055  0.7086 -1.5438  0.8175
  110MOL   C29646294   6.422   2.811   6.215  1.2072  0.3290  0.1265
  110MOL   O29746295   6.294   2.854   6.261 -0.4708 -0.3472 -0.7137
  110MOL   C29846296   6.279   2.897   6.396  0.2331 -0.0467  0.6840
  110MOL   O29946297   6.349   3.018   6.421  0.1295 -0.1734 -0.4027
  110MOL   C30046298   6.285   3.141   6.422  0.8656 -0.4163  0.1564
  110MOL   C30146299   6.167   3.166   6.348 -0.0441  0.0046  0.5586
  110MOL   C30246300   6.111   3.292   6.353  0.6216  0.0178 -0.3698
  110MOL   C30346301   6.164   3.394   6.436  0.5525 -0.1838  0.3776
  110MOL   C30446302   6.287   3.382   6.500 -0.1348  0.1539  0.1107
  110MOL   C30546303   6.341   3.251   6.494 -0.2857 -0.6366  0.0447
  110MOL   C30646304   6.431   2.659   6.207  0.3978  0.3244 -0.6576
  110MOL   H30746305   6.499   2.842   6.285  0.9649  2.7245 -0.6409
  110MOL   H30846306   6.327   2.828   6.465  0.7476 -0.3582  0.0156
  110MOL   H30946307   6.177   2.903   6.435 -0.1175 -2.7612  0.3280
  110MOL   H31046308   6.122   3.086   6.291  1.0736  0.7619 -1.4231
  110MOL   H31146309   6.017   3.304   6.302 -0.0516  1.3290  1.1499
  110MOL   H31246310   6.119   3.492   6.432  2.7254  0.8193  0.2830
  110MOL   H31346311   6.330   3.462   6.558 -2.0013  0.2027  1.4825
  110MOL   H31446312   6.432   3.240   6.551 -0.2810  1.0417  0.3920
  110MOL   H31546313   6.529   2.648   6.161  0.9020  2.1598 -0.0600
  110MOL   H31646314   6.361   2.616   6.135 -0.0552 -0.7628  0.4105
  110MOL   C31746315   6.436   2.579   6.344  0.2376  0.9808  0.0057
  110MOL   O31846316   6.311   2.592   6.417  0.5322  0.2355 -0.7854
  110MOL   C31946317   6.200   2.525   6.371 -0.4362  0.0738 -0.0482
  110MOL   O32046318   6.230   2.391   6.357  0.3664  0.5233 -0.0859
  110MOL   C32146319   6.244   2.320   6.475  0.3571 -1.0763 -0.4039
  110MOL   C32246320   6.276   2.184   6.463 -0.6509 -0.4828  0.3222
  110MOL   C32346321   6.297   2.107   6.575 -0.3601  1.2060  0.2655
  110MOL   C32446322   6.285   2.157   6.699 -0.6696  1.0458  0.1955
  110MOL   C32546323   6.262   2.294   6.714 -0.1192  0.0340 -0.2165
  110MOL   C32646324   6.245   2.381   6.604  0.7829 -0.1239  0.6201
  110MOL   C32746325   6.548   2.630   6.430  0.4689  0.0789  0.3309
  110MOL   H32846326   6.469   2.477   6.325  2.2797  1.5782  0.3108
  110MOL   H32946327   6.165   2.560   6.273  0.6138  2.6662  0.4498
  110MOL   H33046328   6.120   2.544   6.441 -0.7534  0.9768 -0.6347
  110MOL   H33146329   6.267   2.131   6.369  2.6858 -0.5285 -0.0134
  110MOL   H33246330   6.306   2.000   6.568 -1.7312  1.0696  0.4778
  110MOL   H33346331   6.285   2.093   6.786 -3.3889  1.6721  0.7204
  110MOL   H33446332   6.251   2.330   6.815  0.8510 -0.3658  0.0338
  110MOL   H33546333   6.211   2.482   6.625 -1.0119 -0.4891 -0.4323
  110MOL   H33646334   6.632   2.645   6.362  0.4579  0.6818  0.4491
  110MOL   H33746335   6.523   2.732   6.459 -2.5297 -0.8592  1.2203
  110MOL   C33846336   6.585   2.537   6.545  0.2149 -0.1076 -0.2202
  110MOL   O33946337   6.667   2.446   6.484 -0.0487 -0.0808  0.3019
  110MOL   C34046338   6.645   2.310   6.506  0.0466  0.0794 -0.2134
  110MOL   O34146339   6.702   2.235   6.401 -0.1654  0.5826 -0.2530
  110MOL   C34246340   6.695   2.099   6.392 -0.1405  0.2730 -0.3950
  110MOL   C34346341   6.628   2.015   6.488  0.4015 -0.4283 -0.0704
  110MOL   C34446342   6.635   1.875   6.486  0.6350  0.3397  0.0887
  110MOL   C34546343   6.699   1.811   6.379 -0.1667 -0.0298 -0.2274
  110MOL   C34646344   6.767   1.889   6.284  0.2123 -0.1103 -0.4315
  110MOL   C34746345   6.770   2.030   6.295  1.3881 -0.4063 -0.1286
  110MOL   C34846346   6.664   2.606   6.653  0.4613  0.3817  0.8585
  110MOL   H34946347   6.495   2.493   6.587  0.5561 -1.3536 -0.7650
  110MOL   H35046348   6.543   2.288   6.537 -0.3605  2.8707  0.5404
  110MOL   H35146349   6.704   2.299   6.597 -0.7984  2.0493  0.5867
  110MOL   H35246350   6.584   2.052   6.580  1.5238  2.8815 -0.8329
  110MOL   H35346351   6.601   1.816   6.570 -1.0647  1.1781  0.0141
  110MOL   H35446352   6.689   1.704   6.365 -0.6644 -0.5839  3.7201
  110MOL   H35546353   6.823   1.843   6.203  1.9268  0.7416  0.2388
  110MOL   H35646354   6.816   2.098   6.224  0.5864 -1.1391 -1.3637
  110MOL   H35746355   6.630   2.709   6.662  0.1310  0.5298 -1.6586
  110MOL   H35846356   6.767   2.623   6.621  0.4256 -0.2906  0.3658
  110MOL   C35946357   6.645   2.551   6.795  0.5679 -0.4699 -0.8977
  110MOL   O36046358   6.670   2.414   6.795  0.3418 -0.5915 -0.4547
  110MOL   C36146359   6.772   2.367   6.879 -0.9986  0.3759  0.8533
  110MOL   O36246360   6.750   2.376   7.010  0.4190 -0.3709  0.5526
  110MOL   C36346361   6.679   2.284   7.071 -0.3620 -0.7668  0.3245
  110MOL   C36446362   6.674   2.294   7.212 -0.5741 -0.2002 -0.7825
  110MOL   C36546363   6.585   2.216   7.294  0.1039  0.4394 -0.0808
  110MOL   C36646364   6.492   2.137   7.228  0.1611  0.4498 -0.9233
  110MOL   C36746365   6.498   2.120   7.088 -0.5633 -0.5032  1.1261
  110MOL   C36846366   6.590   2.194   7.012  0.0180  0.5230 -0.9246
  110MOL   C36946367   6.502   2.559   6.856 -0.1933  0.1396 -0.6323
  110MOL   H37046368   6.712   2.606   6.860  1.8529 -0.4813 -2.1922
  110MOL   H37146369   6.865   2.421   6.860 -1.0730  0.3243  0.3131
  110MOL   H37246370   6.795   2.263   6.854  0.2012  0.6185  0.9241
  110MOL   H37346371   6.745   2.362   7.257 -1.4408 -0.6520  1.3239
  110MOL   H37446372   6.596   2.212   7.401 -1.3785 -0.0466  0.0502
  110MOL   H37546373   6.413   2.096   7.291 -0.5269  2.7592 -0.2184
  110MOL   H37646374   6.430   2.058   7.031  0.2619 -0.5356  0.1553
  110MOL   H37746375   6.592   2.185   6.905  0.0283 -3.8281 -0.6384
  110MOL   H37846376   6.480   2.455   6.879 -2.1384  0.7764  0.5055
  110MOL   H37946377   6.421   2.583   6.787 -0.8606  0.6577  0.3164
  110MOL   C38046378   6.491   2.660   6.971 -0.2826 -0.5805 -0.0365
  110MOL   O38146379   6.367   2.647   7.039 -0.0010  0.7560 -0.4443
  110MOL   C38246380   6.353   2.549   7.139  0.3279 -0.3732 -0.0041
  110MOL   O38346381   6.389   2.598   7.263  0.0076  0.0347 -0.2901
  110MOL   C38446382   6.396   2.505   7.371  0.1927 -0.3316 -0.1047
  110MOL   C38546383   6.320   2.388   7.372  0.1831  0.4854 -0.8793
  110MOL   C38646384   6.314   2.303   7.483  0.0688 -0.0121 -0.2486
  110MOL   C38746385   6.403   2.323   7.590  0.3190 -0.2310 -0.3621
  110MOL   C38846386   6.500   2.427   7.581  0.1875  0.9138  0.8257
  110MOL   C38946387   6.491   2.522   7.474 -0.2004  1.0483  0.4036
  110MOL   C39046388   6.519   2.802   6.922  0.0187 -0.4115  0.2752
  110MOL   H39146389   6.574   2.642   7.039 -0.2537  4.4864  1.4618
  110MOL   H39246390   6.251   2.511   7.147  0.5858 -1.1479 -0.3305
  110MOL   H39346391   6.416   2.463   7.120 -1.5464 -1.3144 -2.3149
  110MOL   H39446392   6.246   2.370   7.296 -0.4069  2.4934 -0.7866
  110MOL   H39546393   6.234   2.230   7.479  0.6577 -0.7880  1.9560
  110MOL   H39646394   6.389   2.261   7.678 -2.5798  1.2820  0.3157
  110MOL   H39746395   6.571   2.436   7.661 -0.8675  1.7688  1.6798
  110MOL   H39846396   6.569   2.596   7.465 -1.7434  2.4410 -2.2378
  110MOL   H39946397   6.622   2.812   6.889  0.1352  3.3733  1.4964
  110MOL   H40046398   6.519   2.874   7.004 -3.0351 -0.2341  0.2001
  110MOL   C40146399   6.431   2.865   6.803 -0.3937 -1.2385 -0.3951
  110MOL   O40246400   6.322   2.935   6.856 -0.4665  0.5199  0.4079
  110MOL   C40346401   6.208   2.868   6.896 -0.5072 -0.1982  0.2349
  110MOL   O40446402   6.145   2.794   6.800 -0.2266  0.2760  0.2365
  110MOL   C40546403   6.071   2.857   6.704 -0.3627 -0.1895  0.4889
  110MOL   C40646404   5.989   2.774   6.622 -0.4867 -0.6202 -0.4511
  110MOL   C40746405   5.908   2.828   6.518  0.1588 -0.0897 -0.5658
  110MOL   C40846406   5.906   2.968   6.515 -0.2852  0.5703  0.5075
  110MOL   C40946407   5.994   3.054   6.587  0.3286  0.2631  0.1853
  110MOL   C41046408   6.077   2.996   6.683  0.5519  0.6069  0.4023
  110MOL   C41146409   6.521   2.964   6.723 -0.2629 -0.0193  0.5385
  110MOL   H41246410   6.404   2.788   6.730  2.0817 -1.4532 -1.1467
  110MOL   H41346411   6.150   2.950   6.938  0.3131 -0.5495  2.0740
  110MOL   H41446412   6.239   2.809   6.982 -0.3851 -0.0947  0.2621
  110MOL   H41546413   5.992   2.668   6.645 -1.1428 -0.4279  0.5450
  110MOL   H41646414   5.836   2.767   6.467  1.8570 -1.4358 -1.3901
  110MOL   H41746415   5.843   3.017   6.443 -1.1743  1.4170  1.8294
  110MOL   H41846416   5.986   3.161   6.584  0.4827  0.3149  1.4993
  110MOL   H41946417   6.137   3.063   6.743  1.0362  0.0270  0.5692
  110MOL   H42046418   6.562   3.043   6.786  0.8912 -0.2501  0.0865
  110MOL   H42146419   6.472   3.004   6.635 -0.1178  0.4365  0.6591
  110MOL   H42246420   6.608   2.915   6.680 -0.6491 -0.4531  0.2589
  111MOL     C146421   1.107   4.787   0.924  0.8220  0.1742 -0.4232
  111MOL     O246422   1.221   4.821   0.844  0.4322 -0.9616  0.2301
  111MOL     C346423   1.218   4.757   0.716  0.3536 -0.6264  0.1980
  111MOL     O446424   1.204   4.618   0.716  0.5027 -0.2048 -0.1411
  111MOL     C546425   1.322   4.548   0.714 -0.7804 -0.1413  0.0020
  111MOL     C646426   1.311   4.422   0.660  0.0382  0.2984 -0.4824
  111MOL     C746427   1.429   4.350   0.651 -0.7743  0.2018 -0.3869
  111MOL     C846428   1.551   4.398   0.699  0.0878 -0.7272 -0.1232
  111MOL     C946429   1.559   4.516   0.780 -0.1742  0.3002 -0.1349
  111MOL    C1046430   1.440   4.588   0.781 -0.5650 -0.7006  0.5435
  111MOL    C1146431   1.128   4.838   1.067 -1.0672 -0.3824  0.5780
  111MOL    H1246432   1.019   4.830   0.876  0.5566  1.0484  0.8435
  111MOL    H1346433   1.128   4.783   0.660  1.4111 -0.9855 -1.6856
  111MOL    H1446434   1.302   4.788   0.655  2.2404  0.6211  3.2684
  111MOL    H1546435   1.226   4.383   0.606  0.1437 -0.3679 -0.1814
  111MOL    H1646436   1.443   4.259   0.595 -0.7722 -2.1770  3.3154
  111MOL    H1746437   1.640   4.339   0.680 -0.0064 -1.2886  1.1185
  111MOL    H1846438   1.650   4.548   0.828  0.0613 -0.9071  0.2521
  111MOL    H1946439   1.448   4.682   0.835 -1.1696  0.9797 -2.2003
  111MOL    H2046440   1.154   4.944   1.055 -0.5035 -0.8592 -2.9436
  111MOL    H2146441   1.211   4.792   1.119 -1.0495  1.9823  2.7672
  111MOL    H2246442   1.081   4.682   0.909 -0.6190  0.6206 -1.1891
  111MOL    C2346443   1.001   4.820   1.149  0.2776 -0.1798 -0.6862
  111MOL    O2446444   0.951   4.688   1.113  0.7447 -0.2716  0.2609
  111MOL    C2546445   0.949   4.601   1.223  0.7752 -0.7367  0.2644
  111MOL    O2646446   0.850   4.632   1.310 -0.2518 -0.4670  0.0632
  111MOL    C2746447   0.720   4.595   1.287  0.5865 -0.2998  0.0699
  111MOL    C2846448   0.643   4.607   1.400  0.0816  1.0320  0.3265
  111MOL    C2946449   0.513   4.555   1.400 -0.0713  0.0825  0.9178
  111MOL    C3046450   0.454   4.507   1.281 -0.7559  0.3589 -0.6872
  111MOL    C3146451   0.537   4.491   1.166  0.0198  0.9504 -0.0536
  111MOL    C3246452   0.667   4.551   1.160 -0.2657 -0.4061  0.0191
  111MOL    C3346453   0.880   4.913   1.120 -0.5175  0.4855 -0.0838
  111MOL    H3446454   1.013   4.827   1.257 -1.2425 -1.1328 -0.4439
  111MOL    H3546455   1.034   4.594   1.292  1.0078 -2.3303 -0.1671
  111MOL    H3646456   0.946   4.501   1.181 -0.9080 -0.4413 -0.3224
  111MOL    H3746457   0.688   4.644   1.490  0.2139 -1.2204  1.2363
  111MOL    H3846458   0.450   4.540   1.487  1.2334 -0.6670  1.7511
  111MOL    H3946459   0.355   4.465   1.277 -1.1309  1.2604 -1.1359
  111MOL    H4046460   0.499   4.450   1.073  0.3603  2.0395 -0.6736
  111MOL    H4146461   0.726   4.531   1.072  3.3440  0.0405  2.2478
  111MOL    H4246462   0.802   4.875   1.186  1.0894  0.4143  1.8116
  111MOL    H4346463   0.850   4.899   1.016  1.0134 -0.3546 -0.4322
  111MOL    C4446464   0.903   5.064   1.154 -0.8131 -0.1653  0.8622
  111MOL    O4546465   0.998   5.127   1.068  0.4457  0.2533  0.5108
  111MOL    C4646466   0.982   5.267   1.056 -0.1434  0.0226  0.6505
  111MOL    O4746467   0.865   5.300   0.994 -0.3900 -0.5663  0.1758
  111MOL    C4846468   0.831   5.242   0.872 -0.3825  0.1856  0.4653
  111MOL    C4946469   0.918   5.151   0.802  0.5270 -0.4012 -0.0637
  111MOL    C5046470   0.867   5.080   0.692 -0.2733  0.3085  0.8097
  111MOL    C5146471   0.738   5.106   0.648  0.0110 -0.8981 -0.0960
  111MOL    C5246472   0.656   5.208   0.705  0.7285  0.4013 -1.2619
  111MOL    C5346473   0.702   5.273   0.818 -0.4931  0.0294 -0.0031
  111MOL    C5446474   0.934   5.092   1.307  0.0279  0.4510 -0.2292
  111MOL    H5546475   0.802   5.104   1.142 -0.9566 -0.9583 -0.8068
  111MOL    H5646476   1.066   5.316   1.009 -1.2080  2.2525  0.9902
  111MOL    H5746477   0.983   5.318   1.153  1.2452 -0.8449  1.1006
  111MOL    H5846478   1.017   5.125   0.835  0.7060 -0.1053 -0.3678
  111MOL    H5946479   0.924   5.003   0.644 -0.8559 -0.4104  1.2593
  111MOL    H6046480   0.705   5.057   0.557  2.3759 -1.9638 -0.4065
  111MOL    H6146481   0.557   5.230   0.667  0.1062  1.2143  0.7284
  111MOL    H6246482   0.640   5.343   0.872  0.0664 -0.4030  1.2192
  111MOL    H6346483   1.034   5.058   1.332 -1.2309 -1.7340  2.1725
  111MOL    H6446484   0.924   5.200   1.322  0.0552  0.4079  0.1211
  111MOL    C6546485   0.837   5.036   1.415  0.0114 -0.0973 -0.5993
  111MOL    O6646486   0.891   5.077   1.537  0.0440 -0.5651  0.3274
  111MOL    C6746487   0.967   4.983   1.605  0.5704  0.3234 -0.3445
  111MOL    O6846488   0.882   4.882   1.653 -0.2545 -0.1403  0.2740
  111MOL    C6946489   0.947   4.785   1.729  0.1469  0.5535  0.3257
  111MOL    C7046490   1.021   4.822   1.845 -0.0714  0.3931 -0.0634
  111MOL    C7146491   1.074   4.721   1.924  0.1223  0.2636 -0.2443
  111MOL    C7246492   1.059   4.584   1.891  0.4046 -0.4777  0.0715
  111MOL    C7346493   0.988   4.547   1.771 -0.1574  0.5341  0.5127
  111MOL    C7446494   0.933   4.649   1.693 -0.4296  0.2065  0.0328
  111MOL    C7546495   0.693   5.090   1.410 -0.2149  1.0938 -0.1677
  111MOL    H7646496   0.842   4.929   1.393  0.2866 -0.0225 -0.8980
  111MOL    H7746497   1.012   5.039   1.687  0.1299 -0.4566  0.4420
  111MOL    H7846498   1.033   4.942   1.529 -0.2481 -0.5159 -0.6131
  111MOL    H7946499   1.030   4.921   1.887  0.9485  1.1963 -2.1259
  111MOL    H8046500   1.111   4.735   2.025  0.0219  1.1950 -0.3341
  111MOL    H8146501   1.103   4.504   1.949  1.1564 -0.3862 -0.3644
  111MOL    H8246502   0.989   4.444   1.739  0.9039  0.9736 -0.9409
  111MOL    H8346503   0.870   4.620   1.610 -0.6101  1.3543 -0.2425
  111MOL    H8446504   0.694   5.199   1.413  1.4596  1.1317 -1.0739
  111MOL    H8546505   0.674   5.058   1.308 -0.8468  1.6580 -0.2325
  111MOL    C8646506   0.607   5.029   1.519 -0.3658 -0.1468 -0.2702
  111MOL    O8746507   0.645   5.104   1.635 -0.1040 -0.0648 -0.2387
  111MOL    C8846508   0.636   5.031   1.760 -0.7568 -0.1038  0.4444
  111MOL    O8946509   0.567   5.110   1.852  0.9490  0.3423  0.4231
  111MOL    C9046510   0.635   5.216   1.907  0.5531 -0.3078  0.4225
  111MOL    C9146511   0.570   5.282   2.011 -0.4414 -0.1069  0.8394
  111MOL    C9246512   0.625   5.390   2.074 -0.4946 -0.5614 -0.3230
  111MOL    C9346513   0.755   5.438   2.034 -0.0452  0.0439  0.0976
  111MOL    C9446514   0.818   5.381   1.923  0.2515  0.2584 -0.2830
  111MOL    C9546515   0.753   5.279   1.854  0.2284  0.3138  0.4883
  111MOL    C9646516   0.456   5.062   1.495 -0.1267 -0.3056  0.4504
  111MOL    H9746517   0.634   4.925   1.534 -1.0854  0.3108  5.2321
  111MOL    H9846518   0.732   4.997   1.799 -0.1250  1.2780  0.1385
  111MOL    H9946519   0.573   4.943   1.763  0.0760 -0.7050  0.5945
  111MOL   H10046520   0.471   5.251   2.040  0.2774  0.0566  3.5950
  111MOL   H10146521   0.571   5.436   2.155  0.2697  0.2618 -0.2726
  111MOL   H10246522   0.804   5.522   2.082  1.9820  0.2022 -2.1697
  111MOL   H10346523   0.918   5.404   1.889 -0.2630  1.0769 -1.2579
  111MOL   H10446524   0.807   5.232   1.773  1.6590  0.1162  1.5470
  111MOL   H10546525   0.436   5.165   1.526  1.6632 -0.2739  1.5325
  111MOL   H10646526   0.435   5.042   1.390 -1.8585  1.1304  0.4909
  111MOL   C10746527   0.351   4.981   1.569 -0.4534 -0.3274 -0.1713
  111MOL   O10846528   0.234   5.059   1.576 -0.0916 -0.0243 -0.1471
  111MOL   C10946529   0.220   5.142   1.685  0.5559 -0.8259  1.0127
  111MOL   O11046530   0.095   5.211   1.675  0.1085 -0.2163  0.4753
  111MOL   C11146531   7.955   5.135   1.663  0.3659 -0.3899  0.3384
  111MOL   C11246532   7.835   5.201   1.621  0.8850 -0.2887 -0.4615
  111MOL   C11346533   7.712   5.135   1.608  0.4219 -0.1996 -0.0547
  111MOL   C11446534   7.698   5.001   1.635 -0.2537 -0.0495  0.0751
  111MOL   C11546535   7.807   4.934   1.688  0.9034  0.1355 -0.5823
  111MOL   C11646536   7.932   5.000   1.701  0.1605  0.0151 -0.7956
  111MOL   C11746537   0.332   4.849   1.498 -0.2928  0.8037  0.1962
  111MOL   H11846538   0.382   4.956   1.671 -0.5978  1.4794  0.3290
  111MOL   H11946539   0.300   5.216   1.688  2.1621 -2.3957 -1.3572
  111MOL   H12046540   0.222   5.094   1.783  0.4998 -2.1328  0.3845
  111MOL   H12146541   7.841   5.300   1.578  1.8188  0.3674  1.1660
  111MOL   H12246542   7.631   5.176   1.550  0.2843  1.6902  1.4575
  111MOL   H12346543   7.604   4.949   1.623 -0.8151  1.0035 -0.1909
  111MOL   H12446544   7.794   4.830   1.713 -1.0180  0.4924 -0.0365
  111MOL   H12546545   0.037   4.943   1.744 -0.7187 -0.8639 -0.2921
  111MOL   H12646546   0.425   4.798   1.522  0.9151  3.2003  0.7100
  111MOL   H12746547   0.321   4.851   1.389 -0.3401 -1.2299  0.1415
  111MOL   C12846548   0.213   4.765   1.550 -0.1943  0.2158 -0.0928
  111MOL   O12946549   0.261   4.661   1.645  0.6310  0.7506  0.2802
  111MOL   C13046550   0.211   4.668   1.781 -0.0591 -0.0974  0.7332
  111MOL   O13146551   0.271   4.777   1.843 -0.2338 -0.1397  0.2480
  111MOL   C13246552   0.399   4.756   1.901  0.4272  0.2216 -0.1279
  111MOL   C13346553   0.481   4.647   1.873 -0.0456  0.0753 -0.2897
  111MOL   C13446554   0.616   4.645   1.917  0.1092  0.1765 -0.2676
  111MOL   C13546555   0.668   4.738   2.000 -0.0890  0.7716  0.1389
  111MOL   C13646556   0.583   4.843   2.040  0.2233 -0.6177  0.6980
  111MOL   C13746557   0.452   4.852   1.990  0.4405 -0.1397 -0.3100
  111MOL   C13846558   0.152   4.674   1.437  0.3352 -0.8721 -0.2348
  111MOL   H13946559   0.150   4.829   1.611  0.2339  0.4969  0.0555
  111MOL   H14046560   0.241   4.578   1.834 -2.3455  0.0584  2.3656
  111MOL   H14146561   0.103   4.658   1.784  0.0303 -1.7406 -0.7013
  111MOL   H14246562   0.455   4.574   1.798 -1.4407 -0.4758  0.7218
  111MOL   H14346563   0.682   4.563   1.891  0.4448  0.6306 -0.8648
  111MOL   H14446564   0.772   4.733   2.031  0.1518 -1.5939 -0.9425
  111MOL   H14546565   0.616   4.933   2.090 -0.6949  0.5487 -0.7425
  111MOL   H14646566   0.415   4.952   2.006  4.5198  1.0394  2.8342
  111MOL   H14746567   0.233   4.620   1.388 -1.1305 -2.7539 -0.6320
  111MOL   H14846568   0.088   4.599   1.484 -0.0505 -0.7895 -0.6229
  111MOL   C14946569   0.070   4.743   1.327  0.3951 -0.3248 -0.4812
  111MOL   O15046570   0.081   4.659   1.203  0.1897  0.0214  0.1380
  111MOL   C15146571   0.127   4.725   1.086 -0.7867 -0.2319  0.1747
  111MOL   O15246572   0.266   4.736   1.080  0.1738 -0.2730  0.2860
  111MOL   C15346573   0.326   4.780   0.968 -0.0182  0.7190 -0.3905
  111MOL   C15446574   0.464   4.787   0.979  0.1104 -0.1887  0.4424
  111MOL   C15546575   0.537   4.856   0.878 -0.3920  0.2729 -0.5324
  111MOL   C15646576   0.468   4.900   0.762  0.3518 -0.6905  0.1785
  111MOL   C15746577   0.332   4.877   0.747  0.1206 -0.1772  0.3544
  111MOL   C15846578   0.261   4.824   0.853 -0.8015  0.3632 -0.2034
  111MOL   C15946579   7.896   4.745   1.369 -0.1392 -0.3219 -0.2179
  111MOL   H16046580   0.115   4.842   1.312  3.3787 -1.6564 -0.6731
  111MOL   H16146581   0.089   4.666   1.003 -0.4805 -0.6906  0.3637
  111MOL   H16246582   0.071   4.819   1.085  0.4093  0.4971 -1.3514
  111MOL   H16346583   0.504   4.744   1.070 -0.7062 -0.4717  0.6692
  111MOL   H16446584   0.642   4.877   0.894 -0.6435  0.7344  0.5502
  111MOL   H16546585   0.519   4.951   0.682 -2.1348  1.5742 -0.0378
  111MOL   H16646586   0.280   4.923   0.665  1.0202 -1.5520 -1.0128
  111MOL   H16746587   0.153   4.827   0.841 -0.8055  1.5830  0.1266
  111MOL   H16846588   7.885   4.797   1.464 -1.6443 -0.3841 -0.3505
  111MOL   H16946589   7.866   4.640   1.373  1.3019 -0.7618 -0.7323
  111MOL   C17046590   7.794   4.812   1.261 -0.0073  0.3640 -0.6391
  111MOL   O17146591   7.659   4.769   1.282 -0.1314 -0.0168  0.0307
  111MOL   C17246592   7.611   4.673   1.197 -0.2090  0.3003 -0.4716
  111MOL   O17346593   7.690   4.556   1.224  0.6869  0.2289 -0.3179
  111MOL   C17446594   7.667   4.459   1.129 -0.0256  0.1770  0.2148
  111MOL   C17546595   7.539   4.432   1.063  0.0517 -0.3443 -0.1014
  111MOL   C17646596   7.519   4.315   0.981 -0.2381 -0.5448 -0.0379
  111MOL   C17746597   7.629   4.233   0.962 -0.2711  0.3479  1.1375
  111MOL   C17846598   7.757   4.256   1.029 -0.1409 -0.3388  0.0787
  111MOL   C17946599   7.769   4.367   1.115 -0.0352 -0.0744 -0.1411
  111MOL   C18046600   7.792   4.965   1.291 -0.5769 -0.6350  0.9468
  111MOL   H18146601   7.838   4.783   1.166  0.1084  0.6526 -0.6751
  111MOL   H18246602   7.615   4.725   1.102  1.4152  1.7691  0.3714
  111MOL   H18346603   7.504   4.671   1.213 -0.1755  0.1102 -0.2737
  111MOL   H18446604   7.459   4.503   1.076  0.9633  1.2316 -2.7922
  111MOL   H18546605   7.423   4.297   0.935 -0.2300 -0.6650 -0.0080
  111MOL   H18646606   7.614   4.149   0.895  3.1697  1.5001 -1.2472
  111MOL   H18746607   7.840   4.188   1.018 -0.9521 -1.3066 -0.1557
  111MOL   H18846608   7.865   4.390   1.160  0.3571  0.5555 -1.2887
  111MOL   H18946609   7.732   4.990   1.379  0.0233  0.1512  1.1349
  111MOL   H19046610   7.899   4.984   1.300 -1.3493  3.4610  2.4265
  111MOL   C19146611   7.762   5.045   1.158  0.3914 -0.7760 -0.2042
  111MOL   O19246612   7.772   5.185   1.182  0.3212  0.0192 -0.3250
  111MOL   C19346613   7.901   5.228   1.227  0.6399 -0.4792  0.1012
  111MOL   O19446614   0.027   5.175   1.149  0.1595 -0.3011 -1.0334
  111MOL   C19546615   0.160   5.201   1.177  0.3412  0.0966  0.5271
  111MOL   C19646616   0.257   5.122   1.111  0.1559 -0.4654 -0.3198
  111MOL   C19746617   0.394   5.149   1.124 -0.2543  0.1025  0.2201
  111MOL   C19846618   0.439   5.248   1.220 -0.1554 -0.6312  0.1706
  111MOL   C19946619   0.341   5.320   1.293 -0.1963 -0.0352  0.0554
  111MOL   C20046620   0.208   5.292   1.272 -0.0606 -0.0505  0.4586
  111MOL   C20146621   7.610   5.032   1.114  0.5909 -0.0395 -0.0695
  111MOL   H20246622   7.824   5.011   1.076 -0.6408 -3.4782  0.0802
  111MOL   H20346623   7.913   5.199   1.331  2.2960  0.4107  0.1681
  111MOL   H20446624   7.906   5.337   1.223 -0.3241 -0.3422  1.8408
  111MOL   H20546625   0.220   5.057   1.033  2.0283  0.5872 -2.1468
  111MOL   H20646626   0.468   5.099   1.065  1.7666  1.7438  1.3049
  111MOL   H20746627   0.542   5.277   1.234 -0.5503  1.1874 -0.6023
  111MOL   H20846628   0.349   5.401   1.364 -0.4224 -1.3512  1.6374
  111MOL   H20946629   0.137   5.355   1.323 -1.8104  0.1459 -2.1239
  111MOL   H21046630   7.593   4.924   1.120  4.2090 -0.5235  3.3837
  111MOL   H21146631   7.539   5.068   1.188 -0.0658  0.4754 -0.9471
  111MOL   C21246632   7.582   5.079   0.971 -0.1812 -0.3384  0.7342
  111MOL   O21346633   7.484   4.995   0.912 -0.0211  0.5015  0.3917
  111MOL   C21446634   7.538   4.915   0.819  0.3290  0.4935  0.0895
  111MOL   O21546635   7.621   4.820   0.881  0.0406 -0.0729 -0.1672
  111MOL   C21646636   7.697   4.734   0.804  0.4281 -0.2234  0.3847
  111MOL   C21746637   7.691   4.726   0.666 -0.1872 -0.4305  0.1505
  111MOL   C21846638   7.769   4.637   0.586 -0.0797  0.0057 -0.1490
  111MOL   C21946639   7.878   4.576   0.644 -0.9722 -0.1497 -0.0411
  111MOL   C22046640   7.890   4.585   0.783 -0.2520 -1.0663 -0.4407
  111MOL   C22146641   7.800   4.663   0.862 -1.0497 -0.0812 -0.2543
  111MOL   C22246642   7.533   5.224   0.975  0.3156  0.4495  0.1048
  111MOL   H22346643   7.676   5.074   0.917 -0.2340  1.4919  0.4402
  111MOL   H22446644   7.585   4.971   0.738  2.1449  0.2684  0.9565
  111MOL   H22546645   7.458   4.859   0.771  0.3661  0.0330  0.5600
  111MOL   H22646646   7.611   4.781   0.620 -1.5024 -0.3882  2.4233
  111MOL   H22746647   7.755   4.647   0.479  2.0850 -0.4062 -0.4908
  111MOL   H22846648   7.952   4.522   0.587 -0.8118  0.0576 -0.0316
  111MOL   H22946649   7.970   4.528   0.829 -0.1898 -0.1666  0.5706
  111MOL   H23046650   7.820   4.680   0.967  2.2830  0.7344 -0.9694
  111MOL   H23146651   7.432   5.230   1.015  0.6992  1.0149  1.0066
  111MOL   H23246652   7.597   5.275   1.047 -0.3744 -0.0786  1.1017
  111MOL   C23346653   7.547   5.302   0.841 -0.7385 -0.7426 -0.3364
  111MOL   O23446654   7.415   5.347   0.819 -0.9992 -0.3787 -0.5482
  111MOL   C23546655   7.318   5.263   0.764 -0.3099  0.1629  0.3538
  111MOL   O23646656   7.198   5.329   0.757  0.0882  0.0547 -0.2248
  111MOL   C23746657   7.198   5.445   0.676 -0.7172 -0.0091 -0.5050
  111MOL   C23846658   7.079   5.518   0.662 -0.1265  1.0380  0.2303
  111MOL   C23946659   7.068   5.621   0.564 -0.2870  0.9820  0.0379
  111MOL   C24046660   7.172   5.659   0.486 -0.3192  0.4434 -0.5611
  111MOL   C24146661   7.298   5.603   0.506  0.3096  0.5394  0.2942
  111MOL   C24246662   7.313   5.499   0.603  0.3566  0.0657  0.2357
  111MOL   C24346663   7.643   5.421   0.825 -0.0365  0.6441 -0.3296
  111MOL   H24446664   7.577   5.227   0.768 -0.5952  0.1202 -1.1746
  111MOL   H24546665   7.312   5.172   0.824 -1.0587 -0.7064 -1.0254
  111MOL   H24646666   7.341   5.231   0.663  0.3275 -1.0043  0.8576
  111MOL   H24746667   6.992   5.487   0.717 -1.5267  2.4002 -1.1602
  111MOL   H24846668   6.968   5.662   0.557 -1.4823 -1.4887  1.5716
  111MOL   H24946669   7.159   5.738   0.412 -0.9744 -0.6746 -1.6623
  111MOL   H25046670   7.384   5.637   0.450 -1.6162  2.1381 -1.7837
  111MOL   H25146671   7.410   5.452   0.598  1.3176  2.2233 -1.9015
  111MOL   H25246672   7.643   5.461   0.723  3.0910  0.4420 -0.4612
  111MOL   H25346673   7.606   5.506   0.882 -0.9788  0.5836 -0.8501
  111MOL   C25446674   7.783   5.389   0.875 -0.0679 -0.7302 -0.0855
  111MOL   O25546675   7.810   5.280   0.795  0.1020  0.4236 -0.0009
  111MOL   C25646676   7.908   5.195   0.849  0.4449 -0.2531 -0.2755
  111MOL   O25746677   7.926   5.071   0.784  0.1029 -0.1318  0.5341
  111MOL   C25846678   0.007   5.054   0.663 -0.0220  0.1022 -0.6624
  111MOL   C25946679   0.045   5.161   0.574 -0.3906  0.3880  0.3937
  111MOL   C26046680   0.081   5.127   0.440 -0.2271 -0.0809 -0.6621
  111MOL   C26146681   0.085   4.991   0.392 -0.8902 -0.2152 -0.4623
  111MOL   C26246682   0.051   4.889   0.486  0.3234  0.4816  0.1765
  111MOL   C26346683   0.014   4.920   0.620 -0.3291  0.4929  0.3389
  111MOL   C26446684   7.893   5.497   0.840  0.8765  0.3556 -0.8127
  111MOL   H26546685   7.769   5.380   0.983 -3.3961  1.8242 -0.2189
  111MOL   H26646686   7.874   5.184   0.952  1.2310  0.4354  0.0681
  111MOL   H26746687   0.028   5.248   0.852  1.7085 -2.5337  0.7042
  111MOL   H26846688   0.049   5.262   0.612  0.3900  0.9773 -1.2114
  111MOL   H26946689   0.112   5.198   0.365  2.2385  0.4019  0.7617
  111MOL   H27046690   0.114   4.970   0.290 -0.5541 -2.5036  0.0817
  111MOL   H27146691   0.046   4.783   0.467 -0.0189  0.5429 -0.0738
  111MOL   H27246692   7.958   4.840   0.685  1.5690  1.0118  1.9428
  111MOL   H27346693   0.014   5.463   0.878 -0.2475 -0.8201  1.0474
  111MOL   H27446694   7.901   5.506   0.731  0.6457  1.3614 -0.7482
  111MOL   C27546695   7.873   5.630   0.908  0.3268  0.3078  0.0267
  111MOL   O27646696   7.916   5.613   1.040  0.2713  0.1885 -0.4194
  111MOL   C27746697   7.853   5.687   1.144 -0.7647 -0.4253  0.4996
  111MOL   O27846698   7.936   5.704   1.254 -0.2821 -0.3413 -0.2010
  111MOL   C27946699   0.071   5.787   1.239 -0.2370  0.0673 -0.0074
  111MOL   C28046700   0.100   5.878   1.338 -0.8729 -0.0218  0.0218
  111MOL   C28146701   0.213   5.961   1.323  0.2092  0.3377 -0.1537
  111MOL   C28246702   0.295   5.962   1.214  0.3810  0.1540 -0.4175
  111MOL   C28346703   0.268   5.866   1.109  0.1325  0.9690  0.1011
  111MOL   C28446704   0.156   5.783   1.126  0.2582  1.1980  0.3122
  111MOL   C28546705   7.955   5.740   0.836  0.0316 -0.5574 -0.1724
  111MOL   H28646706   7.767   5.656   0.902 -0.3869 -1.8585  2.3052
  111MOL   H28746707   7.757   5.649   1.180 -0.3475  0.7405  2.9620
  111MOL   H28846708   7.842   5.787   1.103 -2.2503 -0.6118  0.4056
  111MOL   H28946709   0.033   5.884   1.423 -1.9922  1.1884 -0.9250
  111MOL   H29046710   0.233   6.031   1.403 -2.4944  0.8457  0.1166
  111MOL   H29146711   0.364   6.043   1.195 -0.9228  1.5144  0.4541
  111MOL   H29246712   0.325   5.861   1.017  0.7863 -2.2195  0.6490
  111MOL   H29346713   0.141   5.703   1.055 -2.1538  0.3399  1.7053
  111MOL   H29446714   0.084   5.713   0.821  1.2634  3.5908  0.3364
  111MOL   H29546715   7.961   5.830   0.896  0.4180 -1.3406  0.9847
  111MOL   C29646716   7.884   5.780   0.705  0.1755  0.0661 -0.4491
  111MOL   O29746717   7.787   5.878   0.743 -0.3403  0.1661 -0.0032
  111MOL   C29846718   7.675   5.886   0.658  0.1080 -0.0708 -0.2836
  111MOL   O29946719   7.585   5.787   0.697  0.1784  0.0620  0.4463
  111MOL   C30046720   7.523   5.804   0.823  0.8212 -0.2127  1.0966
  111MOL   C30146721   7.389   5.769   0.829 -0.4657  0.1075  0.6088
  111MOL   C30246722   7.310   5.764   0.948  0.3634 -0.6462 -0.4555
  111MOL   C30346723   7.374   5.803   1.070  0.8960 -0.5262 -0.3704
  111MOL   C30446724   7.511   5.833   1.061  0.1229  0.9521 -0.7440
  111MOL   C30546725   7.585   5.826   0.942 -0.5054 -0.0874  0.5627
  111MOL   C30646726   0.008   5.866   0.614  0.4060  0.4490  0.1843
  111MOL   H30746727   7.832   5.697   0.659 -2.1448  0.0422  2.0954
  111MOL   H30846728   7.703   5.865   0.554  2.0014  0.4810  0.0962
  111MOL   H30946729   7.623   5.981   0.669 -0.5571 -0.5718  0.9409
  111MOL   H31046730   7.343   5.735   0.737 -2.1864  2.2458  0.6432
  111MOL   H31146731   7.213   5.717   0.952  0.6697 -1.3985 -1.7358
  111MOL   H31246732   7.320   5.808   1.164  1.3799  2.5835 -0.2010
  111MOL   H31346733   7.562   5.855   1.153 -0.7052  0.9076 -0.2741
  111MOL   H31446734   7.688   5.859   0.943 -0.9167  1.2617 -0.2965
  111MOL   H31546735   0.057   5.950   0.662 -0.0559  1.5418 -1.2327
  111MOL   H31646736   7.933   5.915   0.531 -1.0309 -2.2545 -0.6081
  111MOL   C31746737   0.125   5.783   0.557 -0.2821 -0.0969  0.2496
  111MOL   O31846738   0.213   5.882   0.491 -0.2790 -0.0348 -0.5858
  111MOL   C31946739   0.345   5.866   0.525 -0.5768 -0.0919  0.4659
  111MOL   O32046740   0.367   5.893   0.654 -0.0737  0.4133  0.3837
  111MOL   C32146741   0.396   6.024   0.696  0.5233 -0.1224  0.1284
  111MOL   C32246742   0.438   6.034   0.818  0.0022 -0.3262 -0.0182
  111MOL   C32346743   0.478   6.160   0.871 -0.1277 -0.6593  0.3736
  111MOL   C32446744   0.453   6.277   0.800  0.3601 -0.2037  0.6096
  111MOL   C32546745   0.398   6.268   0.670  0.2201 -0.1547 -0.1496
  111MOL   C32646746   0.375   6.140   0.614  0.4428  0.0840 -0.5017
  111MOL   C32746747   0.075   5.674   0.465  0.4756  0.4489  0.7932
  111MOL   H32846748   0.169   5.736   0.645 -0.2319 -0.7706 -0.1331
  111MOL   H32946749   0.401   5.936   0.464 -0.4274 -0.7567 -0.1697
  111MOL   H33046750   0.388   5.768   0.501 -1.6155 -0.3409 -0.4466
  111MOL   H33146751   0.460   5.948   0.881 -1.7768  0.0779  1.1896
  111MOL   H33246752   0.512   6.168   0.973  2.5337 -1.5302 -0.4014
  111MOL   H33346753   0.479   6.375   0.837 -0.0829 -0.4871  1.6796
  111MOL   H33446754   0.385   6.357   0.611  1.0509 -0.8503 -1.4141
  111MOL   H33546755   0.336   6.131   0.514 -1.1932 -1.8295  0.2722
  111MOL   H33646756   0.015   5.608   0.527 -0.2093  3.6964  3.7314
  111MOL   H33746757   0.010   5.723   0.392 -1.7678 -0.3534  2.1846
  111MOL   C33846758   0.173   5.580   0.385  0.1569  0.1675 -0.0054
  111MOL   O33946759   0.214   5.468   0.468 -0.1191 -0.1548  0.1199
  111MOL   C34046760   0.350   5.442   0.478  0.2367 -0.2305 -0.4327
  111MOL   O34146761   0.417   5.527   0.565  0.8492  0.4121 -0.2013
  111MOL   C34246762   0.386   5.510   0.697 -0.1099  0.0214  0.0443
  111MOL   C34346763   0.447   5.596   0.790 -0.4115 -0.4964 -0.2163
  111MOL   C34446764   0.433   5.582   0.933 -0.0085 -0.2174  0.1125
  111MOL   C34546765   0.346   5.482   0.977  0.5049  0.2728 -0.1325
  111MOL   C34646766   0.279   5.400   0.879 -0.3024 -0.8120 -0.3720
  111MOL   C34746767   0.294   5.409   0.742 -0.2883  0.7233 -0.5618
  111MOL   C34846768   0.089   5.519   0.268  0.1484  0.0867 -0.1246
  111MOL   H34946769   0.255   5.638   0.342 -0.9904 -0.5095 -3.2281
  111MOL   H35046770   0.396   5.446   0.379  0.7491  1.9862 -0.1315
  111MOL   H35146771   0.382   5.343   0.510 -0.9418 -0.2984  0.5477
  111MOL   H35246772   0.512   5.677   0.762 -0.2301 -0.9071 -0.9728
  111MOL   H35346773   0.478   5.647   1.005 -2.9006  0.6476  1.1866
  111MOL   H35446774   0.322   5.464   1.081 -1.9646  2.1485 -0.3258
  111MOL   H35546775   0.220   5.319   0.920  0.6704 -1.3799 -0.0807
  111MOL   H35646776   0.238   5.340   0.681  1.7500 -1.9590  0.4635
  111MOL   H35746777   0.022   5.595   0.227 -0.3936  0.8526  2.0787
  111MOL   H35846778   0.028   5.442   0.315 -0.5984  1.7842  1.7970
  111MOL   C35946779   0.161   5.452   0.148 -0.0272 -0.0233 -0.0515
  111MOL   O36046780   0.201   5.568   0.075  0.4127  0.2046  0.6433
  111MOL   C36146781   0.327   5.556   0.025 -0.3621  0.2430  0.4588
  111MOL   O36246782   0.431   5.591   0.117 -0.3223  1.0313 -0.5282
  111MOL   C36346783   0.448   5.722   0.153 -0.3269 -0.1642 -0.4106
  111MOL   C36446784   0.552   5.755   0.236 -0.1878 -0.2937  0.4992
  111MOL   C36546785   0.580   5.886   0.274  0.5511  0.1587 -0.2747
  111MOL   C36646786   0.494   5.990   0.223  0.3001 -0.0173 -0.1055
  111MOL   C36746787   0.386   5.963   0.135  0.1589  1.2581 -0.5831
  111MOL   C36846788   0.365   5.825   0.103  0.4904 -0.9535 -1.3685
  111MOL   C36946789   0.072   5.356   0.062  0.5719 -0.3080 -0.3637
  111MOL   H37046790   0.240   5.395   0.198 -1.5809  0.0907  2.6236
  111MOL   H37146791   0.343   5.609   7.906  0.4364 -0.5902  0.1195
  111MOL   H37246792   0.357   5.455   7.972  0.0625  0.7107 -0.8174
  111MOL   H37346793   0.614   5.671   0.264 -0.6915 -0.9451 -0.3246
  111MOL   H37446794   0.667   5.924   0.325  2.0892 -1.2197 -1.8148
  111MOL   H37546795   0.504   6.095   0.247 -3.7434  0.6106 -0.7785
  111MOL   H37646796   0.317   6.039   0.103 -4.1002 -1.7624  0.9895
  111MOL   H37746797   0.278   5.801   0.043 -0.1632 -4.1865  0.7118
  111MOL   H37846798   0.042   5.403   7.944 -1.6810 -0.8792  0.0414
  111MOL   H37946799   7.950   5.359   0.110 -0.0647  1.3304 -1.6963
  111MOL   C38046800   0.134   5.214   0.042  0.0525 -0.4180  0.2546
  111MOL   O38146801   0.260   5.233   7.961 -0.5432  0.6312  0.1517
  111MOL   C38246802   0.359   5.141   0.020  0.1212  0.7562 -0.1793
  111MOL   O38346803   0.386   5.150   0.155  0.4072 -0.1990  0.3922
  111MOL   C38446804   0.453   5.041   0.203 -0.6698  0.7829 -0.0895
  111MOL   C38546805   0.414   4.999   0.334 -0.3003 -0.7143  0.1223
  111MOL   C38646806   0.466   4.879   0.386 -0.0341 -0.9728  0.1558
  111MOL   C38746807   0.532   4.787   0.303  0.5662 -0.0253  0.6005
  111MOL   C38846808   0.574   4.822   0.175 -0.2067  0.3439  0.4764
  111MOL   C38946809   0.533   4.952   0.127 -0.2542  0.1242 -0.1064
  111MOL   C39046810   0.057   5.123   7.932 -0.1292 -0.3317 -0.3516
  111MOL   H39146811   0.149   5.166   0.139  3.7998  1.4192  0.6727
  111MOL   H39246812   0.330   5.041   7.964  0.7031  0.7170 -0.5875
  111MOL   H39346813   0.449   5.161   7.937  0.5874 -3.4770 -1.0066
  111MOL   H39446814   0.366   5.065   0.404  0.5929 -1.1627  1.1701
  111MOL   H39546815   0.450   4.849   0.489  2.6594  2.5822  1.7236
  111MOL   H39646816   0.557   4.689   0.339 -1.2009 -0.1086  1.6429
  111MOL   H39746817   0.646   4.763   0.120  0.6768  1.7380  0.1316
  111MOL   H39846818   0.579   4.984   0.035  1.3062  1.1428  0.9851
  111MOL   H39946819   0.107   5.030   7.903 -0.6218 -1.0983  1.2292
  111MOL   H40046820   0.049   5.166   7.832  0.4006  2.1547  0.6462
  111MOL   C40146821   7.891   5.077   0.001 -0.1971 -0.3899 -0.0026
  111MOL   O40246822   7.809   5.189   7.974 -0.0517  0.8237 -0.1968
  111MOL   C40346823   7.690   5.169   0.079 -0.1203 -0.5134  0.0800
  111MOL   O40446824   7.721   5.191   0.211 -0.6210 -0.6385  0.9201
  111MOL   C40546825   7.735   5.324   0.257 -0.2345  0.6261 -0.0591
  111MOL   C40646826   7.719   5.441   0.184  0.1467 -0.7973  0.2942
  111MOL   C40746827   7.710   5.568   0.248  0.7731 -0.2811  0.5374
  111MOL   C40846828   7.727   5.577   0.385  0.9749  0.2382 -0.1930
  111MOL   C40946829   7.746   5.460   0.463 -0.2453 -0.2011  0.1019
  111MOL   C41046830   7.744   5.335   0.399  0.5900  0.1848 -0.7427
  111MOL   C41146831   7.830   4.956   7.907  0.2880 -0.1093  0.0044
  111MOL   H41246832   7.895   5.056   0.107 -0.8772  2.2534  0.5814
  111MOL   H41346833   7.636   5.074   0.074  1.1085 -1.2223  0.0818
  111MOL   H41446834   7.628   5.249   0.040  0.7650 -0.2290 -0.7585
  111MOL   H41546835   7.718   5.442   0.076  0.9042 -3.0368  0.2395
  111MOL   H41646836   7.683   5.656   0.192  0.3707  0.8593  2.5200
  111MOL   H41746837   7.720   5.671   0.438  1.1441  1.4732 -2.3114
  111MOL   H41846838   7.757   5.470   0.569  0.5291  0.4145 -0.0323
  111MOL   H41946839   7.760   5.246   0.458 -0.3432  0.2992 -0.3189
  111MOL   H42046840   7.804   4.988   7.806 -0.9297 -1.0082  0.0303
  111MOL   H42146841   7.747   4.921   7.968  0.6175 -1.9702 -0.5842
  111MOL   H42246842   7.896   4.870   7.901  1.4120  0.6908  0.6374
  112MOL     C146843   7.365   6.344   6.675 -0.9198 -0.1259  0.1145
  112MOL     O246844   7.296   6.256   6.762  0.0308  0.4942  0.1162
  112MOL     C346845   7.375   6.167   6.836  0.4111 -0.5881  0.1644
  112MOL     O446846   7.439   6.080   6.748 -0.2722 -0.5387 -0.4848
  112MOL     C546847   7.543   6.007   6.807  0.2805  0.2320  0.1771
  112MOL     C646848   7.624   5.944   6.709 -0.2595 -0.1142  0.0633
  112MOL     C746849   7.738   5.870   6.746  0.5211 -0.0157 -0.0684
  112MOL     C846850   7.774   5.866   6.882 -0.6662 -0.6605 -0.3945
  112MOL     C946851   7.700   5.938   6.977 -0.2598 -0.3709  0.7869
  112MOL    C1046852   7.579   5.998   6.944 -0.2059  0.8364  0.3530
  112MOL    C1146853   7.265   6.453   6.627 -0.0930 -0.1944 -0.0431
  112MOL    H1246854   7.447   6.395   6.726 -0.9676  0.1850 -0.1136
  112MOL    H1346855   7.451   6.218   6.895 -1.9846  2.5978  0.6096
  112MOL    H1446856   7.314   6.103   6.900  0.7001 -1.6847 -0.6458
  112MOL    H1546857   7.609   5.955   6.602  0.1066  1.0946  0.1272
  112MOL    H1646858   7.809   5.830   6.676 -1.3447  1.5235 -2.9327
  112MOL    H1746859   7.870   5.821   6.902  0.2483  1.8475  1.0900
  112MOL    H1846860   7.727   5.944   7.082  0.1811 -2.0371  0.7895
  112MOL    H1946861   7.519   6.042   7.022  2.1719  1.1377  2.0612
  112MOL    H2046862   7.259   6.530   6.704 -0.6192  0.1790 -0.4519
  112MOL    H2146863   7.167   6.409   6.607 -0.5731  0.3288  1.1074
  112MOL    H2246864   7.405   6.292   6.588 -0.1670  1.8699 -0.7777
  112MOL    C2346865   7.314   6.525   6.502  0.3303  0.1203  0.9100
  112MOL    O2446866   7.446   6.560   6.536 -0.3504  0.1947  0.0266
  112MOL    C2546867   7.533   6.571   6.427 -0.2467  0.4664 -0.0984
  112MOL    O2646868   7.573   6.444   6.372 -0.0583 -0.4721 -0.0461
  112MOL    C2746869   7.649   6.363   6.454 -1.0129  0.2172 -0.3841
  112MOL    C2846870   7.681   6.240   6.407 -0.2156  0.0867 -1.1329
  112MOL    C2946871   7.768   6.152   6.483 -0.3178  0.0186  0.2259
  112MOL    C3046872   7.828   6.199   6.603  0.4041 -0.8331  0.2706
  112MOL    C3146873   7.788   6.324   6.651 -0.3667 -0.1616  0.4319
  112MOL    C3246874   7.704   6.403   6.576  0.2103  0.4669 -0.3697
  112MOL    C3346875   7.235   6.652   6.465  0.2474 -0.8230  0.1126
  112MOL    H3446876   7.317   6.456   6.418  2.1097  0.7948  0.3910
  112MOL    H3546877   7.624   6.629   6.442 -0.0568 -0.0589  0.8188
  112MOL    H3646878   7.492   6.621   6.340 -0.8429 -0.7308 -0.5251
  112MOL    H3746879   7.648   6.215   6.307 -0.5691 -1.4733 -0.6385
  112MOL    H3846880   7.800   6.063   6.432  3.3630 -0.1741  2.7147
  112MOL    H3946881   7.891   6.138   6.665  1.1427  0.0415  0.3988
  112MOL    H4046882   7.824   6.361   6.746 -2.0806 -0.6057  1.2864
  112MOL    H4146883   7.682   6.501   6.617  1.0152  0.8885 -0.9204
  112MOL    H4246884   7.309   6.732   6.466 -0.4747 -0.0687 -2.5995
  112MOL    H4346885   7.170   6.681   6.547 -0.4297  1.0571 -1.0547
  112MOL    C4446886   7.158   6.655   6.334 -0.3825  0.3354  0.2998
  112MOL    O4546887   7.081   6.532   6.316  0.2897 -0.7571  0.4976
  112MOL    C4646888   6.942   6.529   6.349 -0.0678 -0.3987 -0.3962
  112MOL    O4746889   6.864   6.637   6.297  0.5745  0.4810  0.1286
  112MOL    C4846890   6.827   6.630   6.165 -0.5070  0.0752 -0.6174
  112MOL    C4946891   6.859   6.522   6.086  0.0517  0.6150  0.1944
  112MOL    C5046892   6.808   6.525   5.952  0.0469  0.6488  0.2857
  112MOL    C5146893   6.735   6.632   5.906 -0.3938  0.2564 -0.1738
  112MOL    C5246894   6.711   6.743   5.985  0.4550  0.7664 -0.2410
  112MOL    C5346895   6.763   6.746   6.116 -0.7692  0.6984  0.6799
  112MOL    C5446896   7.258   6.663   6.213 -0.7042 -0.0495 -0.4676
  112MOL    H5546897   7.089   6.738   6.326 -2.0469 -0.8226  2.2512
  112MOL    H5646898   6.922   6.540   6.456  1.5988  2.2175 -0.3055
  112MOL    H5746899   6.909   6.432   6.312 -0.6737 -0.9235  1.4619
  112MOL    H5846900   6.921   6.436   6.105 -0.4198  0.0063 -0.9270
  112MOL    H5946901   6.832   6.457   5.871 -2.7266  1.2221 -1.0620
  112MOL    H6046902   6.691   6.629   5.808  0.3903 -1.3789 -0.4816
  112MOL    H6146903   6.654   6.826   5.945 -2.2282  0.2202  2.3398
  112MOL    H6246904   6.751   6.823   6.190  1.1136  0.7144  0.9991
  112MOL    H6346905   7.341   6.731   6.231 -0.7774 -0.1725  0.3314
  112MOL    H6446906   7.305   6.565   6.220 -0.1838  0.2921  0.7847
  112MOL    C6546907   7.179   6.681   6.079 -0.0810 -0.0606 -0.1362
  112MOL    O6646908   7.188   6.819   6.048 -0.6743 -0.4736 -0.3516
  112MOL    C6746909   7.083   6.908   6.079 -0.1759 -0.1430 -0.2283
  112MOL    O6846910   7.083   6.974   6.202 -0.4116  0.2316  0.1421
  112MOL    C6946911   7.194   7.036   6.248 -0.4176 -0.3205 -0.3034
  112MOL    C7046912   7.189   7.086   6.376 -0.2161 -0.8461 -0.2185
  112MOL    C7146913   7.293   7.153   6.441  0.1127 -0.0387  0.0925
  112MOL    C7246914   7.409   7.176   6.365 -0.0992 -0.2910  0.4196
  112MOL    C7346915   7.413   7.129   6.233 -0.2081  0.1304 -0.1906
  112MOL    C7446916   7.309   7.055   6.178 -0.5488 -0.0334 -0.3832
  112MOL    C7546917   7.237   6.595   5.958  0.1821 -0.8097 -0.1994
  112MOL    H7646918   7.079   6.639   6.091 -1.3004  2.5025 -1.0413
  112MOL    H7746919   6.991   6.860   6.048 -1.8339  2.2003  0.8849
  112MOL    H7846920   7.090   6.986   6.003 -1.0661  1.7014  1.5426
  112MOL    H7946921   7.095   7.085   6.430 -0.0257  3.5768  0.3727
  112MOL    H8046922   7.285   7.192   6.541 -1.9462 -0.6173  0.1830
  112MOL    H8146923   7.490   7.226   6.416 -0.3657 -0.3443  0.9004
  112MOL    H8246924   7.508   7.142   6.182 -0.5145  0.9080 -0.5663
  112MOL    H8346925   7.334   7.000   6.088 -0.7763 -0.4876 -0.1684
  112MOL    H8446926   7.341   6.623   5.942 -0.7346  1.7518 -2.0150
  112MOL    H8546927   7.258   6.493   5.988 -1.2898 -1.0115  0.1828
  112MOL    C8646928   7.159   6.592   5.824  0.5935  0.3982  0.0514
  112MOL    O8746929   7.053   6.498   5.827  0.7234  0.0550  0.1026
  112MOL    C8846930   7.059   6.399   5.731  0.0813 -0.3738 -0.4122
  112MOL    O8946931   7.160   6.306   5.758  0.5510 -0.7835  0.4633
  112MOL    C9046932   7.187   6.204   5.668  0.2560  0.5039  0.6521
  112MOL    C9146933   7.127   6.195   5.542  0.3249 -0.0692  0.2942
  112MOL    C9246934   7.168   6.094   5.451 -0.3717  0.3291 -0.4059
  112MOL    C9346935   7.267   5.998   5.495 -0.3989 -0.4547 -0.0195
  112MOL    C9446936   7.332   6.013   5.620  0.3500 -0.4072  0.4048
  112MOL    C9546937   7.290   6.114   5.705  0.2957  0.4434  0.5006
  112MOL    C9646938   7.092   6.722   5.796 -0.0306  0.5600 -0.0738
  112MOL    H9746939   7.231   6.567   5.747 -0.1576 -1.9778  0.0718
  112MOL    H9846940   7.055   6.434   5.628 -0.1346 -1.0727 -0.6461
  112MOL    H9946941   6.970   6.337   5.731  1.0312 -1.7793 -2.2638
  112MOL   H10046942   7.047   6.259   5.508  0.5583 -0.6393 -1.4031
  112MOL   H10146943   7.133   6.077   5.351 -0.3492  0.0020 -0.3590
  112MOL   H10246944   7.294   5.923   5.422  0.0773  1.3794 -1.7484
  112MOL   H10346945   7.419   5.954   5.645  0.0314 -1.1774 -0.3070
  112MOL   H10446946   7.343   6.125   5.798 -0.8068  2.0214  0.9625
  112MOL   H10546947   7.018   6.751   5.871 -0.9694 -0.8715 -0.4180
  112MOL   H10646948   7.174   6.793   5.804  0.5704  0.1683 -2.3182
  112MOL   C10746949   7.021   6.737   5.658 -0.2580  0.3714 -0.1757
  112MOL   O10846950   6.967   6.868   5.631 -0.0559 -0.4479  0.3169
  112MOL   C10946951   6.844   6.902   5.683  0.4651 -0.6508 -0.5055
  112MOL   O11046952   6.869   6.945   5.813 -0.4555  0.1058  0.0480
  112MOL   C11146953   6.886   7.081   5.832 -0.3346  0.5633  0.2323
  112MOL   C11246954   6.848   7.137   5.957  0.2981 -1.1249 -0.5411
  112MOL   C11346955   6.898   7.260   6.002  0.4074  0.4106 -0.4040
  112MOL   C11446956   6.952   7.349   5.904  0.1572  0.3257  0.2097
  112MOL   C11546957   6.969   7.297   5.772 -0.0048 -0.5008 -0.4077
  112MOL   C11646958   6.945   7.163   5.738  0.7124 -0.2463 -0.7607
  112MOL   C11746959   7.107   6.700   5.532 -0.4072 -0.1924  0.2146
  112MOL   H11846960   6.934   6.671   5.653  0.3981 -0.4605 -0.7118
  112MOL   H11946961   6.776   6.817   5.683 -1.3723  0.7988 -0.6111
  112MOL   H12046962   6.792   6.971   5.618  1.2390  0.6718  0.2634
  112MOL   H12146963   6.816   7.074   6.039 -0.7002 -1.1890 -0.9811
  112MOL   H12246964   6.879   7.295   6.102  1.4537  1.2629 -0.4901
  112MOL   H12346965   6.981   7.452   5.922  1.1684 -0.0839  0.9426
  112MOL   H12446966   7.002   7.356   5.688  3.5089 -1.5243  0.2038
  112MOL   H12546967   6.975   7.136   5.638 -0.0297  1.5400 -1.4864
  112MOL   H12646968   7.155   6.602   5.538 -0.0683  0.0014  0.6631
  112MOL   H12746969   7.180   6.780   5.517 -2.4680  1.2226 -2.7959
  112MOL   C12846970   7.034   6.689   5.399  0.0089  0.4535 -0.9854
  112MOL   O12946971   6.946   6.578   5.404 -0.2733  0.0794 -0.5532
  112MOL   C13046972   6.813   6.607   5.406 -0.1473 -0.2367  0.2764
  112MOL   O13146973   6.752   6.553   5.519  0.3944 -0.5174  0.1306
  112MOL   C13246974   6.752   6.411   5.539 -0.6506 -0.1865  0.4668
  112MOL   C13346975   6.683   6.368   5.654  0.3289  0.3854 -0.3096
  112MOL   C13446976   6.671   6.228   5.681 -0.5850  0.2874 -0.3647
  112MOL   C13546977   6.724   6.134   5.585  0.4750 -0.3496  0.3216
  112MOL   C13646978   6.795   6.180   5.481 -0.1008 -0.6853 -0.3357
  112MOL   C13746979   6.800   6.312   5.445 -0.0235 -0.7183 -0.5664
  112MOL   C13846980   7.125   6.684   5.275 -0.3934 -0.1197  0.3198
  112MOL   H13946981   6.976   6.779   5.383  0.3507  1.1270  1.3990
  112MOL   H14046982   6.775   6.560   5.315  0.0714  2.0622 -1.0484
  112MOL   H14146983   6.793   6.714   5.412  2.3614  0.2864 -0.1349
  112MOL   H14246984   6.634   6.437   5.720 -1.1738 -2.5184  1.7395
  112MOL   H14346985   6.623   6.196   5.772 -2.0977  1.7984 -0.6055
  112MOL   H14446986   6.713   6.027   5.601  0.7630 -0.2258  1.3913
  112MOL   H14546987   6.848   6.104   5.425 -2.1299 -0.9251 -2.0201
  112MOL   H14646988   6.844   6.347   5.352 -1.7700  1.3240 -0.6579
  112MOL   H14746989   7.173   6.782   5.271 -0.7985  0.1153  1.2059
  112MOL   H14846990   7.197   6.604   5.291  0.5071 -0.5327 -4.7863
  112MOL   C14946991   7.049   6.686   5.141  0.3275  0.1369 -0.9230
  112MOL   O15046992   7.027   6.821   5.109  0.1440  0.0245  0.1564
  112MOL   C15146993   6.897   6.839   5.057 -0.6173 -0.0667 -0.4476
  112MOL   O15246994   6.796   6.857   5.153  0.9131  0.5502 -0.0834
  112MOL   C15346995   6.801   6.971   5.240 -0.3332 -0.8845  0.0300
  112MOL   C15446996   6.704   6.981   5.337 -0.4536 -0.0283 -0.4001
  112MOL   C15546997   6.692   7.090   5.420  0.4429  0.1795 -0.0949
  112MOL   C15646998   6.780   7.197   5.417 -0.3834  0.1196  0.6574
  112MOL   C15746999   6.888   7.184   5.326  0.1996 -0.1336 -0.6277
  112MOL   C15847000   6.894   7.079   5.237  0.4921  0.1159 -0.0734
  112MOL   C15947001   7.101   6.612   5.022  0.4567  0.3181  0.8624
  112MOL   H16047002   6.952   6.637   5.157  1.0961 -1.3626 -0.7837
  112MOL   H16147003   6.905   6.920   4.984  2.0717  0.7312  0.6683
  112MOL   H16247004   6.862   6.753   5.000 -2.0802  0.4968 -0.4241
  112MOL   H16347005   6.618   6.917   5.346 -1.9382  1.5788 -2.5206
  112MOL   H16447006   6.602   7.107   5.477  1.1721  1.4210  0.6994
  112MOL   H16547007   6.772   7.291   5.469 -0.9881  0.8790 -0.7993
  112MOL   H16647008   6.957   7.267   5.317  0.3839 -0.2429 -0.2445
  112MOL   H16747009   6.973   7.084   5.164  0.0244 -0.9598 -0.6719
  112MOL   H16847010   7.208   6.624   5.003  0.7956 -2.1362  1.1224
  112MOL   H16947011   7.049   6.654   4.936  1.3863 -0.7117 -0.2139
  112MOL   C17047012   7.079   6.455   5.034 -0.2528 -0.6435 -0.3668
  112MOL   O17147013   7.148   6.402   5.138  0.1640  0.2357  0.2162
  112MOL   C17247014   7.258   6.323   5.098  0.1457  0.4328  0.3564
  112MOL   O17347015   7.357   6.395   5.031  0.1938 -0.7743  0.4023
  112MOL   C17447016   7.394   6.371   4.902 -0.1737  0.1111  0.4004
  112MOL   C17547017   7.499   6.450   4.854  0.1049  0.2831  0.5446
  112MOL   C17647018   7.539   6.436   4.722 -0.0549 -0.3501 -0.1792
  112MOL   C17747019   7.488   6.343   4.636  0.2118  0.2750 -0.5070
  112MOL   C17847020   7.389   6.259   4.684  0.1272 -0.0689  0.2226
  112MOL   C17947021   7.338   6.274   4.813  0.0927  0.4368 -0.8458
  112MOL   C18047022   6.931   6.408   5.042 -0.1872 -0.0867 -0.7140
  112MOL   H18147023   7.114   6.418   4.938 -1.0960  0.5757 -1.1547
  112MOL   H18247024   7.229   6.232   5.046  0.4048  0.5536 -0.0002
  112MOL   H18347025   7.298   6.282   5.191 -1.2350  0.0007  0.7644
  112MOL   H18447026   7.550   6.521   4.917 -0.1373  2.4589 -1.6686
  112MOL   H18547027   7.621   6.502   4.698 -1.2691  1.1802 -0.2020
  112MOL   H18647028   7.521   6.321   4.535 -3.0500 -1.5299 -1.2549
  112MOL   H18747029   7.348   6.184   4.618 -1.1932  1.5693 -0.8318
  112MOL   H18847030   7.252   6.216   4.842 -0.0669  1.3607  0.6176
  112MOL   H18947031   6.883   6.428   5.137  2.9946 -0.6305  1.0615
  112MOL   H19047032   6.882   6.474   4.971  0.4977 -0.5757 -1.6539
  112MOL   C19147033   6.921   6.258   4.999  0.1292  0.3304 -0.0450
  112MOL   O19247034   6.795   6.242   4.937  0.0566  0.0260  0.1977
  112MOL   C19347035   6.789   6.269   4.800 -0.5603 -0.4320 -0.4638
  112MOL   O19447036   6.875   6.181   4.726 -0.0938 -0.3000 -0.3325
  112MOL   C19547037   6.814   6.065   4.686 -0.1278 -0.3914  0.3490
  112MOL   C19647038   6.858   6.011   4.564 -0.2742  0.8437  0.2987
  112MOL   C19747039   6.773   5.910   4.498  0.6109 -0.2854  0.3946
  112MOL   C19847040   6.659   5.853   4.554  0.2241 -0.5704  0.6106
  112MOL   C19947041   6.625   5.895   4.686 -0.4077 -0.3555  0.1333
  112MOL   C20047042   6.700   6.000   4.751 -0.0549  0.1185 -0.4714
  112MOL   C20147043   6.921   6.163   5.113 -0.9478 -0.6500 -0.7103
  112MOL   H20247044   6.992   6.216   4.928 -0.2888 -2.5583  1.1564
  112MOL   H20347045   6.830   6.369   4.784  1.6080 -1.3352 -0.6777
  112MOL   H20447046   6.684   6.266   4.770 -1.5237  2.0278  2.3905
  112MOL   H20547047   6.930   6.057   4.498  0.0105 -1.2741 -0.8950
  112MOL   H20647048   6.813   5.894   4.399  1.3113 -2.4380  0.9981
  112MOL   H20747049   6.594   5.787   4.499  0.6458  0.8058 -1.5950
  112MOL   H20847050   6.541   5.853   4.739 -0.9183 -0.1565 -0.5050
  112MOL   H20947051   6.669   6.038   4.847  2.0241 -1.9691  1.0655
  112MOL   H21047052   6.998   6.185   5.188 -1.9514 -2.0466  0.7565
  112MOL   H21147053   6.823   6.171   5.158 -0.8144 -2.5574 -0.0567
  112MOL   C21247054   6.943   6.011   5.080  0.3784 -0.0119  0.0765
  112MOL   O21347055   7.081   6.003   5.050 -1.0203 -0.2270 -0.2446
  112MOL   C21447056   7.120   5.924   4.942 -0.2661 -0.5854 -0.8465
  112MOL   O21547057   7.262   5.928   4.950 -0.1619 -0.0576  0.1758
  112MOL   C21647058   7.328   5.839   5.027 -0.2485 -0.1471 -0.4205
  112MOL   C21747059   7.268   5.773   5.136  0.2902  0.4793  0.5689
  112MOL   C21847060   7.346   5.683   5.211  0.7321 -0.1717  0.2155
  112MOL   C21947061   7.477   5.661   5.187 -0.5127  0.4840  0.1042
  112MOL   C22047062   7.543   5.728   5.088 -0.4513 -0.5789 -0.4597
  112MOL   C22147063   7.468   5.819   5.007  0.2998 -0.1457  0.1744
  112MOL   C22247064   6.919   5.912   5.202 -0.4252  0.2289 -0.4037
  112MOL   H22347065   6.881   5.990   4.992  1.1260 -0.7376 -0.2901
  112MOL   H22447066   7.092   5.968   4.846 -0.8924  2.6855  0.7837
  112MOL   H22547067   7.098   5.817   4.945  0.1184 -0.6836 -1.3798
  112MOL   H22647068   7.164   5.785   5.165 -0.0740  0.3503 -0.6423
  112MOL   H22747069   7.287   5.632   5.285  1.3683  1.7551  2.0791
  112MOL   H22847070   7.525   5.578   5.236 -1.0872  0.7495  1.1362
  112MOL   H22947071   7.649   5.713   5.072 -0.2139  0.9097 -0.2967
  112MOL   H23047072   7.525   5.867   4.928  0.9638 -0.4809  0.4462
  112MOL   H23147073   7.006   5.909   5.268 -0.4720  1.9899 -0.2388
  112MOL   H23247074   6.855   5.972   5.267 -0.1760  0.2211 -0.1522
  112MOL   C23347075   6.846   5.767   5.176  0.4385 -0.4190 -0.3344
  112MOL   O23447076   6.930   5.695   5.083  0.1091 -0.1852 -0.4161
  112MOL   C23547077   6.852   5.663   4.966 -0.1968  0.2664 -0.3364
  112MOL   O23647078   6.765   5.560   4.990  0.7086 -0.1603 -0.5681
  112MOL   C23747079   6.817   5.431   4.980 -0.8826  0.2329  0.7856
  112MOL   C23847080   6.953   5.399   5.005 -0.3324  0.6594 -0.5599
  112MOL   C23947081   6.987   5.265   5.023 -0.2220 -0.2691  0.1513
  112MOL   C24047082   6.894   5.159   5.007  0.2359 -0.0794 -0.2089
  112MOL   C24147083   6.758   5.191   4.977 -0.2968  0.0697  0.4887
  112MOL   C24247084   6.722   5.329   4.973  0.3587 -0.5653 -0.1983
  112MOL   C24347085   6.819   5.673   5.297 -0.4737  0.1345  0.8719
  112MOL   H24447086   6.746   5.785   5.137  0.5877 -3.8128 -2.4970
  112MOL   H24547087   6.924   5.639   4.888 -1.9140  0.1808 -1.9081
  112MOL   H24647088   6.797   5.749   4.929 -1.0632 -0.0963  0.0961
  112MOL   H24747089   7.033   5.472   5.011  0.1398  0.2092 -1.3180
  112MOL   H24847090   7.092   5.252   5.043 -0.0012  1.2327  0.0475
  112MOL   H24947091   6.921   5.056   5.027  0.0564 -0.2164 -0.6580
  112MOL   H25047092   6.680   5.118   4.969 -0.4311  0.3876 -1.6339
  112MOL   H25147093   6.625   5.370   4.949  0.9537  0.9264 -0.0776
  112MOL   H25247094   6.766   5.586   5.258  0.7373  0.3670 -1.3607
  112MOL   H25347095   6.916   5.638   5.332  0.1360 -0.0920 -0.9945
  112MOL   C25447096   6.729   5.734   5.411 -0.3473  0.1387 -0.4031
  112MOL   O25547097   6.815   5.820   5.484 -0.3889 -0.0701  0.2000
  112MOL   C25647098   6.893   5.752   5.583 -0.2596 -0.4602 -1.0016
  112MOL   O25747099   6.827   5.736   5.705 -0.0721  0.7333 -0.5080
  112MOL   C25847100   6.829   5.844   5.793 -0.0326  0.2971 -1.2254
  112MOL   C25947101   6.716   5.865   5.872  0.5559  0.3149 -0.0486
  112MOL   C26047102   6.700   5.991   5.943 -0.4092 -0.2123 -0.5634
  112MOL   C26147103   6.805   6.076   5.965 -0.1611  0.0339 -0.2466
  112MOL   C26247104   6.930   6.040   5.911 -0.2763  0.5826 -0.4430
  112MOL   C26347105   6.941   5.925   5.825  0.2741  0.0958 -0.3649
  112MOL   C26447106   6.604   5.812   5.361 -0.1350  0.4407  0.3897
  112MOL   H26547107   6.686   5.656   5.474 -0.5938 -0.5191 -1.3763
  112MOL   H26647108   6.982   5.815   5.588 -1.3452  1.0479 -0.4668
  112MOL   H26747109   6.927   5.651   5.558  0.3825 -0.4459 -0.2414
  112MOL   H26847110   6.632   5.797   5.868  0.5870  0.2011  0.9467
  112MOL   H26947111   6.604   6.028   5.975 -0.0309  0.3821 -0.1109
  112MOL   H27047112   6.805   6.174   6.011 -2.3943  0.4461 -1.0622
  112MOL   H27147113   7.020   6.097   5.924 -0.2001  0.0772  1.4059
  112MOL   H27247114   7.039   5.913   5.781  0.8750  2.0609  0.3737
  112MOL   H27347115   6.639   5.907   5.320  4.3734 -0.1676  2.5846
  112MOL   H27447116   6.558   5.744   5.289 -1.9360 -1.7945  3.5207
  112MOL   C27547117   6.495   5.849   5.468 -0.1615 -0.0666  0.0957
  112MOL   O27647118   6.403   5.932   5.403 -0.8961  0.2131  0.2684
  112MOL   C27747119   6.412   6.067   5.420 -0.0082 -0.8443  0.4677
  112MOL   O27847120   6.489   6.126   5.324 -0.1652  0.0280 -1.3440
  112MOL   C27947121   6.484   6.270   5.320 -0.7077  0.5613 -0.4046
  112MOL   C28047122   6.536   6.321   5.201  0.2338  0.3303 -0.4826
  112MOL   C28147123   6.551   6.461   5.184 -0.2077  0.1075  0.3309
  112MOL   C28247124   6.501   6.546   5.284 -0.5421 -0.1851 -0.4940
  112MOL   C28347125   6.431   6.499   5.392  0.0068 -0.0003 -0.6463
  112MOL   C28447126   6.430   6.359   5.420 -0.0683  0.3846  0.4829
  112MOL   C28547127   6.420   5.723   5.522  0.3576 -0.5659  0.3804
  112MOL   H28647128   6.530   5.888   5.563  0.5523 -1.2216  0.3213
  112MOL   H28747129   6.443   6.097   5.520  1.3261  0.9419 -0.4720
  112MOL   H28847130   6.311   6.107   5.412 -0.4205 -1.6724  1.3678
  112MOL   H28947131   6.580   6.248   5.135  1.7696 -0.2675  1.1767
  112MOL   H29047132   6.595   6.500   5.094  0.0679 -0.3954  0.2513
  112MOL   H29147133   6.495   6.651   5.259 -1.0910 -0.6883 -2.5713
  112MOL   H29247134   6.402   6.575   5.462 -0.1647 -0.9584  0.3345
  112MOL   H29347135   6.383   6.320   5.509 -0.4551 -0.0759  0.0755
  112MOL   H29447136   6.492   5.673   5.586  0.8261 -2.2212 -1.3910
  112MOL   H29547137   6.401   5.671   5.428  1.5676  2.8065 -1.8291
  112MOL   C29647138   6.284   5.748   5.597 -0.3676  0.8843  0.7036
  112MOL   O29747139   6.222   5.620   5.597  0.2815 -0.0722 -0.5165
  112MOL   C29847140   6.104   5.604   5.517  0.5257  0.3122  0.1554
  112MOL   O29947141   6.141   5.613   5.379 -0.2850  0.1619 -0.2645
  112MOL   C30047142   6.210   5.502   5.322 -0.3041 -0.1158 -0.1665
  112MOL   C30147143   6.249   5.393   5.402  1.1316  0.2312 -0.4118
  112MOL   C30247144   6.293   5.275   5.336  0.0536 -0.1954  0.5512
  112MOL   C30347145   6.339   5.282   5.208  0.5977 -0.2983  0.1318
  112MOL   C30447146   6.322   5.396   5.129  0.8830 -0.0569  0.7485
  112MOL   C30547147   6.250   5.506   5.185 -0.2071  0.4877  0.1811
  112MOL   C30647148   6.297   5.789   5.750 -0.5250 -0.1849  0.1759
  112MOL   H30747149   6.230   5.824   5.540  0.0102 -0.2236 -1.1720
  112MOL   H30847150   6.030   5.682   5.532 -1.4882 -1.3579 -0.8015
  112MOL   H30947151   6.053   5.511   5.545  0.8481  0.1895  0.3483
  112MOL   H31047152   6.224   5.392   5.507 -1.3517  0.3835 -0.9766
  112MOL   H31147153   6.315   5.178   5.377  1.7749  0.5779  1.5330
  112MOL   H31247154   6.380   5.192   5.164 -1.9708 -0.5591 -1.8705
  112MOL   H31347155   6.345   5.399   5.023 -0.8978 -1.1393  0.3077
  112MOL   H31447156   6.228   5.592   5.123 -2.9953 -0.5657 -0.3637
  112MOL   H31547157   6.381   5.859   5.753  1.8377 -2.9397  0.2207
  112MOL   H31647158   6.338   5.710   5.812  0.3726  0.1777  0.0596
  112MOL   C31747159   6.169   5.838   5.816 -0.1007 -0.0432  0.9139
  112MOL   O31847160   6.205   5.902   5.935  0.1235 -0.0708 -0.3601
  112MOL   C31947161   6.202   6.040   5.936 -0.4704  0.1289 -0.4203
  112MOL   O32047162   6.283   6.092   5.831  0.1377 -0.2378  0.2946
  112MOL   C32147163   6.321   6.228   5.850 -0.3453 -0.0913  0.3096
  112MOL   C32247164   6.284   6.331   5.754 -0.8489  0.3633  0.1101
  112MOL   C32347165   6.333   6.458   5.775 -0.3804  0.1489  0.6849
  112MOL   C32447166   6.418   6.491   5.883  0.0561  0.4724 -0.0956
  112MOL   C32547167   6.455   6.388   5.975  0.2153  0.3201  0.3715
  112MOL   C32647168   6.401   6.260   5.961  0.0905  0.0514 -0.3571
  112MOL   C32747169   6.067   5.729   5.859  0.4217 -0.5112  0.6986
  112MOL   H32847170   6.121   5.914   5.754  0.2114 -2.2718 -2.1411
  112MOL   H32947171   6.233   6.059   6.039  0.1919  2.8213 -1.0925
  112MOL   H33047172   6.101   6.079   5.929  0.0698  1.8519  0.9698
  112MOL   H33147173   6.226   6.308   5.666  0.4160 -0.6264 -0.4750
  112MOL   H33247174   6.299   6.526   5.699 -0.7381 -1.3927 -0.5598
  112MOL   H33347175   6.458   6.590   5.895 -1.1384  0.7773  1.6042
  112MOL   H33447176   6.517   6.410   6.060  0.2120  0.6945  0.2800
  112MOL   H33547177   6.424   6.181   6.030  0.6702 -1.1920 -1.9689
  112MOL   H33647178   6.042   5.661   5.778  2.5193 -2.0331  1.2744
  112MOL   H33747179   6.117   5.672   5.936 -1.1364 -0.3505  1.8502
  112MOL   C33847180   5.927   5.773   5.902 -0.2719  0.0343  0.0769
  112MOL   O33947181   5.828   5.803   5.792 -0.0340  0.1295 -0.6765
  112MOL   C34047182   5.843   5.932   5.738  0.2575  0.0669 -0.5185
  112MOL   O34147183   5.906   5.929   5.616 -0.8998 -0.5438  0.0961
  112MOL   C34247184   5.896   6.043   5.543 -0.4801 -0.1925  0.7581
  112MOL   C34347185   5.969   6.044   5.421  0.5507 -0.4202 -0.1242
  112MOL   C34447186   5.949   6.150   5.331  0.6378 -0.1786  0.3212
  112MOL   C34547187   5.872   6.266   5.375  0.3288  0.0634  0.2293
  112MOL   C34647188   5.806   6.269   5.499  0.2205  0.3934 -0.3579
  112MOL   C34747189   5.820   6.164   5.581 -0.1647  0.0999  0.2081
  112MOL   C34847190   5.849   5.672   5.986 -0.2400  0.4715  0.5607
  112MOL   H34947191   5.960   5.851   5.971 -0.7636  0.6803 -0.4139
  112MOL   H35047192   5.871   6.003   5.815 -0.1996 -1.3999  1.0417
  112MOL   H35147193   5.736   5.950   5.728 -0.1425 -2.7463 -1.8803
  112MOL   H35247194   6.020   5.953   5.392  1.7880  1.1843 -3.2193
  112MOL   H35347195   5.982   6.141   5.229  0.9400  0.0026  0.4019
  112MOL   H35447196   5.871   6.343   5.300 -1.1299 -1.2868 -1.1871
  112MOL   H35547197   5.730   6.344   5.515  0.1138 -0.0964  1.5258
  112MOL   H35647198   5.769   6.187   5.674 -1.5422  1.2032 -0.7937
  112MOL   H35747199   5.925   5.619   6.044  0.0561 -0.5771 -0.7744
  112MOL   H35847200   5.817   5.594   5.918  2.4664  0.7001 -1.0620
  112MOL   C35947201   5.726   5.732   6.066  0.0027  0.5164 -0.1243
  112MOL   O36047202   5.775   5.827   6.160  0.1193  0.8867  0.3730
  112MOL   C36147203   5.698   5.946   6.170  0.2378 -0.2785  0.0609
  112MOL   O36247204   5.755   6.045   6.082 -0.4308 -0.1219  0.1993
  112MOL   C36347205   5.856   6.125   6.132 -0.3642  0.6109  0.1150
  112MOL   C36447206   5.882   6.241   6.054  0.3654  0.6673  0.3983
  112MOL   C36547207   5.972   6.336   6.103 -0.1293 -0.2898 -0.4109
  112MOL   C36647208   6.046   6.314   6.224 -0.1788  0.1267 -1.1063
  112MOL   C36747209   6.033   6.191   6.287 -0.0972  0.2513  0.3169
  112MOL   C36847210   5.926   6.100   6.249 -0.1418  0.0872  1.1074
  112MOL   C36947211   5.639   5.625   6.133 -0.8289 -0.5389  0.8184
  112MOL   H37047212   5.677   5.783   5.984 -2.0037 -2.2041 -0.6791
  112MOL   H37147213   5.697   5.981   6.273 -1.1548  2.9994 -0.9946
  112MOL   H37247214   5.598   5.933   6.129 -1.0716  0.2257  3.0152
  112MOL   H37347215   5.815   6.257   5.970  0.5322 -0.6390  0.0149
  112MOL   H37447216   5.984   6.427   6.047 -2.2556  0.2214 -0.0878
  112MOL   H37547217   6.126   6.379   6.255  1.3976 -2.1196 -0.3443
  112MOL   H37647218   6.103   6.172   6.367  0.1204  3.0734  0.8296
  112MOL   H37747219   5.909   6.013   6.310 -2.1800 -0.0093  0.4318
  112MOL   H37847220   5.601   5.668   6.226  1.7134  1.6512  0.8986
  112MOL   H37947221   5.691   5.539   6.175  0.6498 -0.6513 -1.1909
  112MOL   C38047222   5.524   5.571   6.042  0.5300  0.4707  0.2662
  112MOL   O38147223   5.458   5.685   5.983  0.0098  0.9346  0.3607
  112MOL   C38247224   5.395   5.668   5.858  0.3849  0.6890 -0.1061
  112MOL   O38347225   5.286   5.764   5.834 -0.0985  0.0277 -0.9741
  112MOL   C38447226   5.324   5.894   5.821 -0.2095 -0.5325 -0.3778
  112MOL   C38547227   5.212   5.979   5.804 -0.1811  0.5696  0.1757
  112MOL   C38647228   5.226   6.117   5.800  0.1198 -0.4391 -0.7391
  112MOL   C38747229   5.358   6.174   5.826 -0.2319 -0.3739 -0.2489
  112MOL   C38847230   5.470   6.099   5.838 -0.8263  0.1341  0.2707
  112MOL   C38947231   5.449   5.961   5.835 -0.8256 -0.7814  0.1144
  112MOL   C39047232   5.414   5.490   6.118 -0.3063  0.0431  0.4422
  112MOL   H39147233   5.583   5.516   5.968  2.3963  1.3143  1.0923
  112MOL   H39247234   5.457   5.664   5.768 -0.2730 -0.9369 -0.4994
  112MOL   H39347235   5.345   5.572   5.862  0.7613  0.3982 -1.8492
  112MOL   H39447236   5.112   5.941   5.787  0.2454 -0.6721  0.4576
  112MOL   H39547237   5.145   6.188   5.789  0.8369  0.6926  0.9828
  112MOL   H39647238   5.368   6.282   5.824  1.0537 -0.4552  1.0007
  112MOL   H39747239   5.566   6.147   5.847 -1.4715  1.4828  0.0353
  112MOL   H39847240   5.534   5.894   5.842 -1.1284 -1.2661 -0.7963
  112MOL   H39947241   5.338   5.453   6.049  0.0051  0.4720 -0.1385
  112MOL   H40047242   5.366   5.569   6.175  0.8234  0.8298  0.3235
  112MOL   C40147243   5.456   5.380   6.216  0.0967 -0.2699  0.0240
  112MOL   O40247244   5.479   5.427   6.345  0.3514  0.4090 -0.2334
  112MOL   C40347245   5.568   5.356   6.425 -0.4688 -0.4476 -0.1275
  112MOL   O40447246   5.706   5.386   6.406  0.1644  0.0669 -0.2519
  112MOL   C40547247   5.759   5.507   6.445  0.3489 -0.3034  0.7831
  112MOL   C40647248   5.674   5.612   6.491 -0.1201 -0.7533  0.3287
  112MOL   C40747249   5.731   5.733   6.539 -0.0244  0.3267 -0.6164
  112MOL   C40847250   5.869   5.751   6.530  0.6775 -0.4651 -0.2342
  112MOL   C40947251   5.950   5.639   6.491  0.4282  0.1241 -0.0411
  112MOL   C41047252   5.898   5.522   6.440 -0.1381  0.4029 -0.3146
  112MOL   C41147253   5.342   5.272   6.215 -0.1612 -0.0464  0.0484
  112MOL   H41247254   5.554   5.347   6.182 -0.5279 -0.2731 -1.8001
  112MOL   H41347255   5.549   5.250   6.414  1.8280 -0.8001 -1.1328
  112MOL   H41447256   5.541   5.393   6.524  1.1210  3.2890 -0.9656
  112MOL   H41547257   5.566   5.611   6.495 -0.1831  0.1516 -0.8557
  112MOL   H41647258   5.669   5.812   6.578 -0.1872  0.4027 -1.0228
  112MOL   H41747259   5.926   5.824   6.586  0.8743 -1.2147  0.5557
  112MOL   H41847260   6.058   5.651   6.495  0.3137  1.2450  0.0477
  112MOL   H41947261   5.967   5.445   6.410  0.9253 -0.2510  3.4899
  112MOL   H42047262   5.369   5.186   6.276 -0.9532 -1.0781 -1.0252
  112MOL   H42147263   5.349   5.240   6.111  0.7367 -1.5816  0.5631
  112MOL   H42247264   5.240   5.302   6.240 -0.1514  0.7865 -0.8621
  113MOL     C147265   3.188   2.520   5.767  0.1414 -0.3526  1.1274
  113MOL     O247266   3.303   2.560   5.687  0.0042 -0.2662 -0.3420
  113MOL     C347267   3.270   2.650   5.590 -0.1096  0.0193  0.0861
  113MOL     O447268   3.207   2.764   5.639 -0.1802  0.2309 -0.0620
  113MOL     C547269   3.284   2.848   5.714  0.5818 -0.3726  0.5198
  113MOL     C647270   3.217   2.966   5.758 -0.2591 -0.1554  0.5331
  113MOL     C747271   3.277   3.061   5.843  0.3498  0.6101 -0.3198
  113MOL     C847272   3.413   3.047   5.876 -0.5767  0.1632  0.0509
  113MOL     C947273   3.481   2.927   5.837 -0.5047  0.3360  0.4977
  113MOL    C1047274   3.417   2.831   5.757 -0.1022  0.7359  0.1495
  113MOL    C1147275   3.255   2.464   5.897  0.6708  0.5314 -0.0456
  113MOL    H1247276   3.121   2.603   5.790 -0.6412 -0.1881 -1.5611
  113MOL    H1347277   3.358   2.692   5.540 -0.1088 -1.5549 -1.2674
  113MOL    H1447278   3.202   2.604   5.519 -0.8865  1.0417  0.1635
  113MOL    H1547279   3.117   2.986   5.723  0.1315 -0.5513 -0.8329
  113MOL    H1647280   3.219   3.150   5.861 -0.7259 -0.1973  0.3126
  113MOL    H1747281   3.462   3.130   5.927  0.4544 -1.5868  1.9856
  113MOL    H1847282   3.580   2.915   5.879 -0.7344 -2.2661  0.3635
  113MOL    H1947283   3.473   2.741   5.737  3.6686  2.7521  0.9753
  113MOL    H2047284   3.347   2.517   5.922  1.4444 -1.3841  1.2113
  113MOL    H2147285   3.283   2.360   5.883 -1.9490 -0.0183 -1.7120
  113MOL    H2247286   3.137   2.444   5.708  1.0636  0.9374 -1.4233
  113MOL    C2347287   3.163   2.454   6.019 -0.2344 -0.2416  0.0168
  113MOL    O2447288   3.172   2.597   6.058  1.1398  0.0673 -0.3605
  113MOL    C2547289   3.070   2.639   6.142 -0.3332  0.0211 -0.8168
  113MOL    O2647290   2.937   2.597   6.103 -0.5579 -0.6554 -0.4227
  113MOL    C2747291   2.881   2.658   5.997  0.7563 -1.4833 -0.4716
  113MOL    C2847292   2.946   2.760   5.924 -0.0506 -0.5777  0.2300
  113MOL    C2947293   2.876   2.829   5.822  0.3577 -0.3645  0.1694
  113MOL    C3047294   2.746   2.794   5.781 -0.0848 -0.0884 -0.0271
  113MOL    C3147295   2.695   2.681   5.846  0.0449  0.5448 -0.2154
  113MOL    C3247296   2.758   2.616   5.954  0.4440 -0.5029  0.5571
  113MOL    C3347297   3.217   2.356   6.131  0.5256  0.4760 -0.4081
  113MOL    H3447298   3.062   2.426   5.989 -0.2376  0.3239 -0.5158
  113MOL    H3547299   3.075   2.748   6.142 -0.1578  0.0140 -0.7255
  113MOL    H3647300   3.096   2.603   6.242  2.6255 -0.5902 -1.7454
  113MOL    H3747301   3.048   2.789   5.947  0.2731 -2.3930  1.1710
  113MOL    H3847302   2.919   2.914   5.772  0.2230  0.0577  0.7698
  113MOL    H3947303   2.694   2.848   5.703  3.4792  1.3910 -1.4949
  113MOL    H4047304   2.602   2.637   5.813 -0.4290 -0.1382  1.9548
  113MOL    H4147305   2.713   2.529   6.002 -1.3892  0.5917  0.9017
  113MOL    H4247306   3.208   2.412   6.224 -0.7725  1.9713 -1.3946
  113MOL    H4347307   3.320   2.324   6.121  0.4926  0.3155 -0.2432
  113MOL    C4447308   3.118   2.234   6.151  0.3059 -1.2232  0.0126
  113MOL    O4547309   3.168   2.158   6.258 -0.2495 -0.2053 -0.2269
  113MOL    C4647310   3.083   2.148   6.372  0.3133  0.6932  0.1962
  113MOL    O4747311   3.055   2.275   6.415  0.0402 -0.3167 -0.1638
  113MOL    C4847312   3.157   2.335   6.486  0.1330 -0.3834  0.7599
  113MOL    C4947313   3.125   2.452   6.548 -0.4645 -0.1504  0.2408
  113MOL    C5047314   3.213   2.505   6.642  0.0243  0.1420 -0.2328
  113MOL    C5147315   3.338   2.457   6.664 -0.6119  0.3594  0.0714
  113MOL    C5247316   3.375   2.337   6.594  0.4022  0.1112 -0.5806
  113MOL    C5347317   3.286   2.278   6.508 -0.0890 -0.3721 -0.1060
  113MOL    C5447318   3.098   2.145   6.022  0.4080  0.6554  0.1590
  113MOL    H5547319   3.017   2.272   6.167 -0.0063 -1.1965 -1.8424
  113MOL    H5647320   3.122   2.082   6.449 -0.4506  0.0479  0.0404
  113MOL    H5747321   2.992   2.093   6.346  0.9362  0.3344 -1.2242
  113MOL    H5847322   3.030   2.498   6.526 -1.6058 -3.4977 -2.3073
  113MOL    H5947323   3.187   2.599   6.690 -0.7256 -0.1956  0.0342
  113MOL    H6047324   3.401   2.501   6.740 -0.6545 -0.8136  0.8067
  113MOL    H6147325   3.467   2.285   6.617 -0.1847 -0.8862 -0.4606
  113MOL    H6247326   3.313   2.179   6.476  0.3582 -1.1860  2.6911
  113MOL    H6347327   3.093   2.201   5.928  6.1588  0.0824 -0.6856
  113MOL    H6447328   3.182   2.075   6.019 -0.4982 -0.5314  2.0658
  113MOL    C6547329   2.969   2.060   6.031  0.6384  0.6065  0.8128
  113MOL    O6647330   2.852   2.148   6.021  0.2686 -0.3950  0.0951
  113MOL    C6747331   2.768   2.140   6.129  0.2547 -0.0901 -0.0684
  113MOL    O6847332   2.657   2.223   6.116 -0.3425 -0.0004  0.0898
  113MOL    C6947333   2.560   2.212   6.216 -0.3097  0.5921 -0.4107
  113MOL    C7047334   2.432   2.267   6.191  0.0243 -0.1852  0.6073
  113MOL    C7147335   2.335   2.267   6.287  0.2148  0.5892 -1.0067
  113MOL    C7247336   2.352   2.198   6.404  0.0745  0.9777  0.2129
  113MOL    C7347337   2.471   2.131   6.428  0.6411  0.6344 -0.2821
  113MOL    C7447338   2.574   2.137   6.340  0.6768  0.1222 -0.2656
  113MOL    C7547339   2.948   1.956   5.914 -0.5707  0.6368  0.1593
  113MOL    H7647340   2.977   2.003   6.124 -0.0133  0.0327  0.5179
  113MOL    H7747341   2.815   2.171   6.222 -2.6639  2.9398  0.5014
  113MOL    H7847342   2.740   2.035   6.137  0.7884 -0.2148  0.1848
  113MOL    H7947343   2.422   2.313   6.094 -1.4642  0.2968  0.9775
  113MOL    H8047344   2.243   2.320   6.270  0.1827  0.4434 -1.3042
  113MOL    H8147345   2.273   2.203   6.477  0.5807  0.9561  0.7607
  113MOL    H8247346   2.487   2.073   6.517 -1.1214  1.5504  0.6531
  113MOL    H8347347   2.658   2.074   6.365 -0.0625 -0.9196 -0.3264
  113MOL    H8447348   2.843   1.926   5.920 -0.0255 -1.1562  1.1202
  113MOL    H8547349   2.959   2.006   5.818  0.0948  0.3712  0.0929
  113MOL    C8647350   3.042   1.833   5.915 -0.1838  0.8912 -0.1094
  113MOL    O8747351   3.020   1.775   6.044  0.5202  0.1746 -0.1478
  113MOL    C8847352   3.130   1.750   6.117 -0.4089 -0.1095  0.4407
  113MOL    O8947353   3.201   1.868   6.147  0.3047  0.1225 -0.2797
  113MOL    C9047354   3.276   1.868   6.265  0.5828  0.3396  0.3146
  113MOL    C9147355   3.255   1.789   6.379  0.2599  0.2813 -0.0661
  113MOL    C9247356   3.325   1.800   6.498  0.0939  0.0293 -0.0497
  113MOL    C9347357   3.432   1.896   6.499  0.0679 -0.0219 -0.0897
  113MOL    C9447358   3.458   1.983   6.389  0.3187 -0.5354  0.2832
  113MOL    C9547359   3.380   1.968   6.273 -0.0448 -0.4733  1.2672
  113MOL    C9647360   3.017   1.728   5.801  0.6007 -0.5539 -0.3293
  113MOL    H9747361   3.145   1.866   5.906  1.2523 -2.3725  3.0625
  113MOL    H9847362   3.192   1.674   6.070 -1.3854  0.6632 -2.1618
  113MOL    H9947363   3.095   1.707   6.211 -0.5957  0.5202  0.6642
  113MOL   H10047364   3.172   1.721   6.390  1.9912 -1.6312  1.6451
  113MOL   H10147365   3.307   1.740   6.586  0.4675  1.8987  1.3311
  113MOL   H10247366   3.481   1.884   6.595 -1.2128 -1.3131  0.4436
  113MOL   H10347367   3.538   2.054   6.404 -0.8306  0.8316  0.1045
  113MOL   H10447368   3.387   2.033   6.187  0.6698 -1.9219  0.2058
  113MOL   H10547369   3.070   1.634   5.819  0.6202 -0.1721  1.7140
  113MOL   H10647370   2.913   1.696   5.810  0.3126  0.0199 -1.5986
  113MOL   C10747371   3.048   1.766   5.656 -0.4550 -0.0266 -0.1692
  113MOL   O10847372   3.187   1.755   5.650  0.0815 -0.3513 -0.6035
  113MOL   C10947373   3.247   1.861   5.576  1.2751 -0.3891  0.3850
  113MOL   O11047374   3.235   1.984   5.645  0.7361 -0.4629 -0.3223
  113MOL   C11147375   3.341   2.011   5.728  0.3010  0.4196 -0.2219
  113MOL   C11247376   3.413   1.903   5.795 -0.3939  0.2337 -0.2381
  113MOL   C11347377   3.507   1.945   5.893  0.9284  0.1404 -0.5783
  113MOL   C11447378   3.532   2.081   5.922  0.4588 -0.0264 -0.0022
  113MOL   C11547379   3.466   2.181   5.847  0.2284 -0.4793 -0.3803
  113MOL   C11647380   3.369   2.149   5.759  0.3772  0.4508 -0.4221
  113MOL   C11747381   2.993   1.656   5.562 -0.1621 -0.2800  0.5788
  113MOL   H11847382   3.000   1.863   5.637  0.9857  0.9959  1.2928
  113MOL   H11947383   3.192   1.865   5.482 -1.0367  1.9689  1.7692
  113MOL   H12047384   3.351   1.841   5.553  1.5450  0.1006  1.1709
  113MOL   H12147385   3.393   1.797   5.788 -1.2941  0.3595  0.3517
  113MOL   H12247386   3.564   1.869   5.945 -1.3676 -1.7548 -0.7255
  113MOL   H12347387   3.610   2.113   5.990 -0.2385 -2.5305  2.0578
  113MOL   H12447388   3.478   2.287   5.863 -1.7250  0.4545 -4.4185
  113MOL   H12547389   3.305   2.221   5.710 -0.3014 -1.4223 -2.3494
  113MOL   H12647390   2.980   1.570   5.627 -1.0439  0.4782  1.4082
  113MOL   H12747391   3.068   1.625   5.489 -0.0327 -1.0581  1.0424
  113MOL   C12847392   2.854   1.686   5.492  0.8764  0.0823 -0.7509
  113MOL   O12947393   2.765   1.685   5.598 -0.0592  0.5361 -0.0080
  113MOL   C13047394   2.650   1.768   5.599 -0.1876 -0.0174 -0.5669
  113MOL   O13147395   2.677   1.897   5.636  0.5114  0.0840 -0.0371
  113MOL   C13247396   2.572   1.977   5.670  0.4363 -0.2691  0.1074
  113MOL   C13347397   2.438   1.938   5.643  0.7599  0.5903 -0.0322
  113MOL   C13447398   2.332   2.032   5.666 -0.4576  0.4783 -0.0891
  113MOL   C13547399   2.361   2.160   5.725  0.0401 -0.3650  0.7112
  113MOL   C13647400   2.495   2.197   5.753  0.6655 -0.3493  0.9152
  113MOL   C13747401   2.603   2.105   5.720  0.6975 -0.5592 -0.8220
  113MOL   C13847402   2.811   1.591   5.373  0.2358  0.4829 -0.3534
  113MOL   H13947403   2.858   1.789   5.458  0.8121  0.5346  0.5995
  113MOL   H14047404   2.589   1.705   5.663  0.1911 -0.7677 -0.9247
  113MOL   H14147405   2.611   1.769   5.497  0.4132  3.7045 -0.8236
  113MOL   H14247406   2.404   1.849   5.592 -1.1503  1.3639 -0.1346
  113MOL   H14347407   2.229   2.006   5.645 -0.8653  0.2977  2.0335
  113MOL   H14447408   2.278   2.229   5.735 -1.0770 -1.7988  1.5195
  113MOL   H14547409   2.519   2.288   5.806  1.4499 -0.0216  0.0083
  113MOL   H14647410   2.707   2.129   5.739  0.4118 -0.4455  0.6749
  113MOL   H14747411   2.823   1.485   5.395  3.6488  0.8944  0.0631
  113MOL   H14847412   2.710   1.624   5.347 -0.0435  0.8978  1.1830
  113MOL   C14947413   2.891   1.601   5.245 -0.0393 -0.1563 -0.0504
  113MOL   O15047414   2.876   1.481   5.174  0.5173 -0.3345  0.4061
  113MOL   C15147415   2.985   1.441   5.101  0.2123 -0.7580 -0.6448
  113MOL   O15247416   2.957   1.314   5.046 -0.5403  0.1196  0.4143
  113MOL   C15347417   2.956   1.202   5.126 -0.7467 -0.4673 -0.3133
  113MOL   C15447418   2.988   1.198   5.263  0.1519  0.0128 -0.1948
  113MOL   C15547419   2.991   1.073   5.337 -0.2337  0.2011  0.0017
  113MOL   C15647420   2.975   0.952   5.265 -0.4139  0.6225  0.0339
  113MOL   C15747421   2.949   0.959   5.128 -0.2502  0.1366  0.4237
  113MOL   C15847422   2.937   1.080   5.059  0.9019 -0.5494 -0.5128
  113MOL   C15947423   2.852   1.721   5.151  0.5981  0.1799 -0.7581
  113MOL   H16047424   2.995   1.618   5.272  0.3473  0.8854 -2.0236
  113MOL   H16147425   3.013   1.515   5.025 -0.9485  2.6759  2.1051
  113MOL   H16247426   3.074   1.434   5.163  0.2108  0.7889 -0.4424
  113MOL   H16347427   2.997   1.294   5.312  1.0376 -0.4582  0.5828
  113MOL   H16447428   3.021   1.069   5.440  0.8797 -0.5125 -0.3342
  113MOL   H16547429   2.985   0.854   5.311 -0.7578  0.9721  0.8517
  113MOL   H16647430   2.922   0.866   5.081 -1.3299 -0.1442  1.5789
  113MOL   H16747431   2.905   1.074   4.956 -1.5111 -0.3106  0.2041
  113MOL   H16847432   2.784   1.791   5.199 -0.3602 -0.6326 -0.9075
  113MOL   H16947433   2.776   1.684   5.083 -1.9213  0.2876  1.9114
  113MOL   C17047434   2.973   1.795   5.092  1.1117  0.6792 -0.1407
  113MOL   O17147435   2.943   1.858   4.967  0.8479  1.2690 -0.7977
  113MOL   C17247436   2.970   1.782   4.854 -0.4883  0.2638  0.3808
  113MOL   O17347437   2.899   1.666   4.839  0.0110  0.4339  0.3661
  113MOL   C17447438   2.942   1.563   4.751  0.2151  0.2927 -0.1647
  113MOL   C17547439   2.901   1.432   4.785 -0.0249  0.3940  0.1742
  113MOL   C17647440   2.941   1.323   4.700 -0.6248 -0.1488 -0.2825
  113MOL   C17747441   3.013   1.347   4.587 -0.6012 -0.0966  1.0215
  113MOL   C17847442   3.046   1.480   4.549 -0.0483  0.0500 -0.1513
  113MOL   C17947443   3.013   1.588   4.639  0.4010  0.6476 -0.6798
  113MOL   C18047444   3.036   1.896   5.188  0.7163  0.8186  0.9888
  113MOL   H18147445   3.041   1.714   5.066 -0.8982 -1.2129  0.3410
  113MOL   H18247446   3.078   1.763   4.852 -0.4212  0.7028 -0.8902
  113MOL   H18347447   2.956   1.846   4.766  0.0403 -2.6633 -1.9300
  113MOL   H18447448   2.837   1.424   4.871  1.2532  0.6335  1.1588
  113MOL   H18547449   2.923   1.218   4.716  0.8852 -0.3391  0.1953
  113MOL   H18647450   3.048   1.274   4.515  0.5726  0.4292  1.0557
  113MOL   H18747451   3.105   1.500   4.460  0.1360 -1.7678 -0.4516
  113MOL   H18847452   3.049   1.687   4.617  0.2723  0.6460 -0.9035
  113MOL   H18947453   2.955   1.962   5.219 -1.6844 -1.1407 -0.8537
  113MOL   H19047454   3.065   1.856   5.285  3.3698 -0.9345 -0.4683
  113MOL   C19147455   3.160   1.986   5.132  0.1241  0.4319  0.5258
  113MOL   O19247456   3.287   1.928   5.125  0.2805 -0.0207 -0.0324
  113MOL   C19347457   3.295   1.793   5.084  0.6228 -0.5398  0.6773
  113MOL   O19447458   3.254   1.699   5.180 -0.5249 -0.2741 -1.0501
  113MOL   C19547459   3.344   1.670   5.286  0.0976 -0.1746 -0.6525
  113MOL   C19647460   3.464   1.744   5.321  0.0344 -0.2989 -0.1043
  113MOL   C19747461   3.540   1.710   5.430 -0.1764 -0.2980 -0.4971
  113MOL   C19847462   3.507   1.592   5.500  0.1260  0.2059  0.3630
  113MOL   C19947463   3.396   1.514   5.464 -0.1548  0.4755  0.4079
  113MOL   C20047464   3.309   1.556   5.361  0.1286  0.2044  0.1202
  113MOL   C20147465   3.177   2.122   5.218 -0.2381 -0.2727 -0.7920
  113MOL   H20247466   3.147   2.021   5.029  0.3853 -1.9409 -0.3404
  113MOL   H20347467   3.401   1.776   5.070  0.7348  0.2270  0.5830
  113MOL   H20447468   3.248   1.764   4.989  1.2772 -1.4536  0.6249
  113MOL   H20547469   3.492   1.838   5.276  0.1409 -0.5584 -0.5823
  113MOL   H20647470   3.631   1.765   5.447 -0.7610 -0.1901  2.4722
  113MOL   H20747471   3.576   1.560   5.577 -0.8794  0.3383  1.3479
  113MOL   H20847472   3.368   1.420   5.510  4.0214 -1.1112 -0.1335
  113MOL   H20947473   3.220   1.500   5.336  0.1995  0.2836 -0.3066
  113MOL   H21047474   3.082   2.166   5.251  0.0797 -1.5275  2.0034
  113MOL   H21147475   3.224   2.080   5.307  0.3088  0.3011 -0.8044
  113MOL   C21247476   3.269   2.234   5.166 -0.0792 -0.4337 -0.1032
  113MOL   O21347477   3.194   2.339   5.094 -0.4871 -0.1237  0.0200
  113MOL   C21447478   3.155   2.307   4.969  0.2118  0.1279 -1.0086
  113MOL   O21547479   3.265   2.296   4.880 -0.1621 -0.7421  0.0006
  113MOL   C21647480   3.339   2.413   4.872 -0.1676 -0.1979 -0.4809
  113MOL   C21747481   3.311   2.544   4.919 -0.2970  0.2760  0.2974
  113MOL   C21847482   3.410   2.648   4.904 -0.2974  0.1166  0.3352
  113MOL   C21947483   3.531   2.622   4.838  0.2604 -0.6131  0.2807
  113MOL   C22047484   3.555   2.489   4.783  0.2628 -0.4532  0.2616
  113MOL   C22147485   3.466   2.387   4.807  0.0869 -0.0053 -0.7714
  113MOL   C22247486   3.340   2.321   5.271 -0.0575 -0.4187 -0.3460
  113MOL   H22347487   3.337   2.187   5.096  0.6853  0.3830  0.0861
  113MOL   H22447488   3.098   2.393   4.937 -0.5730  0.0898  0.2753
  113MOL   H22547489   3.087   2.222   4.969 -1.5995  1.4986  2.8324
  113MOL   H22647490   3.216   2.563   4.967 -0.6285  1.2776 -0.7314
  113MOL   H22747491   3.391   2.746   4.943  1.8272  1.2424 -1.3628
  113MOL   H22847492   3.602   2.703   4.824 -0.7916  0.5419  1.5492
  113MOL   H22947493   3.642   2.454   4.730 -0.7771 -1.8609 -0.5324
  113MOL   H23047494   3.490   2.286   4.775 -3.5286 -0.9446 -0.8241
  113MOL   H23147495   3.370   2.412   5.218  3.0246 -1.0446  0.2254
  113MOL   H23247496   3.268   2.351   5.347  2.5439  2.5504  1.0552
  113MOL   C23347497   3.465   2.250   5.332  0.5308  0.3567  0.3226
  113MOL   O23447498   3.560   2.235   5.229  0.1686  0.3119 -0.5661
  113MOL   C23547499   3.633   2.117   5.233 -0.3303  0.2240 -0.2181
  113MOL   O23647500   3.749   2.123   5.303 -0.1855 -0.0289 -0.2132
  113MOL   C23747501   3.836   2.012   5.307 -0.4814  0.5015 -0.5221
  113MOL   C23847502   3.805   1.890   5.238 -0.3294 -0.4753 -0.3582
  113MOL   C23947503   3.892   1.779   5.240 -0.2239  0.2427  0.7045
  113MOL   C24047504   4.019   1.800   5.310 -0.1933 -0.3908  0.8037
  113MOL   C24147505   4.050   1.920   5.385 -0.0024 -0.3375  0.1762
  113MOL   C24247506   3.958   2.027   5.378  0.2510 -0.7738 -0.2236
  113MOL   C24347507   3.532   2.312   5.455  0.3013  0.3174 -0.1794
  113MOL   H24447508   3.428   2.154   5.367 -0.8116  0.0667 -1.7814
  113MOL   H24547509   3.647   2.090   5.128  2.2714  0.5607  0.0202
  113MOL   H24647510   3.573   2.034   5.271 -0.1584 -0.9812 -2.4721
  113MOL   H24747511   3.711   1.878   5.187 -0.5098  1.0285 -0.4040
  113MOL   H24847512   3.867   1.683   5.199  1.6034  0.4193 -0.9176
  113MOL   H24947513   4.089   1.718   5.321 -0.0069 -0.7290 -2.5640
  113MOL   H25047514   4.150   1.933   5.425  0.2890  0.1899 -0.7109
  113MOL   H25147515   3.973   2.127   5.413 -0.6997 -0.9143  0.5853
  113MOL   H25247516   3.447   2.353   5.509  0.9506  1.7296 -0.2021
  113MOL   H25347517   3.580   2.233   5.512 -2.6367 -0.9571  0.6204
  113MOL   C25447518   3.627   2.426   5.423  0.5055 -0.0032  0.0185
  113MOL   O25547519   3.546   2.536   5.386  0.0848  0.4580 -0.2936
  113MOL   C25647520   3.568   2.597   5.262 -0.3910 -0.3565 -0.5495
  113MOL   O25747521   3.688   2.671   5.248  0.1952  0.3747  0.0950
  113MOL   C25847522   3.700   2.792   5.315  0.4463 -0.2047 -0.3074
  113MOL   C25947523   3.818   2.869   5.298  0.1036 -0.7281 -0.0869
  113MOL   C26047524   3.841   2.979   5.374 -0.0355  0.6435  0.5327
  113MOL   C26147525   3.748   3.019   5.473  0.3926 -0.2354  0.0033
  113MOL   C26247526   3.631   2.949   5.499  0.4923  0.7144  0.7936
  113MOL   C26347527   3.608   2.837   5.417  0.5135 -0.2787  0.4393
  113MOL   C26447528   3.709   2.478   5.550  0.0644  0.2693  0.1256
  113MOL   H26547529   3.701   2.409   5.344  0.7263  1.5422 -0.1381
  113MOL   H26647530   3.482   2.663   5.252 -0.1558  0.1295  0.4988
  113MOL   H26747531   3.563   2.529   5.178 -2.3981 -0.5687 -0.2752
  113MOL   H26847532   3.890   2.849   5.221 -0.2214  0.0066 -0.5909
  113MOL   H26947533   3.926   3.036   5.340 -2.1652  2.9722 -1.0634
  113MOL   H27047534   3.769   3.109   5.528 -1.4542  0.0426  0.3015
  113MOL   H27147535   3.569   2.977   5.583  1.1522  1.5469  1.0056
  113MOL   H27247536   3.510   2.793   5.428  1.2484 -1.7001  1.4368
  113MOL   H27347537   3.665   2.570   5.589 -0.5961  1.0027 -2.2423
  113MOL   H27447538   3.707   2.411   5.636 -1.1304 -1.6970 -1.3927
  113MOL   C27547539   3.857   2.526   5.519  0.4167  0.1060  0.0734
  113MOL   O27647540   3.917   2.565   5.639  0.3096 -0.1785  0.1595
  113MOL   C27747541   3.880   2.687   5.704  0.3499 -0.5829 -0.1545
  113MOL   O27847542   3.768   2.679   5.782 -0.3091  0.3569 -0.3660
  113MOL   C27947543   3.763   2.588   5.889  0.4194 -0.8602 -0.8948
  113MOL   C28047544   3.867   2.501   5.927 -0.0280  0.5721 -0.4475
  113MOL   C28147545   3.849   2.398   6.020  0.3443 -0.8604 -0.1652
  113MOL   C28247546   3.724   2.383   6.083 -0.5973  0.0509  0.9270
  113MOL   C28347547   3.626   2.477   6.057 -0.7420  0.3027  0.2825
  113MOL   C28447548   3.644   2.585   5.969 -0.1940 -0.3555 -0.2895
  113MOL   C28547549   3.955   2.418   5.464  0.8074 -0.1374 -0.1151
  113MOL   H28647550   3.844   2.609   5.449 -0.0172 -0.1206 -0.1175
  113MOL   H28747551   3.851   2.768   5.636  2.1214  0.0087 -0.2106
  113MOL   H28847552   3.969   2.731   5.749 -0.1747 -0.3671  0.6812
  113MOL   H28947553   3.963   2.504   5.878  0.9845 -5.5506  0.7638
  113MOL   H29047554   3.937   2.343   6.050  0.0780 -1.8497 -1.1561
  113MOL   H29147555   3.715   2.300   6.152 -0.2067  0.1149  1.0546
  113MOL   H29247556   3.528   2.461   6.100 -0.4364 -0.8544  0.5440
  113MOL   H29347557   3.562   2.653   5.951  0.6283  0.1264 -2.3061
  113MOL   H29447558   3.914   2.356   5.384 -0.6188  0.4490  0.1549
  113MOL   H29547559   3.959   2.346   5.546  0.5509  0.1224  0.1233
  113MOL   C29647560   4.101   2.469   5.421  0.2440  0.7494 -0.3673
  113MOL   O29747561   4.182   2.356   5.394  0.1910  0.0690  0.0530
  113MOL   C29847562   4.235   2.309   5.519 -0.2654  0.4904  0.4543
  113MOL   O29947563   4.260   2.176   5.528 -0.2971 -0.1230  0.6419
  113MOL   C30047564   4.386   2.139   5.497 -0.5921  0.9116  0.2444
  113MOL   C30147565   4.447   2.173   5.375  0.0832 -0.2292  0.2337
  113MOL   C30247566   4.579   2.139   5.339  0.4222 -0.3634  0.2267
  113MOL   C30347567   4.657   2.072   5.431  0.1070  0.4061 -0.3121
  113MOL   C30447568   4.602   2.035   5.555 -0.0022  0.3535  0.2197
  113MOL   C30547569   4.466   2.064   5.586  0.1874  0.1826  0.0112
  113MOL   C30647570   4.100   2.552   5.292  0.3613  0.3553  0.4569
  113MOL   H30747571   4.128   2.531   5.506 -1.4291  0.2774  0.5118
  113MOL   H30847572   4.180   2.332   5.611  0.0264  2.2254  0.2213
  113MOL   H30947573   4.320   2.374   5.542  1.7080 -0.8885 -2.6981
  113MOL   H31047574   4.385   2.225   5.304 -0.0375 -1.8751 -0.8742
  113MOL   H31147575   4.615   2.175   5.244 -1.0890  1.2306  0.2311
  113MOL   H31247576   4.763   2.055   5.415  0.0251  0.0855 -0.5068
  113MOL   H31347577   4.646   1.988   5.642  0.6634  1.4139  0.4804
  113MOL   H31447578   4.414   2.032   5.676  0.4041  3.6679  1.4547
  113MOL   H31547579   4.015   2.619   5.282  0.1087 -0.1917 -1.2785
  113MOL   H31647580   4.098   2.480   5.210 -0.5129  1.7663 -0.7773
  113MOL   C31747581   4.214   2.657   5.261  0.8869 -0.2486  0.7672
  113MOL   O31847582   4.341   2.601   5.280  0.0591  0.5584  0.1649
  113MOL   C31947583   4.380   2.518   5.176  0.0714 -0.4690  0.0269
  113MOL   O32047584   4.512   2.476   5.197 -0.3267 -0.2515  0.2577
  113MOL   C32147585   4.593   2.421   5.101  0.5046  0.3542  0.3870
  113MOL   C32247586   4.728   2.437   5.115  0.4375 -0.1553 -0.9076
  113MOL   C32347587   4.816   2.389   5.015  0.1485  0.2229  0.6868
  113MOL   C32447588   4.764   2.315   4.905 -0.5376  0.0323 -0.2143
  113MOL   C32547589   4.624   2.297   4.894  0.1207 -0.1614  0.5499
  113MOL   C32647590   4.537   2.348   4.990 -0.0192 -0.0519 -0.2489
  113MOL   C32747591   4.216   2.779   5.349  0.7331 -0.6088  0.1185
  113MOL   H32847592   4.187   2.689   5.160 -3.0459 -1.8149  1.2131
  113MOL   H32947593   4.369   2.577   5.084  0.1514 -0.4217  0.0467
  113MOL   H33047594   4.314   2.431   5.172  0.1437 -0.5332  0.2402
  113MOL   H33147595   4.767   2.490   5.200 -3.8364  0.6455  0.6380
  113MOL   H33247596   4.921   2.396   5.037 -0.1718 -0.1042  2.3946
  113MOL   H33347597   4.831   2.272   4.832 -1.3110 -0.9558 -0.3583
  113MOL   H33447598   4.588   2.233   4.815 -0.0923 -0.2285  0.6981
  113MOL   H33547599   4.432   2.335   4.972 -0.4701  1.9258  0.7365
  113MOL   H33647600   4.114   2.818   5.347  0.6051 -0.9394  0.2654
  113MOL   H33747601   4.241   2.759   5.453  4.8849  0.3883 -0.5876
  113MOL   C33847602   4.300   2.890   5.282  0.2691  0.4336  0.0144
  113MOL   O33947603   4.218   2.923   5.174 -0.4465  0.1350 -0.2982
  113MOL   C34047604   4.288   2.953   5.055 -0.1930 -0.0999 -0.5282
  113MOL   O34147605   4.322   2.840   4.997 -0.3018  0.2333  0.0228
  113MOL   C34247606   4.374   2.845   4.874 -0.0519  0.3332  0.3409
  113MOL   C34347607   4.405   2.965   4.806 -0.8551  0.1165 -0.1451
  113MOL   C34447608   4.482   2.956   4.683  0.5540 -0.5492 -0.5879
  113MOL   C34547609   4.517   2.827   4.633  0.5426  1.2837 -0.3875
  113MOL   C34647610   4.474   2.709   4.694 -0.1098  0.9442 -0.0492
  113MOL   C34747611   4.408   2.718   4.817  0.0804 -0.1669  0.0945
  113MOL   C34847612   4.321   3.021   5.365  0.6323  0.3057 -0.1856
  113MOL   H34947613   4.399   2.850   5.261  0.2053  0.5513 -0.5183
  113MOL   H35047614   4.371   3.020   5.079 -0.0919  0.1027 -1.4130
  113MOL   H35147615   4.209   3.002   4.999  0.9579  2.3156 -0.0881
  113MOL   H35247616   4.386   3.061   4.852 -1.0749  0.9779 -1.9922
  113MOL   H35347617   4.523   3.046   4.639 -0.8865  0.1485 -0.5297
  113MOL   H35447618   4.584   2.836   4.549  2.1922 -1.5491  0.5644
  113MOL   H35547619   4.503   2.611   4.657 -1.5416 -0.5736  2.6985
  113MOL   H35647620   4.384   2.624   4.864  2.9338 -0.2471  1.4950
  113MOL   H35747621   4.239   3.060   5.424  2.4752  2.4249  1.0524
  113MOL   H35847622   4.345   3.094   5.288 -1.9246 -0.6122 -1.9310
  113MOL   C35947623   4.439   3.010   5.466 -0.5599 -0.4076 -0.3552
  113MOL   O36047624   4.391   2.963   5.591 -0.0604 -0.6614 -0.2889
  113MOL   C36147625   4.472   2.862   5.656  0.5929 -0.5636 -0.1993
  113MOL   O36247626   4.489   2.746   5.579  0.0018 -0.0638  0.1143
  113MOL   C36347627   4.570   2.647   5.630 -0.4965  0.1520  0.0612
  113MOL   C36447628   4.582   2.524   5.558  0.0864  0.0596  0.4558
  113MOL   C36547629   4.668   2.418   5.603 -0.1441  0.2410  0.3784
  113MOL   C36647630   4.748   2.436   5.713  0.4295 -0.1245 -0.0791
  113MOL   C36747631   4.726   2.553   5.796  0.2276  0.2028  0.8026
  113MOL   C36847632   4.640   2.655   5.753  0.9617 -0.2084  0.3206
  113MOL   C36947633   4.523   3.140   5.484 -0.5559 -0.1654  0.3540
  113MOL   H37047634   4.517   2.942   5.430  0.4658  0.4176  0.2661
  113MOL   H37147635   4.432   2.849   5.756 -0.2437 -0.0939 -0.4756
  113MOL   H37247636   4.567   2.914   5.669 -0.2366  0.7884  0.5479
  113MOL   H37347637   4.533   2.505   5.464  0.3176 -2.3778  0.8008
  113MOL   H37447638   4.667   2.328   5.544 -1.1210  1.1132 -0.9481
  113MOL   H37547639   4.817   2.357   5.739 -0.0056 -0.3491  0.4196
  113MOL   H37647640   4.777   2.562   5.891 -1.3986 -2.5737  2.0020
  113MOL   H37747641   4.624   2.737   5.822  0.3788  0.4534 -0.5868
  113MOL   H37847642   4.569   3.132   5.582 -2.1261  0.1039  1.1376
  113MOL   H37947643   4.451   3.220   5.502 -0.5020 -0.1764  0.6214
  113MOL   C38047644   4.634   3.175   5.376  0.4205  0.2703 -0.3816
  113MOL   O38147645   4.745   3.235   5.447  0.1717  0.2754  0.2315
  113MOL   C38247646   4.855   3.156   5.477 -0.0167  0.3200  0.6116
  113MOL   O38347647   4.833   3.097   5.598  0.0669 -0.4236 -0.3692
  113MOL   C38447648   4.928   3.009   5.642 -0.4445  0.4816 -0.1477
  113MOL   C38547649   5.064   3.009   5.600  0.7045 -1.0908  0.0271
  113MOL   C38647650   5.151   2.915   5.651 -0.2011  0.1706 -0.1436
  113MOL   C38747651   5.114   2.824   5.752  0.6077 -0.0978  0.6399
  113MOL   C38847652   4.977   2.820   5.788 -0.2811  0.2878 -0.4079
  113MOL   C38947653   4.882   2.911   5.738  0.2450 -0.0772  0.5747
  113MOL   C39047654   4.590   3.280   5.279 -0.5304  0.1955 -0.2152
  113MOL   H39147655   4.664   3.086   5.321 -0.3737 -2.0213  2.7309
  113MOL   H39247656   4.887   3.083   5.402 -0.4467 -1.1420  1.8381
  113MOL   H39347657   4.937   3.228   5.482 -1.1792  1.8055 -0.9748
  113MOL   H39447658   5.099   3.076   5.523  1.4610 -1.9206 -0.3607
  113MOL   H39547659   5.254   2.920   5.619  0.4474  2.4217  2.1294
  113MOL   H39647660   5.179   2.756   5.803  2.9669  1.8231  0.3039
  113MOL   H39747661   4.967   2.743   5.863 -0.9786  2.5469  1.8795
  113MOL   H39847662   4.780   2.907   5.773  0.1218  0.9443  0.3366
  113MOL   H39947663   4.583   3.380   5.320  0.5820 -0.0686  0.6488
  113MOL   H40047664   4.485   3.261   5.255 -0.2088 -1.0042 -0.7251
  113MOL   C40147665   4.677   3.292   5.150  0.0727  0.5391  0.2793
  113MOL   O40247666   4.626   3.190   5.060 -0.0355  0.4883 -0.5544
  113MOL   C40347667   4.709   3.121   4.969  0.4224 -0.1374 -0.0433
  113MOL   O40447668   4.828   3.060   5.023  0.6044  0.6706 -0.1152
  113MOL   C40547669   4.816   2.961   5.115  0.2284 -0.5304 -0.0454
  113MOL   C40647670   4.698   2.886   5.124 -0.0145 -0.0087 -0.1247
  113MOL   C40747671   4.681   2.799   5.234 -0.2040  0.3970 -0.5436
  113MOL   C40847672   4.793   2.768   5.315 -0.8504 -0.0909  0.2768
  113MOL   C40947673   4.914   2.837   5.296 -0.1530 -0.4605 -0.5294
  113MOL   C41047674   4.923   2.937   5.199 -0.0817 -1.0925  0.7487
  113MOL   C41147675   4.644   3.418   5.080 -0.6606 -0.1365  0.2361
  113MOL   H41247676   4.781   3.275   5.176 -0.2519  1.8968  2.6226
  113MOL   H41347677   4.734   3.200   4.898 -0.7211  1.6444  1.4889
  113MOL   H41447678   4.651   3.046   4.915  0.1608  0.4381 -0.5662
  113MOL   H41547679   4.617   2.893   5.053 -0.6934 -2.6958  0.3476
  113MOL   H41647680   4.592   2.742   5.254  0.4901  0.0205  1.6899
  113MOL   H41747681   4.784   2.692   5.391 -1.1652  1.4581  1.8225
  113MOL   H41847682   4.999   2.818   5.361  0.0503  0.8416 -0.3949
  113MOL   H41947683   5.007   3.004   5.191  1.2262 -2.4750  2.2878
  113MOL   H42047684   4.695   3.438   4.986  0.0932 -1.8368  0.2670
  113MOL   H42147685   4.658   3.501   5.150 -0.3264  0.5720 -0.6661
  113MOL   H42247686   4.538   3.421   5.057 -0.6124  1.9811  0.1536
  114MOL     C147687   2.078   4.329   5.605  0.3710  0.1798  0.7151
  114MOL     O247688   2.042   4.416   5.500 -0.2364 -0.0341 -0.0796
  114MOL     C347689   2.057   4.552   5.517 -1.0489 -0.6954 -0.1138
  114MOL     O447690   2.187   4.599   5.522  0.1247 -0.6784  0.0854
  114MOL     C547691   2.271   4.584   5.417  0.4276  0.1675 -0.9645
  114MOL     C647692   2.252   4.634   5.291 -0.7798  0.1219  0.2854
  114MOL     C747693   2.350   4.603   5.191 -0.4621 -0.5266  0.6117
  114MOL     C847694   2.466   4.527   5.226 -0.3878  0.0611  0.0859
  114MOL     C947695   2.482   4.482   5.357 -0.6397 -0.9814 -0.3747
  114MOL    C1047696   2.386   4.508   5.451 -0.3887  0.2642  0.0820
  114MOL    C1147697   2.116   4.190   5.551  0.4618  0.2183 -0.3153
  114MOL    H1247698   2.171   4.359   5.653  2.6663 -1.4946 -2.4357
  114MOL    H1347699   2.000   4.607   5.443  1.2423  0.9627 -0.7040
  114MOL    H1447700   2.005   4.573   5.610  0.8391  1.5669  0.4717
  114MOL    H1547701   2.164   4.690   5.263 -1.9828 -1.8508  0.0268
  114MOL    H1647702   2.346   4.636   5.088 -0.7281 -1.3771  0.3415
  114MOL    H1747703   2.541   4.506   5.151 -0.4610 -1.8394  0.5013
  114MOL    H1847704   2.571   4.422   5.371 -0.2766 -0.3607  0.0114
  114MOL    H1947705   2.384   4.455   5.545  0.0272 -0.7282 -0.4547
  114MOL    H2047706   2.178   4.209   5.463  0.1313  1.6306 -0.2561
  114MOL    H2147707   2.034   4.135   5.505  0.3755  1.1807 -1.3408
  114MOL    H2247708   1.994   4.331   5.674 -1.3363 -0.4527 -1.3104
  114MOL    C2347709   2.180   4.090   5.650  0.7339 -0.1565 -0.1702
  114MOL    O2447710   2.275   4.150   5.733 -0.2075  0.1240  0.0893
  114MOL    C2547711   2.247   4.134   5.868 -0.1763  0.1004 -0.3520
  114MOL    O2647712   2.122   4.176   5.905  0.4282 -0.0044  0.6362
  114MOL    C2747713   2.092   4.185   6.039  0.8989 -0.6151 -0.0396
  114MOL    C2847714   2.180   4.141   6.142 -0.4712 -0.1177  0.5799
  114MOL    C2947715   2.140   4.162   6.276 -0.0956 -0.6292  0.0808
  114MOL    C3047716   2.021   4.230   6.307  0.4927 -0.2165  0.6997
  114MOL    C3147717   1.931   4.267   6.210 -0.0992 -0.0468 -0.0178
  114MOL    C3247718   1.966   4.247   6.074  0.1096 -0.4212 -0.5532
  114MOL    C3347719   2.233   3.964   5.583 -0.4499 -0.3718 -0.3875
  114MOL    H3447720   2.098   4.043   5.703 -0.2241  0.0593 -1.4518
  114MOL    H3547721   2.316   4.204   5.913  0.6429 -0.2888 -0.9967
  114MOL    H3647722   2.255   4.027   5.887  0.7745  0.0802 -0.8763
  114MOL    H3747723   2.277   4.097   6.129 -0.3600  0.4409 -0.5678
  114MOL    H3847724   2.202   4.132   6.359  2.1292  2.2124 -0.4909
  114MOL    H3947725   1.989   4.237   6.410 -1.3260 -0.2580  0.1669
  114MOL    H4047726   1.842   4.314   6.251 -0.5110 -0.2806 -0.6291
  114MOL    H4147727   1.889   4.281   6.007 -1.2131 -1.5129  0.3909
  114MOL    H4247728   2.265   3.900   5.665  0.9524  0.2741 -0.4258
  114MOL    H4347729   2.329   3.987   5.537 -1.1565  0.7890 -1.3210
  114MOL    C4447730   2.146   3.887   5.487 -0.0463  0.1871  0.3246
  114MOL    O4547731   2.037   3.827   5.546  0.3706 -0.1960  0.0589
  114MOL    C4647732   1.913   3.827   5.480 -0.4413  0.4729  0.0067
  114MOL    O4747733   1.843   3.946   5.482  0.1475 -0.3883  0.4340
  114MOL    C4847734   1.719   3.952   5.418 -0.2447 -0.7517  0.2775
  114MOL    C4947735   1.641   4.062   5.447  0.5473  0.0840 -0.3117
  114MOL    C5047736   1.514   4.080   5.387 -0.3591 -0.1894  0.6597
  114MOL    C5147737   1.470   3.979   5.294  0.2616 -0.8906  0.0186
  114MOL    C5247738   1.550   3.868   5.266 -0.1883 -0.0955 -0.1762
  114MOL    C5347739   1.679   3.860   5.323 -0.2733  0.2841  0.6357
  114MOL    C5447740   2.224   3.772   5.401  0.4000  0.0480  0.2903
  114MOL    H5547741   2.112   3.962   5.416 -3.0207 -0.5076  0.9311
  114MOL    H5647742   1.841   3.755   5.520 -1.6313  1.2112 -0.7635
  114MOL    H5747743   1.935   3.789   5.380  1.0695 -0.8889  0.8345
  114MOL    H5847744   1.681   4.137   5.514  0.3186 -2.1140  2.3540
  114MOL    H5947745   1.453   4.166   5.407  0.1643  0.2803  0.2661
  114MOL    H6047746   1.376   3.993   5.242 -0.2488  1.7248  1.4962
  114MOL    H6147747   1.506   3.806   5.190 -0.8076  1.9364 -1.5062
  114MOL    H6247748   1.741   3.773   5.304  1.4086  1.5004  0.4148
  114MOL    H6347749   2.166   3.735   5.317  0.8324 -0.4251  0.1982
  114MOL    H6447750   2.313   3.811   5.353  1.7102 -1.8942  1.0543
  114MOL    C6547751   2.268   3.648   5.485 -0.1571  0.1287  0.2362
  114MOL    O6647752   2.153   3.576   5.534  0.3194  0.2144  0.3747
  114MOL    C6747753   2.173   3.509   5.662 -0.0556 -0.9429 -0.6646
  114MOL    O6847754   2.123   3.381   5.650 -0.0028  0.1922 -0.3993
  114MOL    C6947755   1.989   3.348   5.677 -0.8578 -0.5863 -0.5708
  114MOL    C7047756   1.890   3.446   5.667  0.2422 -0.1020  0.3698
  114MOL    C7147757   1.756   3.420   5.699  0.2045  0.7843  0.0826
  114MOL    C7247758   1.723   3.284   5.737  0.3549 -0.2344  0.2222
  114MOL    C7347759   1.827   3.185   5.741  0.0841 -0.6110 -0.1039
  114MOL    C7447760   1.960   3.216   5.708  0.0092 -0.2433  0.8979
  114MOL    C7547761   2.355   3.550   5.400  0.0088 -0.4554  0.2849
  114MOL    H7647762   2.322   3.676   5.575 -0.1702 -2.2270  0.9958
  114MOL    H7747763   2.136   3.570   5.744  0.0461  0.0189 -1.3144
  114MOL    H7847764   2.277   3.489   5.686  0.2265  1.9182  0.6712
  114MOL    H7947765   1.905   3.546   5.631  0.9948 -0.8402 -1.4347
  114MOL    H8047766   1.679   3.495   5.688 -1.1542 -0.3882  1.4120
  114MOL    H8147767   1.623   3.263   5.770 -0.4431  3.2917  0.2847
  114MOL    H8247768   1.809   3.087   5.783  0.5700 -2.1378 -3.2875
  114MOL    H8347769   2.041   3.149   5.733  0.3405  0.4209  1.5991
  114MOL    H8447770   2.366   3.455   5.451 -0.3406 -0.5529  0.1720
  114MOL    H8547771   2.299   3.540   5.307  0.7877  2.2362 -0.5397
  114MOL    C8647772   2.499   3.603   5.358  0.2608 -0.3387 -0.7691
  114MOL    O8747773   2.579   3.608   5.476 -0.1470 -0.9756  0.3706
  114MOL    C8847774   2.668   3.707   5.469 -0.0434  0.4211  0.2725
  114MOL    O8947775   2.610   3.831   5.463 -0.4868 -0.3334 -0.9283
  114MOL    C9047776   2.691   3.943   5.470  0.0125 -0.2555  0.1400
  114MOL    C9147777   2.832   3.937   5.465 -0.3746 -0.4246 -0.4121
  114MOL    C9247778   2.909   4.061   5.467 -0.4358  1.3730  0.1853
  114MOL    C9347779   2.834   4.179   5.467  0.5834  0.2502  0.1183
  114MOL    C9447780   2.696   4.180   5.488 -0.0665 -0.4309 -0.0352
  114MOL    C9547781   2.621   4.061   5.498 -0.0877 -0.0589  0.0263
  114MOL    C9647782   2.563   3.503   5.265  0.3515  0.5464 -0.1012
  114MOL    H9747783   2.494   3.704   5.318  0.1060 -0.3410 -0.7553
  114MOL    H9847784   2.724   3.692   5.377 -0.4387 -1.1380  0.2862
  114MOL    H9947785   2.739   3.700   5.552 -1.2830  2.4050  1.5628
  114MOL   H10047786   2.884   3.842   5.457  0.6370 -0.0440  1.3735
  114MOL   H10147787   3.016   4.059   5.451 -0.2793  2.3342  1.0108
  114MOL   H10247788   2.892   4.269   5.462  0.1778  0.4207 -2.4368
  114MOL   H10347789   2.635   4.270   5.491 -0.8233 -0.9585  0.5883
  114MOL   H10447790   2.515   4.066   5.516 -0.1487 -0.9980 -0.0113
  114MOL   H10547791   2.671   3.517   5.266  0.6114 -1.1168  3.2610
  114MOL   H10647792   2.540   3.407   5.313 -1.3014  0.7989 -0.3547
  114MOL   C10747793   2.508   3.489   5.124 -0.6089 -0.2782 -0.0269
  114MOL   O10847794   2.536   3.617   5.056  0.4334  0.6507  0.0389
  114MOL   C10947795   2.442   3.671   4.968  0.7585  0.4166 -0.3834
  114MOL   O11047796   2.332   3.725   5.030  0.0180 -0.1207 -0.9619
  114MOL   C11147797   2.341   3.853   5.083 -0.5719 -0.2966 -0.2351
  114MOL   C11247798   2.228   3.930   5.096  0.0028  0.8472 -0.0351
  114MOL   C11347799   2.232   4.050   5.170  0.1992  0.7745  0.6887
  114MOL   C11447800   2.355   4.111   5.199  0.6437  0.4277  0.4754
  114MOL   C11547801   2.468   4.038   5.176 -0.7177 -0.0172  0.5415
  114MOL   C11647802   2.465   3.908   5.120  0.0853 -0.3947  0.6117
  114MOL   C11747803   2.586   3.379   5.048 -0.0207 -0.7308 -0.2219
  114MOL   H11847804   2.401   3.470   5.134 -0.4988  0.1051  2.1953
  114MOL   H11947805   2.419   3.592   4.896 -0.5381  1.2746 -0.9238
  114MOL   H12047806   2.489   3.750   4.909  2.0694 -0.5990 -0.7313
  114MOL   H12147807   2.141   3.881   5.055 -0.4221  2.6124 -1.3383
  114MOL   H12247808   2.144   4.110   5.189  0.6752  1.5690  0.4009
  114MOL   H12347809   2.358   4.216   5.226  1.1434  0.4837  0.2159
  114MOL   H12447810   2.564   4.072   5.212  0.1084 -2.0026  0.2743
  114MOL   H12547811   2.558   3.853   5.113 -1.0629 -2.4071  0.6098
  114MOL   H12647812   2.573   3.282   5.096  0.0436 -1.2821 -1.3055
  114MOL   H12747813   2.689   3.409   5.070 -0.0796  0.2038 -1.2300
  114MOL   C12847814   2.563   3.362   4.896 -0.4826  0.2452  0.2843
  114MOL   O12947815   2.431   3.313   4.895 -0.6302  0.1213 -0.3162
  114MOL   C13047816   2.369   3.311   4.774  0.4205  0.1135  0.0647
  114MOL   O13147817   2.332   3.439   4.734  0.2507  0.1499 -0.3873
  114MOL   C13247818   2.212   3.489   4.771 -0.0017  0.4877 -0.7689
  114MOL   C13347819   2.183   3.614   4.716  0.3075  0.8788  0.6259
  114MOL   C13447820   2.060   3.678   4.741 -0.4250 -0.3955  0.0333
  114MOL   C13547821   1.964   3.610   4.811  0.2296  0.5053 -0.1214
  114MOL   C13647822   1.988   3.484   4.868 -0.7781  0.4510 -0.4983
  114MOL   C13747823   2.118   3.420   4.849 -0.2137 -0.1152 -0.4323
  114MOL   C13847824   2.676   3.285   4.823  0.8929 -0.7542 -0.1849
  114MOL   H13947825   2.559   3.457   4.843  0.4389  0.5700  0.7756
  114MOL   H14047826   2.287   3.240   4.783 -0.8394  1.5683  0.2968
  114MOL   H14147827   2.440   3.274   4.701  1.1900 -0.2898  1.0103
  114MOL   H14247828   2.253   3.658   4.646  0.8745 -0.0648  0.5884
  114MOL   H14347829   2.036   3.773   4.695  1.4993  0.0040 -0.2032
  114MOL   H14447830   1.865   3.652   4.816 -0.3874 -0.9865  0.2518
  114MOL   H14547831   1.905   3.422   4.897  0.4699 -0.9772  0.0810
  114MOL   H14647832   2.140   3.320   4.884  1.5460  1.3826  3.0425
  114MOL   H14747833   2.640   3.275   4.721 -0.7354  0.7751  0.2238
  114MOL   H14847834   2.772   3.337   4.830  0.7309 -0.5834  0.8779
  114MOL   C14947835   2.696   3.138   4.870  0.1074  0.8345  0.5134
  114MOL   O15047836   2.593   3.056   4.822 -0.4478  0.2301  0.1598
  114MOL   C15147837   2.543   2.969   4.925 -0.9905  0.2503  0.5091
  114MOL   O15247838   2.461   3.034   5.018  0.3303  0.4164 -0.4010
  114MOL   C15347839   2.330   3.040   4.991 -0.1925  0.1101  0.1870
  114MOL   C15447840   2.256   3.119   5.078 -0.3380  0.0333 -0.0400
  114MOL   C15547841   2.115   3.113   5.073 -0.0311 -0.3704  0.3234
  114MOL   C15647842   2.040   3.058   4.966 -0.1887 -0.0032 -0.0392
  114MOL   C15747843   2.117   2.988   4.870  0.2365  0.4325  0.5225
  114MOL   C15847844   2.262   2.981   4.881  0.6565 -0.0798 -0.4002
  114MOL   C15947845   2.827   3.071   4.809  0.4175 -0.6831  0.4005
  114MOL   H16047846   2.698   3.134   4.979  2.2537 -1.6678  0.4289
  114MOL   H16147847   2.498   2.881   4.878  0.8946  1.0021 -2.8531
  114MOL   H16247848   2.629   2.927   4.977 -1.0762 -1.5720 -0.7740
  114MOL   H16347849   2.304   3.170   5.160  2.2307  0.3276 -1.7083
  114MOL   H16447850   2.056   3.169   5.143  0.7662  0.8103  0.0741
  114MOL   H16547851   1.933   3.063   4.956 -0.1764 -0.3259 -0.3557
  114MOL   H16647852   2.078   2.950   4.777  0.3599  1.7383 -0.0804
  114MOL   H16747853   2.322   2.929   4.808 -0.5904  2.2798 -3.2048
  114MOL   H16847854   2.819   3.087   4.701 -1.5352  1.0863  0.7529
  114MOL   H16947855   2.817   2.964   4.826  4.2577 -0.9758  1.1949
  114MOL   C17047856   2.964   3.109   4.878 -0.2728  0.0876 -0.5661
  114MOL   O17147857   2.964   3.036   5.002 -0.6616  0.7921  0.2177
  114MOL   C17247858   2.988   3.122   5.114  0.6052  0.0521  0.7935
  114MOL   O17347859   2.882   3.206   5.148  0.5818 -0.0654  0.0378
  114MOL   C17447860   2.899   3.271   5.267  0.3032  0.3435 -0.1600
  114MOL   C17547861   2.804   3.251   5.369 -0.7756 -0.2995 -0.6502
  114MOL   C17647862   2.811   3.318   5.496  0.5542  0.8764 -0.4804
  114MOL   C17747863   2.914   3.410   5.512 -0.0527 -0.1173 -0.4900
  114MOL   C17847864   3.009   3.425   5.412  0.3053 -0.2148  0.8833
  114MOL   C17947865   3.002   3.357   5.290 -0.0576  0.0153 -0.5290
  114MOL   C18047866   3.079   3.057   4.797 -0.5264  0.4095  0.2321
  114MOL   H18147867   2.965   3.218   4.891 -3.5904  0.2972 -1.6288
  114MOL   H18247868   3.090   3.159   5.101  0.7679 -1.0898 -1.3565
  114MOL   H18347869   2.988   3.050   5.195 -0.2986  0.4704  1.1708
  114MOL   H18447870   2.716   3.191   5.345 -0.8408 -0.7408  0.6753
  114MOL   H18547871   2.746   3.303   5.580  1.2221 -1.9321 -0.4032
  114MOL   H18647872   2.934   3.462   5.604 -0.3034 -2.1905  0.7795
  114MOL   H18747873   3.099   3.481   5.431  0.0978  0.6006 -0.4773
  114MOL   H18847874   3.082   3.368   5.218 -2.1886  3.7371 -2.4215
  114MOL   H18947875   3.084   2.948   4.802  1.2128  0.4836  0.4744
  114MOL   H19047876   3.070   3.075   4.690 -0.3709  0.9473  0.3074
  114MOL   C19147877   3.216   3.108   4.836  0.4130  0.3544 -0.0449
  114MOL   O19247878   3.217   3.243   4.790 -0.1232 -0.0152 -0.1948
  114MOL   C19347879   3.242   3.344   4.887 -0.8320 -0.6088 -0.5053
  114MOL   O19447880   3.128   3.383   4.952 -0.6605 -0.3923  0.2642
  114MOL   C19547881   3.042   3.476   4.893 -0.7810 -0.0861  0.3684
  114MOL   C19647882   3.046   3.509   4.752 -1.2646 -0.3872  0.2779
  114MOL   C19747883   2.961   3.608   4.700 -0.6289  0.4070  0.1545
  114MOL   C19847884   2.879   3.684   4.783  0.4760  0.5343 -0.6638
  114MOL   C19947885   2.876   3.647   4.922 -0.3651  0.5194 -0.1335
  114MOL   C20047886   2.950   3.542   4.972  0.0157 -0.1401 -0.1544
  114MOL   C20147887   3.324   3.036   4.755 -0.1795 -0.0938  0.5133
  114MOL   H20247888   3.237   3.106   4.943  1.9946  2.4044 -0.2838
  114MOL   H20347889   3.289   3.426   4.832 -0.4954  0.7347  1.7163
  114MOL   H20447890   3.318   3.314   4.959  0.9617  0.4315 -1.9085
  114MOL   H20547891   3.111   3.458   4.683  2.4313  3.5115  0.6506
  114MOL   H20647892   2.976   3.631   4.595  1.0774 -0.1385  0.2660
  114MOL   H20747893   2.814   3.760   4.742 -0.4881  0.0223 -0.1185
  114MOL   H20847894   2.822   3.704   4.996 -0.0015  0.3894  0.2340
  114MOL   H20947895   2.940   3.515   5.076  2.2322 -3.3239 -0.7015
  114MOL   H21047896   3.302   2.929   4.748 -2.6205  0.3690  0.3621
  114MOL   H21147897   3.320   3.081   4.656 -0.8755  0.7489  0.9163
  114MOL   C21247898   3.460   3.051   4.819 -0.1082 -0.0180 -0.0269
  114MOL   O21347899   3.459   2.986   4.948  0.7171 -0.3963 -0.4547
  114MOL   C21447900   3.519   3.064   5.050 -0.2406 -0.1086  0.6253
  114MOL   O21547901   3.424   3.135   5.122  0.0029  0.2464  0.0740
  114MOL   C21647902   3.340   3.069   5.213  0.2045  0.6047 -0.6117
  114MOL   C21747903   3.311   2.929   5.211 -0.2788  0.0622 -0.9720
  114MOL   C21847904   3.220   2.877   5.306 -1.1829  0.2205 -0.1773
  114MOL   C21947905   3.163   2.958   5.408  0.0341 -0.2478 -0.4574
  114MOL   C22047906   3.206   3.094   5.414 -0.3970 -0.7227  0.3521
  114MOL   C22147907   3.285   3.151   5.314  0.3370  0.2673 -0.0337
  114MOL   C22247908   3.572   2.972   4.743  0.2646 -0.5091  0.2492
  114MOL   H22347909   3.482   3.157   4.826  0.1864 -0.0767 -0.0350
  114MOL   H22447910   3.595   3.122   4.999  0.0070 -1.0143 -0.0545
  114MOL   H22547911   3.569   2.997   5.121 -0.7389 -2.3560 -1.0808
  114MOL   H22647912   3.370   2.876   5.138  0.7376 -1.1264  0.6773
  114MOL   H22747913   3.185   2.775   5.298 -0.1445 -0.2759  1.2976
  114MOL   H22847914   3.079   2.925   5.467 -1.6515  0.7864 -2.2033
  114MOL   H22947915   3.180   3.159   5.496 -0.3374 -0.4073  0.1243
  114MOL   H23047916   3.301   3.258   5.316 -1.1012  0.5302 -1.8468
  114MOL   H23147917   3.652   2.957   4.817  2.1980  2.0648 -1.2449
  114MOL   H23247918   3.536   2.876   4.706  0.9874  0.1321 -2.2211
  114MOL   C23347919   3.630   3.046   4.614 -0.4036  0.7175  0.5276
  114MOL   O23447920   3.675   3.168   4.665 -0.1318 -0.0217 -0.1376
  114MOL   C23547921   3.645   3.270   4.581  0.2970  0.1882 -0.7636
  114MOL   O23647922   3.508   3.308   4.594  0.3895  0.6340 -0.1999
  114MOL   C23747923   3.464   3.424   4.525  0.3592  0.3569 -0.5451
  114MOL   C23847924   3.320   3.436   4.505 -0.5179  0.1872  0.2676
  114MOL   C23947925   3.274   3.544   4.433 -0.8679  0.8431  0.0332
  114MOL   C24047926   3.362   3.644   4.380  0.2229 -0.4583 -0.0479
  114MOL   C24147927   3.500   3.623   4.386 -0.3649  0.8742 -0.5292
  114MOL   C24247928   3.551   3.516   4.464 -0.3145  0.4084  0.0757
  114MOL   C24347929   3.760   2.975   4.555 -0.5070 -0.1154 -0.8259
  114MOL   H24447930   3.544   3.061   4.549 -0.0462  0.1711 -0.0760
  114MOL   H24547931   3.670   3.247   4.478 -0.3585  0.8559 -1.0795
  114MOL   H24647932   3.712   3.349   4.614 -2.0377  1.3760  1.4082
  114MOL   H24747933   3.251   3.357   4.531  0.7410 -0.8485  0.5449
  114MOL   H24847934   3.169   3.560   4.414 -0.4490  1.9152 -1.4412
  114MOL   H24947935   3.323   3.729   4.326 -1.0087 -1.2903 -0.4844
  114MOL   H25047936   3.563   3.697   4.338 -1.3184  1.2894 -1.1512
  114MOL   H25147937   3.656   3.496   4.479 -0.7619 -0.5741  2.1463
  114MOL   H25247938   3.821   3.030   4.483  1.3621 -0.0159  0.8136
  114MOL   H25347939   3.818   2.952   4.644 -1.9509  0.1013  0.1977
  114MOL   C25447940   3.745   2.835   4.498  0.1513 -0.4110 -0.1865
  114MOL   O25547941   3.727   2.842   4.359  0.7152  0.3075 -0.1138
  114MOL   C25647942   3.656   2.740   4.298 -0.2942 -0.1408 -0.0306
  114MOL   O25747943   3.716   2.615   4.288  0.3411  0.3197 -0.3668
  114MOL   C25847944   3.815   2.602   4.189  0.5486 -0.7209 -0.3845
  114MOL   C25947945   3.853   2.475   4.144  0.2383  0.6095  0.1551
  114MOL   C26047946   3.965   2.450   4.057  0.3044  0.3791 -1.2722
  114MOL   C26147947   4.034   2.559   4.009 -0.7668 -0.1675  0.2597
  114MOL   C26247948   4.002   2.692   4.051 -0.6077 -0.3300  0.4666
  114MOL   C26347949   3.898   2.709   4.146  0.2038 -0.3989 -0.0807
  114MOL   C26447950   3.858   2.734   4.548  0.2596 -0.5589 -0.3829
  114MOL   H26547951   3.649   2.805   4.539 -0.2019  0.6669 -0.2010
  114MOL   H26647952   3.642   2.778   4.196 -2.0985  0.7129  0.5090
  114MOL   H26747953   3.556   2.732   4.342 -0.3029  2.4919  0.5210
  114MOL   H26847954   3.801   2.389   4.183 -0.0894  0.3784 -0.7767
  114MOL   H26947955   3.994   2.352   4.023 -0.4134 -0.0334 -0.7036
  114MOL   H27047956   4.110   2.540   3.934  0.5695  1.0105  1.2934
  114MOL   H27147957   4.054   2.773   4.001  0.7956 -1.8506 -0.6001
  114MOL   H27247958   3.886   2.810   4.182 -1.5363 -0.4741 -0.3985
  114MOL   H27347959   3.849   2.734   4.657 -2.5433 -0.3999 -0.5741
  114MOL   H27447960   3.824   2.634   4.522  0.8100 -0.6960 -0.5554
  114MOL   C27547961   4.002   2.755   4.506  0.0234  0.1307  0.4578
  114MOL   O27647962   4.042   2.882   4.565  0.1413 -0.3220  0.0550
  114MOL   C27747963   4.150   2.957   4.503  0.0205 -0.7581  0.3979
  114MOL   O27847964   4.125   2.974   4.371 -0.5675  0.1911 -0.3093
  114MOL   C27947965   4.199   3.062   4.299 -0.4087  0.4246  0.1272
  114MOL   C28047966   4.322   3.109   4.345  0.3119  0.2102  0.5365
  114MOL   C28147967   4.396   3.197   4.268 -0.7431  0.6393  0.3559
  114MOL   C28247968   4.340   3.245   4.144  0.5161 -0.2762  0.2549
  114MOL   C28347969   4.213   3.205   4.101  0.3932  0.2778 -0.1480
  114MOL   C28447970   4.143   3.103   4.176 -0.3284 -0.2805  0.3224
  114MOL   C28547971   4.099   2.640   4.545 -0.0431  0.0413  0.4146
  114MOL   H28647972   3.997   2.765   4.397 -1.7662  0.6840  0.5721
  114MOL   H28747973   4.240   2.897   4.514 -1.3408 -2.4991  2.5132
  114MOL   H28847974   4.160   3.052   4.556 -4.0456  0.4706 -0.9044
  114MOL   H28947975   4.370   3.081   4.438  1.0240 -0.4406 -0.0224
  114MOL   H29047976   4.495   3.231   4.295 -0.1030 -2.0475  1.4946
  114MOL   H29147977   4.411   3.304   4.088 -0.9175 -0.2845 -1.5936
  114MOL   H29247978   4.165   3.241   4.012 -0.1277  2.3731  0.9511
  114MOL   H29347979   4.043   3.074   4.147 -0.2881  0.0531 -0.1697
  114MOL   H29447980   4.087   2.611   4.649  0.3458 -0.8770  0.2066
  114MOL   H29547981   4.201   2.677   4.535 -0.3757  0.9049  0.1790
  114MOL   C29647982   4.079   2.525   4.446  0.0970  0.2013 -0.4152
  114MOL   O29747983   4.215   2.480   4.426 -0.2910  0.5176 -0.3220
  114MOL   C29847984   4.239   2.467   4.288 -0.2540  0.0848  0.3252
  114MOL   O29947985   4.252   2.593   4.225 -0.1213  0.1382  0.1673
  114MOL   C30047986   4.367   2.667   4.239  0.6242 -0.0147 -0.2184
  114MOL   C30147987   4.377   2.781   4.158 -0.1245  0.2303  0.0601
  114MOL   C30247988   4.479   2.870   4.164 -0.8133 -0.7094  0.0726
  114MOL   C30347989   4.594   2.838   4.243  0.2948  0.0553 -0.2825
  114MOL   C30447990   4.603   2.710   4.307 -0.1940  0.1102 -0.0351
  114MOL   C30547991   4.484   2.633   4.311  1.1998  0.4155  0.0338
  114MOL   C30647992   3.991   2.405   4.496  0.4070  0.1473 -0.3056
  114MOL   H30747993   4.035   2.557   4.352  0.9292  0.6256 -0.6601
  114MOL   H30847994   4.163   2.407   4.239  0.8894 -0.0895 -1.2882
  114MOL   H30947995   4.329   2.406   4.274 -0.1341 -0.2900  2.6325
  114MOL   H31047996   4.291   2.794   4.093  0.1357 -2.2005 -0.8264
  114MOL   H31147997   4.472   2.961   4.107 -3.3245 -0.8273  0.1607
  114MOL   H31247998   4.677   2.907   4.241  2.2777 -2.2713 -1.3375
  114MOL   H31347999   4.688   2.671   4.362 -1.0129  0.0987  1.2506
  114MOL   H31448000   4.495   2.546   4.374  2.7997  1.9942  2.0248
  114MOL   H31548001   4.021   2.322   4.433  1.7824  2.1450 -2.3759
  114MOL   H31648002   3.884   2.422   4.483  1.0031  3.8186 -1.1085
  114MOL   C31748003   4.005   2.342   4.636 -0.9979  0.0896 -0.0721
  114MOL   O31848004   4.121   2.259   4.636  0.3832  0.0031 -0.0832
  114MOL   C31948005   4.236   2.298   4.696  0.5756 -0.0981  0.5089
  114MOL   O32048006   4.228   2.282   4.837 -0.0977 -0.3768  0.0264
  114MOL   C32148007   4.237   2.154   4.891  0.6884 -0.3391 -0.2014
  114MOL   C32248008   4.225   2.142   5.030  0.3229  0.7087 -0.1282
  114MOL   C32348009   4.247   2.016   5.095 -0.3956  0.2050 -0.0655
  114MOL   C32448010   4.264   1.901   5.019  0.5518  0.2861 -0.3383
  114MOL   C32548011   4.266   1.913   4.881  0.5353 -0.1145 -0.0721
  114MOL   C32648012   4.242   2.038   4.817 -0.2463  1.0132  0.2909
  114MOL   C32748013   3.895   2.237   4.678  0.8286  0.2103 -0.1465
  114MOL   H32848014   4.013   2.406   4.724  1.3015 -2.3727  1.5989
  114MOL   H32948015   4.242   2.400   4.658 -2.1963 -0.2795 -0.5145
  114MOL   H33048016   4.320   2.238   4.660  0.7506 -1.1512  2.5730
  114MOL   H33148017   4.232   2.233   5.088  0.2037  0.6560 -0.0312
  114MOL   H33248018   4.246   2.018   5.203 -0.3706 -1.3707 -0.0282
  114MOL   H33348019   4.278   1.804   5.063 -2.0504 -0.3948 -0.9179
  114MOL   H33448020   4.277   1.822   4.825 -1.2625 -0.1209 -0.4401
  114MOL   H33548021   4.254   2.019   4.711 -0.3463  0.8340  0.3110
  114MOL   H33648022   3.792   2.269   4.666  0.3992 -0.8379  0.6691
  114MOL   H33748023   3.905   2.144   4.622 -2.0739  0.5446 -1.2946
  114MOL   C33848024   3.892   2.205   4.824 -0.2547 -0.1504 -0.5289
  114MOL   O33948025   3.846   2.321   4.891  0.1365  0.1224  0.2301
  114MOL   C34048026   3.919   2.374   5.001 -0.1091 -0.0596 -0.2328
  114MOL   O34148027   4.012   2.470   4.969  0.4595  0.4562 -0.5516
  114MOL   C34248028   3.956   2.591   4.944  0.5982  0.0930  0.2655
  114MOL   C34348029   3.819   2.634   4.979  0.0786  0.2605  0.1922
  114MOL   C34448030   3.788   2.774   4.969  0.6536 -0.2010 -0.1038
  114MOL   C34548031   3.872   2.870   4.910  0.5991 -0.2804 -0.4094
  114MOL   C34648032   3.997   2.820   4.863  0.1091  0.0607  0.5424
  114MOL   C34748033   4.039   2.688   4.879 -0.4058 -0.2424 -0.2633
  114MOL   C34848034   3.785   2.104   4.887 -0.3501 -0.0384 -0.5902
  114MOL   H34948035   3.994   2.177   4.851  1.0390  1.9289 -3.0295
  114MOL   H35048036   3.975   2.288   5.039 -0.8397 -0.3839  0.1180
  114MOL   H35148037   3.862   2.402   5.090 -0.5700 -0.3913 -0.4233
  114MOL   H35248038   3.749   2.569   5.031 -0.4508  0.3760 -0.3661
  114MOL   H35348039   3.690   2.804   5.004  0.2573 -1.1302 -0.4262
  114MOL   H35448040   3.849   2.975   4.899 -2.4780 -1.2534 -4.7923
  114MOL   H35548041   4.065   2.892   4.819  2.5755 -1.7134  1.3932
  114MOL   H35648042   4.141   2.661   4.855 -0.7775 -1.0943 -0.8822
  114MOL   H35748043   3.691   2.159   4.889 -0.4805 -0.2467 -0.8548
  114MOL   H35848044   3.808   2.087   4.992 -0.4151 -1.0920 -0.7367
  114MOL   C35948045   3.760   1.969   4.818 -0.1008  0.4578 -0.0784
  114MOL   O36048046   3.646   1.914   4.890 -0.3475  0.2833 -0.2537
  114MOL   C36148047   3.523   1.949   4.830 -0.3947  0.2969 -0.2266
  114MOL   O36248048   3.477   1.849   4.755  0.0686 -0.4896 -0.1406
  114MOL   C36348049   3.365   1.878   4.687 -0.2326  0.0617 -0.1656
  114MOL   C36448050   3.352   1.799   4.572  0.1916  0.3243 -1.0629
  114MOL   C36548051   3.246   1.822   4.485  0.0869  0.8873 -0.4986
  114MOL   C36648052   3.153   1.927   4.509 -0.6443 -0.4699  0.5579
  114MOL   C36748053   3.171   2.005   4.622  0.1442 -0.8590  0.8381
  114MOL   C36848054   3.273   1.983   4.715 -0.0256  0.2745  0.0815
  114MOL   C36948055   3.883   1.874   4.839 -0.2151 -0.6538  0.7904
  114MOL   H37048056   3.734   1.985   4.714 -1.8971 -2.3016 -0.0928
  114MOL   H37148057   3.528   2.046   4.780 -0.6902  1.2507  1.5784
  114MOL   H37248058   3.450   1.959   4.910 -0.5025  1.1568 -0.4275
  114MOL   H37348059   3.430   1.724   4.571 -0.3601 -0.2923  0.1830
  114MOL   H37448060   3.241   1.765   4.394  1.6875 -0.5828  0.2943
  114MOL   H37548061   3.078   1.951   4.434  1.8924 -0.4869 -2.1074
  114MOL   H37648062   3.093   2.079   4.630  0.3425 -0.7974  2.2812
  114MOL   H37748063   3.264   2.049   4.799 -0.5609 -0.6029  0.7202
  114MOL   H37848064   3.918   1.894   4.940  1.9219  1.9983 -0.3925
  114MOL   H37948065   3.968   1.920   4.788  2.1035 -1.8398  3.4603
  114MOL   C38048066   3.883   1.719   4.801 -0.3156  0.3163 -0.2481
  114MOL   O38148067   3.825   1.652   4.907 -0.5306 -0.5153 -0.1533
  114MOL   C38248068   3.697   1.604   4.886  0.1146  0.7293  0.2896
  114MOL   O38348069   3.646   1.542   5.002  0.5099 -0.0102  0.6273
  114MOL   C38448070   3.524   1.479   4.993 -0.2640  0.0648  0.6863
  114MOL   C38548071   3.497   1.389   5.093  1.0088  0.1804 -0.6943
  114MOL   C38648072   3.381   1.313   5.102 -0.3519 -0.2872 -0.6890
  114MOL   C38748073   3.283   1.331   5.006  0.1474  0.0475  1.6886
  114MOL   C38848074   3.308   1.419   4.900  0.0157 -0.1222 -0.7182
  114MOL   C38948075   3.425   1.493   4.888 -0.5274 -0.3345 -0.1529
  114MOL   C39048076   4.026   1.655   4.778  0.5627  0.4204 -0.4154
  114MOL   H39148077   3.823   1.709   4.710 -1.5896  1.5529  0.4368
  114MOL   H39248078   3.635   1.684   4.845 -1.3006  1.5460  3.7733
  114MOL   H39348079   3.694   1.522   4.814  0.4778  1.4192 -0.5216
  114MOL   H39448080   3.581   1.375   5.161 -0.0269 -1.8360  0.2102
  114MOL   H39548081   3.377   1.244   5.185 -0.2779 -0.6651 -0.9951
  114MOL   H39648082   3.201   1.261   5.001 -0.5224  0.9230  0.1742
  114MOL   H39748083   3.238   1.423   4.818 -1.4022  0.8416  0.5033
  114MOL   H39848084   3.434   1.561   4.805  2.9451  1.9575  1.9506
  114MOL   H39948085   4.099   1.661   4.859 -0.7545  0.8114  0.7711
  114MOL   H40048086   4.076   1.710   4.698  3.4404 -1.4124  0.0535
  114MOL   C40148087   4.012   1.505   4.747 -0.0190 -0.5593 -0.2777
  114MOL   O40248088   3.956   1.481   4.622 -0.1846  0.2382  0.1408
  114MOL   C40348089   3.885   1.361   4.601 -0.0877  0.2538 -0.5468
  114MOL   O40448090   3.754   1.365   4.651 -0.2689  0.1787 -0.3729
  114MOL   C40548091   3.657   1.415   4.568 -0.2415 -0.0971 -0.0117
  114MOL   C40648092   3.524   1.382   4.602 -0.0152 -1.0190 -0.7534
  114MOL   C40748093   3.416   1.407   4.513 -0.2457 -0.2611 -0.4881
  114MOL   C40848094   3.445   1.484   4.401 -0.3586 -0.9283  0.2493
  114MOL   C40948095   3.576   1.524   4.362  0.1484 -0.3092 -0.1947
  114MOL   C41048096   3.683   1.490   4.450 -0.4163 -0.0095 -1.3472
  114MOL   C41148097   4.149   1.434   4.753 -0.4534  0.6685  0.1685
  114MOL   H41248098   3.947   1.461   4.822 -1.5882  0.5032 -0.9834
  114MOL   H41348099   3.939   1.275   4.641  2.4107 -0.1840 -4.5833
  114MOL   H41448100   3.887   1.342   4.493  1.6357  2.1606 -0.8720
  114MOL   H41548101   3.512   1.343   4.702 -1.3071 -0.0028 -0.4956
  114MOL   H41648102   3.316   1.377   4.540 -1.1049  3.2021  0.4394
  114MOL   H41748103   3.364   1.503   4.332 -1.2975 -1.9798  1.0528
  114MOL   H41848104   3.590   1.590   4.278 -1.9526  0.3948 -0.0122
  114MOL   H41948105   3.778   1.541   4.440  0.3464 -0.8749  1.1047
  114MOL   H42048106   4.143   1.329   4.725 -0.5339  0.0644  2.4203
  114MOL   H42148107   4.195   1.441   4.851 -1.6242  0.5873  0.7248
  114MOL   H42248108   4.223   1.480   4.686 -0.8345 -0.6901 -1.2126
  115MOL     C148109   0.814   3.037   5.062 -0.7268  0.2225  0.0902
  115MOL     O248110   0.719   3.140   5.015  0.0675 -0.1147 -0.0711
  115MOL     C348111   0.605   3.150   5.096 -0.5111 -0.5430  0.2156
  115MOL     O448112   0.644   3.211   5.212  0.0988  0.3321  0.0905
  115MOL     C548113   0.662   3.346   5.212  0.1560 -0.0594  0.1851
  115MOL     C648114   0.713   3.427   5.105 -0.0750  0.5022  0.5101
  115MOL     C748115   0.725   3.566   5.111  0.0656  0.2462  0.5278
  115MOL     C848116   0.699   3.628   5.237  0.1224  0.9790  0.4300
  115MOL     C948117   0.654   3.547   5.346  0.4785 -0.4288 -0.4726
  115MOL    C1048118   0.643   3.410   5.336  0.0398  0.1442  0.2066
  115MOL    C1148119   0.935   3.009   4.973 -0.2047 -0.1219 -0.6869
  115MOL    H1248120   0.841   3.058   5.166  1.7071  1.8291 -0.8473
  115MOL    H1348121   0.528   3.198   5.036  0.7244  0.4397 -0.5970
  115MOL    H1448122   0.560   3.052   5.113 -1.7942 -0.1617 -0.8483
  115MOL    H1548123   0.722   3.381   5.008 -0.1993 -2.4436  1.8158
  115MOL    H1648124   0.758   3.630   5.031 -1.7412  1.1405  0.4587
  115MOL    H1748125   0.710   3.734   5.251 -1.0464  1.7055 -3.4586
  115MOL    H1848126   0.614   3.604   5.429  0.3669 -0.3762 -0.5636
  115MOL    H1948127   0.590   3.350   5.408 -0.0691  0.4617  0.3920
  115MOL    H2048128   0.898   2.999   4.871 -1.1673 -1.5128 -0.2272
  115MOL    H2148129   0.987   2.919   5.004 -0.1250  0.5783  1.2559
  115MOL    H2248130   0.757   2.944   5.063  0.1504 -0.3260 -0.7502
  115MOL    C2348131   1.048   3.112   4.978  0.3433  0.6066  0.4481
  115MOL    O2448132   1.148   3.061   4.896 -0.1898  0.0747  0.0559
  115MOL    C2548133   1.160   3.102   4.763  0.0923  0.5400 -0.0085
  115MOL    O2648134   1.082   3.017   4.684  0.1034 -0.5063 -0.3280
  115MOL    C2748135   1.127   2.904   4.629 -0.4622  0.2612  0.1896
  115MOL    C2848136   1.053   2.838   4.531 -0.1804  0.1666 -0.0141
  115MOL    C2948137   1.095   2.720   4.474  0.7068  0.2976  0.0044
  115MOL    C3048138   1.215   2.666   4.507 -0.4264 -0.5069  0.2516
  115MOL    C3148139   1.290   2.729   4.607  0.2154  0.0953  1.1305
  115MOL    C3248140   1.247   2.839   4.675  0.5668 -0.3056  0.1923
  115MOL    C3348141   1.100   3.130   5.123  0.9054  0.3952 -0.4371
  115MOL    H3448142   1.018   3.204   4.927  0.5383 -0.7407 -2.1727
  115MOL    H3548143   1.263   3.092   4.731 -0.4469 -0.3060 -1.5260
  115MOL    H3648144   1.136   3.207   4.744  1.3821  0.6942 -0.8304
  115MOL    H3748145   0.956   2.872   4.498 -0.1381  0.7978  0.4944
  115MOL    H3848146   1.031   2.661   4.409  2.3247  0.3168 -1.6545
  115MOL    H3948147   1.248   2.572   4.465  1.0859  0.7665 -1.4910
  115MOL    H4048148   1.383   2.685   4.642  0.7345  0.9904  0.8963
  115MOL    H4148149   1.307   2.883   4.753 -0.1695  1.4254 -0.1693
  115MOL    H4248150   1.209   3.134   5.116  1.2044 -3.5211  0.9254
  115MOL    H4348151   1.063   3.055   5.193  0.1712 -0.1593 -1.4115
  115MOL    C4448152   1.059   3.271   5.180 -0.1744  0.0792 -0.8051
  115MOL    O4548153   1.131   3.368   5.108  0.2658  0.4719  0.0702
  115MOL    C4648154   1.060   3.476   5.051  0.2014  0.5161  0.2328
  115MOL    O4748155   0.968   3.440   4.955  0.1875  0.3499 -1.0339
  115MOL    C4848156   1.009   3.445   4.826 -1.2217  0.1901  0.5819
  115MOL    C4948157   1.144   3.462   4.791 -0.3007  0.5073  0.4411
  115MOL    C5048158   1.176   3.460   4.649 -0.4944  0.1298  0.7328
  115MOL    C5148159   1.077   3.444   4.549  0.4051 -0.3396  0.2313
  115MOL    C5248160   0.943   3.417   4.588 -0.1600  0.3427 -0.2064
  115MOL    C5348161   0.913   3.425   4.731 -0.1434 -0.5288  0.1637
  115MOL    C5448162   1.099   3.267   5.336 -0.0203 -0.3977  0.7311
  115MOL    H5548163   0.954   3.293   5.162 -0.5107  0.5408  1.5115
  115MOL    H5648164   1.131   3.551   5.017 -0.4867  1.8541  1.6751
  115MOL    H5748165   1.005   3.519   5.135 -1.7707 -1.9873  0.2642
  115MOL    H5848166   1.230   3.482   4.852  0.4154  0.5457 -0.5667
  115MOL    H5948167   1.282   3.470   4.628 -0.8176 -1.7546 -2.0682
  115MOL    H6048168   1.112   3.457   4.448  1.5154  1.1759  0.7868
  115MOL    H6148169   0.864   3.398   4.517 -0.6831 -1.2358  0.7715
  115MOL    H6248170   0.817   3.412   4.780 -0.3363 -0.7577 -0.2666
  115MOL    H6348171   1.046   3.188   5.389  0.2106 -1.0469  0.0011
  115MOL    H6448172   1.206   3.246   5.347 -0.1817 -2.5115 -1.4431
  115MOL    C6548173   1.076   3.403   5.412 -0.0414  0.4908  0.6227
  115MOL    O6648174   1.073   3.381   5.553 -0.4586  0.0641  0.2694
  115MOL    C6748175   0.956   3.331   5.602  0.0169 -1.2421  0.5573
  115MOL    O6848176   0.883   3.424   5.667 -0.0960  0.1057 -0.2442
  115MOL    C6948177   0.933   3.478   5.783  0.2801  0.1953 -0.9985
  115MOL    C7048178   1.044   3.424   5.859  0.0073 -0.3719  0.2607
  115MOL    C7148179   1.073   3.484   5.984  0.4298  0.0981 -0.5476
  115MOL    C7248180   1.007   3.606   6.018  0.6456 -0.5193 -0.1445
  115MOL    C7348181   0.907   3.657   5.941 -0.2192 -0.9041 -0.2141
  115MOL    C7448182   0.861   3.594   5.823  1.1105 -0.4163 -0.6193
  115MOL    C7548183   1.178   3.511   5.384 -0.5668  0.4557  0.4448
  115MOL    H7648184   0.982   3.450   5.383  0.4815  0.0333 -1.8922
  115MOL    H7748185   0.985   3.248   5.665  1.8603 -0.2020  1.1465
  115MOL    H7848186   0.891   3.294   5.523 -0.7582 -1.8605  1.4768
  115MOL    H7948187   1.092   3.334   5.822  1.1261  1.0768 -1.9102
  115MOL    H8048188   1.146   3.449   6.055 -2.6645 -1.6980  1.9122
  115MOL    H8148189   1.042   3.661   6.104 -0.7924  0.2062 -0.0220
  115MOL    H8248190   0.863   3.753   5.965  2.2589  0.4304 -0.7907
  115MOL    H8348191   0.781   3.644   5.772 -0.0574 -2.7212 -1.1074
  115MOL    H8448192   1.263   3.482   5.446 -0.8450 -2.9345 -0.6498
  115MOL    H8548193   1.201   3.520   5.278  2.6652  0.0893  1.0702
  115MOL    C8648194   1.151   3.656   5.438  0.1140  0.0448  0.3044
  115MOL    O8748195   1.269   3.733   5.431  0.3977 -0.2547 -0.1231
  115MOL    C8848196   1.347   3.732   5.545  1.0372  0.3339  0.1695
  115MOL    O8948197   1.407   3.610   5.582 -0.0371  0.1863 -0.2796
  115MOL    C9048198   1.416   3.588   5.722  0.8246  0.3973 -0.8020
  115MOL    C9148199   1.389   3.454   5.760  0.4126  0.1311  0.4732
  115MOL    C9248200   1.409   3.416   5.894 -0.1499  0.2302  0.8804
  115MOL    C9348201   1.449   3.512   5.988 -0.4963  0.8278  0.4145
  115MOL    C9448202   1.492   3.643   5.945 -0.0822 -0.0439  0.4502
  115MOL    C9548203   1.462   3.683   5.815 -0.0262  0.3113  0.5318
  115MOL    C9648204   1.034   3.710   5.349  0.1851 -0.0963 -0.3194
  115MOL    H9748205   1.113   3.647   5.540 -0.0131 -0.5449  0.2097
  115MOL    H9848206   1.285   3.784   5.619 -1.3852 -1.8180 -0.2956
  115MOL    H9948207   1.428   3.799   5.517  1.1391  1.1878  2.4031
  115MOL   H10048208   1.358   3.388   5.680 -0.5118  0.8466  0.2276
  115MOL   H10148209   1.374   3.318   5.922 -0.0999  0.0691  0.3664
  115MOL   H10248210   1.452   3.491   6.094  1.6271 -1.0508  0.0294
  115MOL   H10348211   1.537   3.719   6.007 -0.1712 -0.7887  1.4569
  115MOL   H10448212   1.483   3.780   5.775  1.5842  0.5415  1.8667
  115MOL   H10548213   1.070   3.707   5.246 -1.1841  1.1695 -0.8619
  115MOL   H10648214   0.942   3.652   5.358 -0.1800  0.6991  1.3680
  115MOL   C10748215   0.982   3.848   5.388 -0.2438 -0.0964 -0.0734
  115MOL   O10848216   0.923   3.913   5.278  0.4606  0.3722 -0.1532
  115MOL   C10948217   1.014   3.992   5.211 -0.9070 -0.0648  0.1420
  115MOL   O11048218   1.080   3.914   5.118  0.5176  0.4332 -0.1192
  115MOL   C11148219   1.018   3.878   5.001  0.0626  0.7927  0.1566
  115MOL   C11248220   0.886   3.911   4.967 -0.1265 -0.0955 -0.3680
  115MOL   C11348221   0.842   3.893   4.834  0.2446 -0.9423 -0.7779
  115MOL   C11448222   0.923   3.835   4.738  0.1976  0.0334  0.1534
  115MOL   C11548223   1.046   3.782   4.781 -0.2461 -0.0712 -0.1238
  115MOL   C11648224   1.091   3.797   4.915  0.1305 -0.2832  0.0116
  115MOL   C11748225   0.881   3.834   5.512 -0.7605 -0.2063  0.0439
  115MOL   H11848226   1.067   3.895   5.437 -0.9730  2.2724 -0.9974
  115MOL   H11948227   1.088   4.033   5.280 -0.2126 -1.5721  0.3287
  115MOL   H12048228   0.956   4.069   5.161 -1.0949 -1.4877 -1.8905
  115MOL   H12148229   0.819   3.961   5.036 -1.7906 -1.0901 -1.2387
  115MOL   H12248230   0.742   3.922   4.803  0.6280 -0.9909 -2.0644
  115MOL   H12348231   0.885   3.816   4.639 -1.0835  1.7090  0.2915
  115MOL   H12448232   1.109   3.718   4.721 -1.3743 -0.4744 -0.9092
  115MOL   H12548233   1.186   3.767   4.956  1.0358  1.7540 -0.5424
  115MOL   H12648234   0.928   3.782   5.596 -0.8701  2.7587  2.0259
  115MOL   H12748235   0.798   3.773   5.476  0.4515 -0.5437 -2.2089
  115MOL   C12848236   0.830   3.969   5.562 -0.5974  0.2027  0.6464
  115MOL   O12948237   0.938   4.051   5.600  0.1464  0.0520  0.0532
  115MOL   C13048238   0.941   4.181   5.560 -0.0550 -0.1036  1.4126
  115MOL   O13148239   0.824   4.249   5.584 -0.2614 -0.8018 -0.0246
  115MOL   C13248240   0.816   4.307   5.706 -0.6950  0.1386 -0.7469
  115MOL   C13348241   0.874   4.246   5.823  0.1070 -0.2186 -0.1287
  115MOL   C13448242   0.870   4.312   5.952 -0.2236 -0.1055  0.4600
  115MOL   C13548243   0.805   4.436   5.964  0.2711 -0.6759 -0.7817
  115MOL   C13648244   0.752   4.500   5.844  0.1043 -0.3253 -0.5745
  115MOL   C13748245   0.756   4.435   5.718  0.2294  0.2045 -0.0001
  115MOL   C13848246   0.736   3.957   5.688  0.5198 -0.2936  0.9025
  115MOL   H13948247   0.787   4.012   5.472 -0.8598 -1.9430 -0.2826
  115MOL   H14048248   0.952   4.175   5.452 -0.7744 -0.0502  1.3343
  115MOL   H14148249   1.034   4.231   5.588 -0.1757 -0.4998  2.5456
  115MOL   H14248250   0.920   4.149   5.820  0.8765  0.1558 -0.4939
  115MOL   H14348251   0.917   4.263   6.037 -1.4674  0.1773  1.3192
  115MOL   H14448252   0.806   4.492   6.056  0.9795  1.4201 -2.0123
  115MOL   H14548253   0.711   4.599   5.854  1.1379  0.0473  0.1846
  115MOL   H14648254   0.735   4.483   5.624  1.4808  1.6846  0.4458
  115MOL   H14748255   0.792   3.902   5.763 -1.0878 -1.0482  1.5669
  115MOL   H14848256   0.709   4.056   5.725  0.1000  0.5541 -1.5548
  115MOL   C14948257   0.604   3.887   5.659 -0.2013 -0.5875  1.1882
  115MOL   O15048258   0.553   3.839   5.784  0.5349 -0.4022  0.2010
  115MOL   C15148259   0.463   3.737   5.805  0.6793  0.5821 -0.5001
  115MOL   O15248260   0.517   3.624   5.760  0.1334 -0.1314 -0.2791
  115MOL   C15348261   0.450   3.501   5.770  0.1688 -0.0359  1.1606
  115MOL   C15448262   0.490   3.397   5.678 -0.2583  0.0774 -0.0983
  115MOL   C15548263   0.417   3.276   5.673  0.3491  0.0637  0.4361
  115MOL   C15648264   0.310   3.261   5.763  0.0627  0.7252 -0.0584
  115MOL   C15748265   0.267   3.365   5.848 -0.0882 -0.3419 -0.3006
  115MOL   C15848266   0.328   3.489   5.848  0.4129  0.4423 -0.5563
  115MOL   C15948267   0.503   3.947   5.563  0.3637 -0.6822  0.0628
  115MOL   H16048268   0.624   3.793   5.608 -0.2893  0.0480 -0.0388
  115MOL   H16148269   0.453   3.738   5.914 -0.5247  0.5705 -0.6057
  115MOL   H16248270   0.364   3.752   5.762  0.4437 -2.4344 -1.1118
  115MOL   H16348271   0.578   3.403   5.616 -0.2390  0.1602 -0.0648
  115MOL   H16448272   0.433   3.193   5.605  0.1537  0.3135  0.0778
  115MOL   H16548273   0.261   3.165   5.771  0.5501  0.7315  4.0229
  115MOL   H16648274   0.194   3.344   5.925  0.2060  0.3717  0.1790
  115MOL   H16748275   0.292   3.572   5.907  0.9892  1.7863 -2.0387
  115MOL   H16848276   0.429   3.868   5.547 -1.3256  0.3798  2.2713
  115MOL   H16948277   0.546   3.961   5.464  0.1351  0.7639  0.1600
  115MOL   C17048278   0.446   4.085   5.614  0.0362 -0.4727  0.5195
  115MOL   O17148279   0.385   4.153   5.513 -0.2341  0.3195  0.4864
  115MOL   C17248280   0.425   4.284   5.490  0.6586 -0.5504  0.5465
  115MOL   O17348281   0.394   4.364   5.603 -0.2367 -0.0016 -0.2877
  115MOL   C17448282   0.443   4.494   5.604 -0.1428  0.3307 -0.5834
  115MOL   C17548283   0.430   4.568   5.725 -0.0400  0.6719  0.6164
  115MOL   C17648284   0.471   4.702   5.737  0.1144 -0.3991 -0.0479
  115MOL   C17748285   0.521   4.772   5.625 -0.2380 -0.9261  0.1534
  115MOL   C17848286   0.529   4.701   5.503 -0.7367 -0.8634 -0.2756
  115MOL   C17948287   0.492   4.567   5.494 -0.2819 -0.4466  0.0964
  115MOL   C18048288   0.342   4.065   5.729  0.3121 -0.1705  0.8821
  115MOL   H18148289   0.534   4.137   5.652 -0.5841  1.8817 -1.1447
  115MOL   H18248290   0.377   4.330   5.404  0.6462 -0.2167  0.7317
  115MOL   H18348291   0.529   4.291   5.459  0.1015  0.7553 -1.0906
  115MOL   H18448292   0.406   4.509   5.813 -0.3876  0.5170  0.4195
  115MOL   H18548293   0.455   4.762   5.826 -0.2284 -1.7095  0.7943
  115MOL   H18648294   0.556   4.873   5.621  0.1165 -1.0637 -0.2057
  115MOL   H18748295   0.554   4.757   5.414 -1.6038  3.4245  2.0500
  115MOL   H18848296   0.495   4.528   5.394 -2.0307  0.7912 -0.4650
  115MOL   H18948297   0.251   4.116   5.698  0.0974 -0.0881  1.6398
  115MOL   H19048298   0.310   3.961   5.734  0.3530 -0.2825 -0.9389
  115MOL   C19148299   0.358   4.141   5.860 -0.0223  0.0810  0.3511
  115MOL   O19248300   0.475   4.084   5.922  0.4091  0.0514  0.1209
  115MOL   C19348301   0.549   4.165   6.003  0.3206  0.3915 -0.0183
  115MOL   O19448302   0.516   4.155   6.142  0.2274  0.8285 -0.1404
  115MOL   C19548303   0.586   4.054   6.203 -0.5225 -0.1888 -0.3742
  115MOL   C19648304   0.635   4.086   6.332 -0.0536 -0.1520  0.7673
  115MOL   C19748305   0.680   3.991   6.422  0.8843 -0.5775  0.2173
  115MOL   C19848306   0.689   3.862   6.378  0.9104  0.1285  0.1795
  115MOL   C19948307   0.639   3.819   6.252 -0.5567 -0.4609  0.4043
  115MOL   C20048308   0.594   3.918   6.162  0.2389 -0.6838  0.3580
  115MOL   C20148309   0.225   4.135   5.941 -0.4501 -0.5830  0.1335
  115MOL   H20248310   0.378   4.245   5.832 -2.6152  0.4538 -0.2664
  115MOL   H20348311   0.540   4.270   5.978 -0.3017  0.4980  0.6163
  115MOL   H20448312   0.652   4.142   5.979  0.5624 -0.1815  1.4958
  115MOL   H20548313   0.639   4.188   6.366  0.3752 -0.4502  1.6216
  115MOL   H20648314   0.718   4.024   6.518  0.4636  0.2146  0.1211
  115MOL   H20748315   0.738   3.789   6.440 -0.8112 -0.9978  0.2590
  115MOL   H20848316   0.640   3.717   6.216 -0.6931 -0.3102 -0.0280
  115MOL   H20948317   0.573   3.890   6.059  0.6438  0.5696 -0.0792
  115MOL   H21048318   0.144   4.130   5.868  0.2582 -0.4145 -0.6728
  115MOL   H21148319   0.227   4.042   5.998  0.8101 -0.0931  0.9063
  115MOL   C21248320   0.192   4.250   6.032  0.3807 -0.7253 -0.4393
  115MOL   O21348321   0.179   4.368   5.944  0.4504 -0.1773  0.3465
  115MOL   C21448322   0.159   4.496   6.000  0.0474 -0.1082  0.7561
  115MOL   O21548323   0.271   4.568   6.024  0.0223  0.1870 -0.1998
  115MOL   C21648324   0.343   4.532   6.139 -0.4986  0.7851  0.7340
  115MOL   C21748325   0.475   4.484   6.130 -0.4895 -0.2801  0.1114
  115MOL   C21848326   0.540   4.441   6.244  0.6264  0.8079  0.1948
  115MOL   C21948327   0.471   4.442   6.368  0.5578 -0.9363  0.6081
  115MOL   C22048328   0.345   4.500   6.378  0.6895  0.6290 -0.0310
  115MOL   C22148329   0.273   4.538   6.264 -0.8014 -0.3851 -0.4549
  115MOL   C22248330   0.050   4.213   6.106 -0.4389  0.2790 -0.2987
  115MOL   H22348331   0.273   4.261   6.104 -1.2232 -1.1972  1.4796
  115MOL   H22448332   0.078   4.490   6.072 -1.2702  0.1507 -0.6706
  115MOL   H22548333   0.106   4.544   5.918 -0.1300 -0.1764  0.8287
  115MOL   H22648334   0.531   4.490   6.038 -1.0497  0.4132 -0.1885
  115MOL   H22748335   0.638   4.397   6.234 -0.1087 -1.0897  1.2418
  115MOL   H22848336   0.520   4.410   6.459  2.4413  4.0905  1.5145
  115MOL   H22948337   0.309   4.515   6.478  1.2250  0.1443  0.2435
  115MOL   H23048338   0.179   4.589   6.277  0.8099  2.5548 -0.0034
  115MOL   H23148339   7.954   4.290   6.077  0.8067  2.9139  3.2559
  115MOL   H23248340   0.008   4.120   6.069  2.5147 -0.8118 -1.0401
  115MOL   C23348341   0.064   4.218   6.260 -0.4997  0.1974 -0.4447
  115MOL   O23448342   7.908   4.245   6.312 -0.0638  0.6864 -0.0870
  115MOL   C23548343   7.882   4.371   6.360  0.2400 -0.5124  0.0354
  115MOL   O23648344   7.880   4.469   6.260  0.6365 -0.0400 -0.1993
  115MOL   C23748345   7.832   4.595   6.279 -0.2310 -0.0679 -0.3531
  115MOL   C23848346   7.772   4.642   6.401  0.9507  0.1156 -0.4042
  115MOL   C23948347   7.742   4.774   6.427  0.1925 -0.0780 -0.9267
  115MOL   C24048348   7.763   4.866   6.321 -0.3500  0.4943  0.5091
  115MOL   C24148349   7.824   4.825   6.196  0.5376  0.5464  0.3872
  115MOL   C24248350   7.849   4.685   6.177  0.5329 -0.7219 -0.2310
  115MOL   C24348351   0.118   4.092   6.329 -0.1409 -0.9305  0.1897
  115MOL   H24448352   0.126   4.306   6.275 -1.1498  0.6107 -0.1884
  115MOL   H24548353   7.957   4.405   6.431 -2.0707  0.5135  2.0610
  115MOL   H24648354   7.783   4.373   6.406  0.2850  1.6844  0.0940
  115MOL   H24748355   7.771   4.580   6.490  0.0700 -0.6313 -0.9323
  115MOL   H24848356   7.700   4.802   6.522  1.4187  0.3100 -0.4816
  115MOL   H24948357   7.741   4.969   6.344  2.3245  2.0402 -3.4681
  115MOL   H25048358   7.842   4.901   6.121 -0.9721  0.1034 -0.4664
  115MOL   H25148359   7.898   4.650   6.087  0.1697  1.2181 -1.2249
  115MOL   H25248360   0.051   4.008   6.310 -0.5072 -1.1348  2.2229
  115MOL   H25348361   0.213   4.062   6.284 -0.4681 -1.5810 -0.0741
  115MOL   C25448362   0.143   4.119   6.480 -0.5287  0.0301  0.3864
  115MOL   O25548363   0.115   4.001   6.564 -0.0010 -0.3531 -0.0485
  115MOL   C25648364   7.954   3.978   6.600  0.4630  0.9337  0.0351
  115MOL   O25748365   7.913   4.043   6.715  0.1003  0.5000  0.0115
  115MOL   C25848366   7.935   3.981   6.836 -0.8135  0.4280  0.6092
  115MOL   C25948367   7.903   4.073   6.936 -0.7542  0.3613 -0.4230
  115MOL   C26048368   7.928   4.037   7.069  0.4677 -0.2300  0.0583
  115MOL   C26148369   7.972   3.907   7.103  0.5275 -0.5572 -0.5933
  115MOL   C26248370   0.021   3.811   6.999  0.4835 -0.1968  0.2304
  115MOL   C26348371   0.002   3.850   6.867  0.0042  0.1774 -0.3156
  115MOL   C26448372   0.294   4.156   6.503  0.1076  0.1081  0.8797
  115MOL   H26548373   0.080   4.198   6.522 -0.3111  0.2279  0.3405
  115MOL   H26648374   7.944   3.870   6.603  1.1451  0.8533 -0.3519
  115MOL   H26748375   7.883   4.015   6.526  2.4334 -0.5123 -2.6717
  115MOL   H26848376   7.866   4.169   6.903 -0.4191  0.5515 -0.2438
  115MOL   H26948377   7.919   4.119   7.138 -0.0958  0.3593 -0.6986
  115MOL   H27048378   0.015   3.869   7.202 -0.1728  0.7220  0.0286
  115MOL   H27148379   0.035   3.708   7.029 -0.9622 -0.4104  0.2005
  115MOL   H27248380   0.016   3.772   6.793  1.1916 -0.0906  0.1792
  115MOL   H27348381   0.360   4.078   6.465  0.4371  1.3272 -1.1058
  115MOL   H27448382   0.319   4.231   6.428 -1.5832 -0.2349 -0.0508
  115MOL   C27548383   0.329   4.175   6.656  0.5895  0.7492 -0.7217
  115MOL   O27648384   0.464   4.211   6.681  0.1597 -0.2001  0.5317
  115MOL   C27748385   0.544   4.114   6.729  0.7003  0.7215  0.8117
  115MOL   O27848386   0.675   4.156   6.745 -0.1333  0.1223  0.0244
  115MOL   C27948387   0.772   4.061   6.774 -0.4906 -0.2245  0.6276
  115MOL   C28048388   0.908   4.102   6.785  0.2819 -0.2439  0.1677
  115MOL   C28148389   1.005   4.005   6.820  0.1890 -0.5658 -0.3121
  115MOL   C28248390   0.969   3.877   6.861 -0.3781  0.5462 -0.0403
  115MOL   C28348391   0.834   3.841   6.856  0.1381 -0.3914 -0.0982
  115MOL   C28448392   0.741   3.930   6.808  0.3446 -0.0152  0.0659
  115MOL   C28548393   0.248   4.283   6.724 -0.1034 -0.1908 -0.7874
  115MOL   H28648394   0.307   4.074   6.692  1.2649  0.3911 -1.3071
  115MOL   H28748395   0.536   4.033   6.656  0.2952 -0.7222  2.4400
  115MOL   H28848396   0.509   4.084   6.827 -0.1324 -0.2427  0.2275
  115MOL   H28948397   0.937   4.204   6.770 -1.1762  0.1910  0.2175
  115MOL   H29048398   1.106   4.034   6.846  0.7794 -3.7819  1.2217
  115MOL   H29148399   1.053   3.814   6.888 -0.5868  0.3712  0.2060
  115MOL   H29248400   0.806   3.746   6.898  0.9668 -1.4383 -1.8555
  115MOL   H29348401   0.635   3.908   6.807 -0.1871  2.2865  2.2478
  115MOL   H29448402   0.142   4.264   6.709 -0.0835 -1.3723  0.4670
  115MOL   H29548403   0.261   4.371   6.661 -0.4038  1.0405  0.8353
  115MOL   C29648404   0.290   4.302   6.868  0.1402 -0.9982 -0.1035
  115MOL   O29748405   0.226   4.425   6.910 -0.0760  0.6217  0.6114
  115MOL   C29848406   0.311   4.534   6.909  0.4347  0.3374  0.0802
  115MOL   O29948407   0.358   4.599   6.801  0.3910  0.3837 -0.0068
  115MOL   C30048408   0.271   4.677   6.729 -0.3066  0.1765 -0.8624
  115MOL   C30148409   0.137   4.701   6.768  0.1238 -0.1441 -0.5104
  115MOL   C30248410   0.051   4.776   6.684  0.1088  0.0298  0.4813
  115MOL   C30348411   0.103   4.824   6.562 -0.4145 -0.2269 -0.1189
  115MOL   C30448412   0.237   4.805   6.525  0.3546 -0.5860  0.5847
  115MOL   C30548413   0.322   4.728   6.608  0.0890 -0.5139  0.2652
  115MOL   C30648414   0.248   4.190   6.969 -0.4520 -0.2939  0.3981
  115MOL   H30748415   0.398   4.312   6.877  0.3584 -1.6956 -1.7357
  115MOL   H30848416   0.398   4.510   6.971  1.5915  1.5756 -1.0432
  115MOL   H30948417   0.259   4.600   6.979  1.0466  0.0347  0.8363
  115MOL   H31048418   0.099   4.664   6.862  0.2510  2.4607  0.6199
  115MOL   H31148419   7.925   4.788   6.720  0.2833 -1.7981  1.6812
  115MOL   H31248420   0.037   4.880   6.498 -0.0637 -0.3351 -0.5769
  115MOL   H31348421   0.277   4.856   6.439 -1.0926  0.6312  0.6074
  115MOL   H31448422   0.423   4.712   6.574 -0.1143 -1.7064  0.2106
  115MOL   H31548423   0.277   4.094   6.926 -0.0886  0.9768 -2.3559
  115MOL   H31648424   0.140   4.188   6.985 -0.8624 -2.0915 -2.1418
  115MOL   C31748425   0.331   4.199   7.098  0.0247 -0.0181 -0.7216
  115MOL   O31848426   0.460   4.145   7.078  0.2352  0.3484 -0.1784
  115MOL   C31948427   0.575   4.230   7.073  0.3165  0.5600  0.4811
  115MOL   O32048428   0.643   4.239   7.196  0.5527  0.6571  0.0235
  115MOL   C32148429   0.686   4.120   7.253 -0.1390  1.4965  0.1024
  115MOL   C32248430   0.735   4.136   7.389  0.6764  0.6206  0.2633
  115MOL   C32348431   0.788   4.029   7.458 -0.5253  0.2233 -0.6005
  115MOL   C32448432   0.777   3.904   7.404 -0.0529  1.1541  0.0852
  115MOL   C32548433   0.725   3.877   7.279  0.0046  0.2337  0.1953
  115MOL   C32648434   0.689   3.984   7.199  0.1967  0.8260  0.1670
  115MOL   C32748435   0.258   4.120   7.209  0.1046  0.6493 -0.1730
  115MOL   H32848436   0.339   4.305   7.122 -1.7620 -0.3214  1.3605
  115MOL   H32948437   0.547   4.328   7.035  2.6051  0.8342 -0.5902
  115MOL   H33048438   0.639   4.201   6.989 -2.8594  1.4852 -2.3485
  115MOL   H33148439   0.739   4.233   7.436 -0.5956  0.7370  0.1283
  115MOL   H33248440   0.845   4.046   7.548 -1.2657  0.4122 -0.1601
  115MOL   H33348441   0.815   3.823   7.465 -0.9453  0.6569 -0.0095
  115MOL   H33448442   0.740   3.781   7.230  1.1920  1.5197 -2.0277
  115MOL   H33548443   0.652   3.965   7.099 -0.2283 -1.9625  0.8185
  115MOL   H33648444   0.153   4.144   7.222  0.2175  0.5847  0.9904
  115MOL   H33748445   0.254   4.015   7.181  1.6856 -0.0883  2.1696
  115MOL   C33848446   0.324   4.137   7.339 -0.1960  0.5562  0.2382
  115MOL   O33948447   0.290   4.263   7.385 -0.1494 -0.2973  0.3169
  115MOL   C34048448   0.387   4.324   7.459 -0.2445  0.0406 -0.0502
  115MOL   O34148449   0.481   4.380   7.381 -0.5716  0.6613  0.1280
  115MOL   C34248450   0.457   4.496   7.320  0.1858  0.6785 -0.0221
  115MOL   C34348451   0.563   4.553   7.246  0.2970  0.6171  0.3903
  115MOL   C34448452   0.548   4.672   7.183  0.0997  0.1530  0.4506
  115MOL   C34548453   0.426   4.747   7.186 -0.0658  0.4609 -0.3488
  115MOL   C34648454   0.319   4.689   7.252 -0.3343  0.0741  0.1275
  115MOL   C34748455   0.334   4.562   7.314 -0.3555  0.5624  0.5563
  115MOL   C34848456   0.270   4.044   7.455 -0.3414 -0.1028  0.3393
  115MOL   H34948457   0.431   4.119   7.332 -0.4919 -2.0465  1.7863
  115MOL   H35048458   0.424   4.250   7.529  0.2880  1.4602  1.2033
  115MOL   H35148459   0.349   4.406   7.521 -0.9709  1.2054 -1.9584
  115MOL   H35248460   0.659   4.504   7.252 -0.0412  0.0595  1.5156
  115MOL   H35348461   0.637   4.708   7.134  0.4384  0.6742  1.4448
  115MOL   H35448462   0.413   4.841   7.136 -0.6888  0.1242 -0.8270
  115MOL   H35548463   0.221   4.735   7.253 -0.7358 -0.7970  1.6934
  115MOL   H35648464   0.247   4.511   7.352  0.4423 -0.6747  0.7372
  115MOL   H35748465   0.171   4.079   7.481 -0.6675 -0.4965 -0.3549
  115MOL   H35848466   0.330   4.044   7.546 -1.3531 -0.0101  1.0140
  115MOL   C35948467   0.271   3.890   7.433  0.0122 -0.5669  0.5136
  115MOL   O36048468   0.190   3.833   7.540  0.4193  0.2959 -0.6744
  115MOL   C36148469   0.064   3.772   7.507  0.2500 -0.0474  0.2649
  115MOL   O36248470   7.944   3.854   7.443 -0.7681  0.0262  0.3701
  115MOL   C36348471   7.903   3.968   7.506 -0.3754  0.5532 -0.1160
  115MOL   C36448472   7.940   3.995   7.637 -0.4900 -0.2279 -0.2198
  115MOL   C36548473   7.897   4.117   7.700 -0.2115  0.1002 -0.0650
  115MOL   C36648474   7.823   4.211   7.622 -0.0864 -0.4379  0.0258
  115MOL   C36748475   7.786   4.183   7.483 -0.8043 -0.0057 -0.1431
  115MOL   C36848476   7.819   4.054   7.433  0.0686  0.0959 -0.3725
  115MOL   C36948477   0.410   3.819   7.435  0.5081 -0.0850  0.2929
  115MOL   H37048478   0.214   3.874   7.341 -1.8073 -0.6502  1.6220
  115MOL   H37148479   0.015   3.734   7.596  2.1856 -1.2923  0.8518
  115MOL   H37248480   0.078   3.684   7.444  1.2759 -1.7099  2.7019
  115MOL   H37348481   0.023   3.921   7.689 -2.6805 -3.1277 -1.7813
  115MOL   H37448482   7.915   4.139   7.804 -1.6597  0.7747  0.0620
  115MOL   H37548483   7.792   4.301   7.673  2.0778  1.1235 -1.2913
  115MOL   H37648484   7.734   4.258   7.426  0.6051  0.5415 -0.7342
  115MOL   H37748485   7.794   4.027   7.331  2.1350  0.2547 -0.9410
  115MOL   H37848486   0.459   3.815   7.532  1.1546  0.4929 -0.0032
  115MOL   H37948487   0.481   3.889   7.389 -0.9890  0.3737 -1.3874
  115MOL   C38048488   0.416   3.685   7.362 -0.1512  0.7991  0.2901
  115MOL   O38148489   0.340   3.680   7.239 -0.2378  0.0488  0.7310
  115MOL   C38248490   0.374   3.762   7.133  0.0352  0.1816  0.4273
  115MOL   O38348491   0.465   3.690   7.054 -0.0242 -0.6021  0.1211
  115MOL   C38448492   0.458   3.699   6.915  0.2953  0.2978  0.1811
  115MOL   C38548493   0.548   3.620   6.847  0.5741  0.0194  0.3524
  115MOL   C38648494   0.542   3.617   6.707  0.0473  0.2687  0.0955
  115MOL   C38748495   0.453   3.695   6.634 -0.5785 -0.7143 -0.0058
  115MOL   C38848496   0.368   3.778   6.700 -0.0898  0.4778  0.2039
  115MOL   C38948497   0.369   3.778   6.839  0.3412  0.5276 -0.4608
  115MOL   C39048498   0.359   3.561   7.444 -0.9378 -0.5486  0.3729
  115MOL   H39148499   0.522   3.667   7.342 -0.6287 -2.0920  0.0257
  115MOL   H39248500   0.284   3.790   7.078  0.1233  0.2913  0.3394
  115MOL   H39348501   0.415   3.859   7.160 -1.9748  1.6688 -1.6977
  115MOL   H39448502   0.619   3.559   6.901  0.6640 -1.0949 -1.0148
  115MOL   H39548503   0.608   3.562   6.642 -0.4248  0.6250 -0.6931
  115MOL   H39648504   0.449   3.691   6.526  1.3100 -1.6571 -0.0497
  115MOL   H39748505   0.294   3.838   6.649  0.1003  0.8407  0.3517
  115MOL   H39848506   0.296   3.844   6.882 -1.5886 -0.7714 -1.6711
  115MOL   H39948507   0.250   3.559   7.449 -0.8693 -0.6049  2.4218
  115MOL   H40048508   0.394   3.565   7.547 -0.8205  0.4215  0.3032
  115MOL   C40148509   0.399   3.432   7.377 -0.0991  0.3582 -0.4337
  115MOL   O40248510   0.529   3.409   7.433 -0.3911 -0.2195 -0.0703
  115MOL   C40348511   0.609   3.329   7.355  0.3636  0.2139  0.7791
  115MOL   O40448512   0.652   3.395   7.244  0.5629  0.4941 -0.1021
  115MOL   C40548513   0.763   3.475   7.251 -0.4453 -0.4309  0.2300
  115MOL   C40648514   0.821   3.527   7.365 -0.2128  0.2152 -0.0655
  115MOL   C40748515   0.932   3.613   7.362  0.4757 -0.2943 -0.6309
  115MOL   C40848516   0.998   3.638   7.239  0.3724  0.1852 -0.1087
  115MOL   C40948517   0.942   3.585   7.117  0.6348  0.1794 -0.4556
  115MOL   C41048518   0.824   3.508   7.128  0.1574 -0.4159 -0.6903
  115MOL   C41148519   0.308   3.322   7.442 -0.4652  0.5223  0.1272
  115MOL   H41248520   0.400   3.433   7.268 -0.4515  0.7629 -0.4338
  115MOL   H41348521   0.560   3.239   7.317  0.4696  0.6202 -0.3256
  115MOL   H41448522   0.698   3.301   7.411  0.0915 -1.0847  0.5870
  115MOL   H41548523   0.777   3.512   7.463 -0.8101  2.6140  0.0657
  115MOL   H41648524   0.965   3.648   7.459 -1.7194 -3.0255  1.1821
  115MOL   H41748525   1.084   3.703   7.240 -0.9736  2.0095 -1.0930
  115MOL   H41848526   0.993   3.611   7.025  2.8372 -1.5093  0.2399
  115MOL   H41948527   0.768   3.482   7.039 -0.2052 -1.7911 -0.0749
  115MOL   H42048528   0.344   3.222   7.420  0.4846  0.4930  1.7378
  115MOL   H42148529   0.200   3.324   7.428 -0.1408  1.7351 -2.6119
  115MOL   H42248530   0.327   3.345   7.547  0.9267  1.1726 -0.2443
  116MOL     C148531   2.230   1.197   7.604 -0.2676  0.7022  0.5647
  116MOL     O248532   2.164   1.202   7.732 -0.0304  0.7106  0.1811
  116MOL     C348533   2.257   1.188   7.837 -0.1909 -0.0690 -0.0641
  116MOL     O448534   2.323   1.309   7.856 -0.1883  0.3217  0.8567
  116MOL     C548535   2.240   1.416   7.893  0.2000  0.2518 -0.0078
  116MOL     C648536   2.097   1.410   7.907  0.1761 -0.3774  0.0743
  116MOL     C748537   2.024   1.528   7.935 -0.3400  0.6898 -0.3730
  116MOL     C848538   2.089   1.653   7.951 -0.3335  0.4854 -0.5108
  116MOL     C948539   2.230   1.658   7.937 -0.3228 -0.3922  0.2775
  116MOL    C1048540   2.303   1.543   7.913 -0.9115 -0.0090 -0.4344
  116MOL    C1148541   2.112   1.177   7.505 -0.1973 -0.6736  0.4713
  116MOL    H1248542   2.287   1.286   7.576 -1.3392  1.2375  0.0370
  116MOL    H1348543   2.204   1.170   7.930  0.3961 -1.0362  0.0832
  116MOL    H1448544   2.335   1.112   7.832 -1.0855 -0.8855 -1.9861
  116MOL    H1548545   2.045   1.317   7.893 -0.0475 -0.1044 -0.9350
  116MOL    H1648546   1.917   1.524   7.949 -0.2131 -1.7970  0.1043
  116MOL    H1748547   2.028   1.740   7.970 -0.3661  0.5468 -0.8931
  116MOL    H1848548   2.281   1.750   7.964  0.3636 -0.8235  0.4744
  116MOL    H1948549   2.410   1.557   7.904 -0.9715  1.5315  1.0874
  116MOL    H2048550   2.081   1.277   7.474  0.1719 -1.3909 -2.3447
  116MOL    H2148551   2.031   1.115   7.542  0.2580 -3.3710 -2.8283
  116MOL    H2248552   2.288   1.106   7.597  0.7611  1.4399 -0.8568
  116MOL    C2348553   2.152   1.108   7.372 -1.0141  0.2090 -0.5458
  116MOL    O2448554   2.269   1.163   7.313  0.3743 -0.3525  0.2333
  116MOL    C2548555   2.383   1.090   7.303  0.1861 -0.0282 -0.1770
  116MOL    O2648556   2.362   0.996   7.200  0.2470  0.6087 -0.4868
  116MOL    C2748557   2.390   1.029   7.068 -1.2114 -0.3366  0.6935
  116MOL    C2848558   2.390   1.163   7.030  0.7902  0.1052  0.4226
  116MOL    C2948559   2.405   1.199   6.896 -0.3976 -0.9662  0.3190
  116MOL    C3048560   2.430   1.096   6.799  0.5133  0.5253 -0.2454
  116MOL    C3148561   2.421   0.963   6.834 -0.8325  0.1143  0.4983
  116MOL    C3248562   2.405   0.933   6.972  0.7651 -0.4841  0.0074
  116MOL    C3348563   2.039   1.109   7.271  0.0090  0.0356  0.1346
  116MOL    H3448564   2.175   1.002   7.385 -0.8165  0.2924 -0.2091
  116MOL    H3548565   2.419   1.031   7.388 -0.9497 -0.3282  0.0972
  116MOL    H3648566   2.468   1.157   7.290 -0.3455  0.5641 -0.5795
  116MOL    H3748567   2.375   1.244   7.100 -0.3871  0.5681 -0.3408
  116MOL    H3848568   2.390   1.294   6.847  1.8788 -1.1620 -0.8489
  116MOL    H3948569   2.426   1.104   6.691 -0.4817 -2.0746 -0.4388
  116MOL    H4048570   2.432   0.894   6.752 -0.0865 -0.5091  1.1207
  116MOL    H4148571   2.395   0.829   7.001  1.0359 -1.2991 -2.6426
  116MOL    H4248572   2.085   1.102   7.172 -1.9007 -0.2529 -0.7498
  116MOL    H4348573   2.004   1.212   7.267  1.9966  0.7377  0.3766
  116MOL    C4448574   1.933   1.001   7.284 -0.0630  0.7354  0.5656
  116MOL    O4548575   1.953   0.921   7.169  0.4518 -0.3111  0.0165
  116MOL    C4648576   2.060   0.828   7.169 -0.2828 -0.0066  0.7987
  116MOL    O4748577   2.057   0.739   7.279 -0.7800 -0.7442 -0.0573
  116MOL    C4848578   1.966   0.637   7.274  0.8098  0.9095 -0.9040
  116MOL    C4948579   1.873   0.615   7.169  0.0633  0.2541 -0.2784
  116MOL    C5048580   1.796   0.498   7.168  0.4805  0.3042  0.4107
  116MOL    C5148581   1.812   0.400   7.268  0.6028 -0.7601 -0.4876
  116MOL    C5248582   1.895   0.437   7.378  0.2624 -0.8902 -0.5843
  116MOL    C5348583   1.967   0.555   7.384  0.3994 -0.1505 -0.0124
  116MOL    C5448584   1.788   1.046   7.302 -0.5746  0.0569 -0.4614
  116MOL    H5548585   1.955   0.937   7.370 -0.4733 -1.9629 -1.2729
  116MOL    H5648586   2.150   0.885   7.191 -0.1790  0.1423 -0.0102
  116MOL    H5748587   2.081   0.772   7.078  2.9827 -0.0090  1.4931
  116MOL    H5848588   1.871   0.685   7.088  0.1256  0.3556 -0.1929
  116MOL    H5948589   1.722   0.478   7.091 -0.3506 -0.5658  1.4223
  116MOL    H6048590   1.750   0.313   7.256  0.1050 -0.2176 -2.0166
  116MOL    H6148591   1.919   0.368   7.457  0.6427  0.5530  0.5790
  116MOL    H6248592   2.023   0.578   7.474 -0.6019 -3.0856  1.4353
  116MOL    H6348593   1.787   1.078   7.407 -0.7308  0.3553 -0.5523
  116MOL    H6448594   1.772   1.135   7.241  1.5045  2.4926  2.3941
  116MOL    C6548595   1.672   0.945   7.296 -0.9402  0.3013 -0.2570
  116MOL    O6648596   1.560   0.985   7.374 -0.3573  0.1374 -0.3414
  116MOL    C6748597   1.556   0.956   7.510  0.2541 -0.0847  0.4388
  116MOL    O6848598   1.520   0.823   7.541 -0.3819 -0.5756 -0.2767
  116MOL    C6948599   1.383   0.798   7.548  0.3523  0.7170 -0.3579
  116MOL    C7048600   1.284   0.867   7.470 -0.2554 -0.0435 -0.9424
  116MOL    C7148601   1.150   0.832   7.489  0.4597 -0.1330  0.2883
  116MOL    C7248602   1.110   0.739   7.587  0.0358  0.7102  0.3043
  116MOL    C7348603   1.204   0.670   7.664 -0.1895  0.4280 -1.1002
  116MOL    C7448604   1.339   0.705   7.647 -0.6526  0.2036  0.1204
  116MOL    C7548605   1.622   0.946   7.151  0.9985 -0.1844 -0.5255
  116MOL    H7648606   1.717   0.855   7.338  1.3276  0.6600 -1.9051
  116MOL    H7748607   1.480   1.025   7.545  1.6598  0.8108  1.7470
  116MOL    H7848608   1.656   0.979   7.546  0.4745 -0.7267  0.2527
  116MOL    H7948609   1.310   0.940   7.395  2.6207  0.3369  0.3546
  116MOL    H8048610   1.081   0.873   7.417  0.7508 -2.7907 -1.5748
  116MOL    H8148611   1.005   0.722   7.604 -0.0297  2.2785  1.5800
  116MOL    H8248612   1.165   0.591   7.727  0.3622  1.4489  0.5331
  116MOL    H8348613   1.410   0.659   7.714 -1.9200 -0.4100  1.0678
  116MOL    H8448614   1.606   1.048   7.116 -1.5565 -0.3252  0.1429
  116MOL    H8548615   1.714   0.929   7.095 -0.0654  0.3613 -2.4917
  116MOL    C8648616   1.511   0.847   7.115 -0.1461 -0.8396  0.0677
  116MOL    O8748617   1.480   0.881   6.973  0.0439  0.3191 -0.0747
  116MOL    C8848618   1.390   0.982   6.952  0.0462 -0.1575 -0.2792
  116MOL    O8948619   1.261   0.952   6.991 -0.1880 -0.0135  0.1111
  116MOL    C9048620   1.200   0.860   6.905 -0.3697  0.6312 -0.0678
  116MOL    C9148621   1.252   0.811   6.788 -0.6113  0.0790  0.4126
  116MOL    C9248622   1.174   0.729   6.707  0.0254 -0.1177 -0.1551
  116MOL    C9348623   1.049   0.682   6.745  0.1952  0.6399 -0.9257
  116MOL    C9448624   0.998   0.727   6.870 -0.1006  0.3409  1.3192
  116MOL    C9548625   1.070   0.819   6.946 -0.0984 -0.0780  0.0774
  116MOL    C9648626   1.551   0.700   7.111 -0.3496 -0.0733 -0.6653
  116MOL    H9748627   1.418   0.842   7.171 -0.7008 -2.3904 -0.9549
  116MOL    H9848628   1.389   1.035   6.857  0.9100  0.5798  0.0981
  116MOL    H9948629   1.418   1.052   7.032  0.7249  0.6097 -1.1665
  116MOL   H10048630   1.346   0.846   6.748 -1.3116 -0.3336 -1.6808
  116MOL   H10148631   1.217   0.677   6.623  0.0125  1.3491 -1.0795
  116MOL   H10248632   0.985   0.618   6.685 -0.8618  1.2855 -0.5123
  116MOL   H10348633   0.904   0.698   6.913 -1.3726  1.6203 -0.5232
  116MOL   H10448634   1.035   0.849   7.044  3.3312 -1.7246  1.8704
  116MOL   H10548635   1.618   0.697   7.025  0.4667  1.2292 -0.0983
  116MOL   H10648636   1.610   0.683   7.201 -1.2951 -2.1408 -0.4240
  116MOL   C10748637   1.423   0.606   7.089  0.1269 -0.4214  0.4348
  116MOL   O10848638   1.463   0.480   7.037 -0.1154  1.0316  0.6116
  116MOL   C10948639   1.482   0.467   6.900 -0.1755  0.8433 -0.0531
  116MOL   O11048640   1.607   0.505   6.859  0.2298  0.0637 -0.2188
  116MOL   C11148641   1.699   0.410   6.835  0.0526  0.2506 -0.1024
  116MOL   C11248642   1.806   0.441   6.746  0.2315 -0.2049  0.6397
  116MOL   C11348643   1.905   0.339   6.714  0.2264 -0.1009  0.6207
  116MOL   C11448644   1.901   0.212   6.775  0.1402 -0.1753  0.4192
  116MOL   C11548645   1.796   0.183   6.861 -0.5598 -0.2725  0.4635
  116MOL   C11648646   1.697   0.279   6.890 -0.0547 -1.0576 -0.3681
  116MOL   C11748647   1.349   0.582   7.221 -0.1041 -0.2870  0.1837
  116MOL   H11848648   1.352   0.647   7.017  0.6402  0.1381  0.2451
  116MOL   H11948649   1.410   0.529   6.846 -2.7780  0.6325  2.9793
  116MOL   H12048650   1.469   0.366   6.859 -1.2478  1.2799 -0.8066
  116MOL   H12148651   1.819   0.537   6.699 -0.6707 -0.3557  0.0768
  116MOL   H12248652   1.983   0.368   6.646 -0.2347  0.3936  0.2902
  116MOL   H12348653   1.982   0.142   6.762 -0.7827 -0.7424 -2.7563
  116MOL   H12448654   1.792   0.086   6.908  2.0790 -1.4081 -1.5692
  116MOL   H12548655   1.620   0.243   6.956  0.0035 -0.2170  0.1579
  116MOL   H12648656   1.301   0.674   7.256  0.0307  0.4332 -1.5031
  116MOL   H12748657   1.423   0.564   7.299 -0.2519  0.4296  0.4863
  116MOL   C12848658   1.229   0.480   7.222 -0.4394  0.3761  0.3459
  116MOL   O12948659   1.115   0.514   7.142 -0.5114 -0.2850  0.2869
  116MOL   C13048660   1.114   0.460   7.010 -0.0621  0.2920  0.4191
  116MOL   O13148661   1.139   0.322   7.008  0.0828  0.4143  0.2378
  116MOL   C13248662   1.172   0.261   6.889 -0.1065  0.1877  0.1697
  116MOL   C13348663   1.252   0.148   6.895  0.0833  0.3788 -0.0812
  116MOL   C13448664   1.300   0.074   6.780  0.6886  0.6648 -0.1643
  116MOL   C13548665   1.250   0.126   6.659 -0.4277  0.1637 -0.2843
  116MOL   C13648666   1.163   0.234   6.653 -0.0838  0.2386  0.9818
  116MOL   C13748667   1.122   0.306   6.768  0.0305 -0.3440  0.5239
  116MOL   C13848668   1.178   0.457   7.362 -0.3006  0.4287 -0.4499
  116MOL   H13948669   1.274   0.384   7.196 -2.2886 -0.5742  0.5547
  116MOL   H14048670   1.193   0.508   6.952  1.3827 -1.1815  1.1225
  116MOL   H14148671   1.017   0.476   6.963  0.7514 -0.5253 -1.6068
  116MOL   H14248672   1.280   0.110   6.992 -2.2578  1.0024  0.8727
  116MOL   H14348673   1.366   7.965   6.787  0.8183  0.6040 -1.9610
  116MOL   H14448674   1.274   0.072   6.568 -0.7780 -0.9725  0.3000
  116MOL   H14548675   1.119   0.268   6.560  0.8918 -0.7413  0.1630
  116MOL   H14648676   1.057   0.392   6.763  1.4071  0.6358 -0.8776
  116MOL   H14748677   1.186   0.551   7.416 -0.4199 -0.2308  0.7362
  116MOL   H14848678   1.071   0.436   7.363 -0.0123 -1.1432  1.1175
  116MOL   C14948679   1.239   0.343   7.441 -0.2993  0.0434 -0.1126
  116MOL   O15048680   1.371   0.383   7.479 -0.3185  0.2550  0.6103
  116MOL   C15148681   1.478   0.306   7.442  0.1507  0.8055  0.4070
  116MOL   O15248682   1.539   0.255   7.559  0.4256  0.1604 -0.4524
  116MOL   C15348683   1.592   0.351   7.647  0.1691  0.8144  0.1773
  116MOL   C15448684   1.625   0.487   7.611  1.0810 -0.2611  0.5177
  116MOL   C15548685   1.682   0.566   7.708  0.3532 -0.2107 -0.0879
  116MOL   C15648686   1.689   0.528   7.846  0.7485  0.7426 -0.1070
  116MOL   C15748687   1.644   0.402   7.884  0.3654 -0.5011  0.5809
  116MOL   C15848688   1.598   0.313   7.783 -0.4228 -0.2133 -0.3377
  116MOL   C15948689   1.169   0.309   7.576  0.2816  0.3312 -0.1938
  116MOL   H16048690   1.245   0.248   7.387 -2.8715  1.1054 -2.3555
  116MOL   H16148691   1.455   0.221   7.378 -0.4276  1.4885 -0.3073
  116MOL   H16248692   1.551   0.357   7.379 -0.5539 -1.5883 -2.4892
  116MOL   H16348693   1.620   0.532   7.513  2.8489 -1.2980 -0.0830
  116MOL   H16448694   1.712   0.666   7.679  2.6428 -0.9511 -0.3303
  116MOL   H16548695   1.717   0.603   7.919  0.6282  0.4694  0.2234
  116MOL   H16648696   1.631   0.377   0.013  3.0124 -1.5778  0.6855
  116MOL   H16748697   1.573   0.209   7.795 -1.0697 -0.1896 -1.4047
  116MOL   H16848698   1.094   0.384   7.604 -2.1521 -2.6986  1.7152
  116MOL   H16948699   1.241   0.307   7.658  1.7490 -0.9366 -1.4842
  116MOL   C17048700   1.093   0.179   7.573  0.7961  0.0861 -0.1753
  116MOL   O17148701   1.005   0.185   7.465 -0.4804  0.0942  0.9584
  116MOL   C17248702   0.890   0.259   7.493 -0.1634  0.1488  0.0516
  116MOL   O17348703   0.810   0.193   7.593 -0.0623 -0.3871 -0.1424
  116MOL   C17448704   0.680   0.230   7.618  0.0311  0.6370 -0.7343
  116MOL   C17548705   0.604   0.170   7.725 -0.3530 -0.3206  0.2735
  116MOL   C17648706   0.473   0.213   7.757  0.0632  0.1666 -0.4435
  116MOL   C17748707   0.410   0.309   7.675  0.0324 -0.3004  0.6560
  116MOL   C17848708   0.482   0.361   7.564 -0.4654  0.4883  0.5506
  116MOL   C17948709   0.613   0.324   7.539  0.3308 -0.1687 -0.1961
  116MOL   C18048710   1.176   0.059   7.555 -0.5305  0.7125 -0.0726
  116MOL   H18148711   1.043   0.163   7.669 -2.8838  1.7503 -1.7206
  116MOL   H18248712   0.841   0.261   7.396 -0.1473  0.5679  0.0533
  116MOL   H18348713   0.907   0.362   7.522  0.6693  0.1956 -0.5864
  116MOL   H18448714   0.646   0.101   7.798 -1.6131 -2.8912 -1.3440
  116MOL   H18548715   0.429   0.167   7.844 -0.2465  0.5403 -0.3999
  116MOL   H18648716   0.314   0.355   7.695 -0.9028 -2.0099  0.1898
  116MOL   H18748717   0.448   0.442   7.502 -3.3666 -0.7183  0.4950
  116MOL   H18848718   0.673   0.361   7.457  1.0802 -1.9473 -0.4696
  116MOL   H18948719   1.222   0.063   7.457 -0.4610  3.4442  0.0264
  116MOL   H19048720   1.255   0.061   7.630 -0.5821  3.8675 -0.0425
  116MOL   C19148721   1.098   7.904   7.586  0.7315  0.2829  0.6291
  116MOL   O19248722   1.073   7.897   7.727 -0.0087  0.1069  0.2419
  116MOL   C19348723   0.949   7.859   7.762  0.2542 -0.0633  0.2832
  116MOL   O19448724   0.942   7.831   7.895  0.5300  0.2577 -0.5684
  116MOL   C19548725   0.825   7.789   7.950 -0.9160 -0.1326  0.7339
  116MOL   C19648726   0.820   7.802   0.115  0.3600  0.9115  0.4307
  116MOL   C19748727   0.712   7.751   0.188 -0.4883 -0.0721  0.4326
  116MOL   C19848728   0.604   7.706   0.118 -0.2945 -0.5733 -0.4009
  116MOL   C19948729   0.604   7.694   7.955 -0.3753 -0.0062 -0.1007
  116MOL   C20048730   0.717   7.735   7.881  0.3657 -0.1884 -0.3105
  116MOL   C20148731   1.180   7.779   7.540 -0.5832 -0.0674  0.7161
  116MOL   H20248732   1.016   7.890   7.516  1.4394 -0.4906 -0.0615
  116MOL   H20348733   0.922   7.772   7.702  0.2059  2.0059 -2.8121
  116MOL   H20448734   0.873   7.933   7.735 -0.0907  0.0548  1.5587
  116MOL   H20548735   0.906   7.830   0.173  3.1701 -3.4375 -1.4241
  116MOL   H20648736   0.719   7.759   0.296 -1.2357 -0.2693  0.4971
  116MOL   H20748737   0.532   7.661   0.184  2.3638  0.2787  3.2923
  116MOL   H20848738   0.522   7.638   7.914  0.2723 -1.1164  0.1091
  116MOL   H20948739   0.715   7.729   7.773  0.2868 -0.4431 -0.2957
  116MOL   H21048740   1.171   7.780   7.432 -2.1977 -0.4950  0.8362
  116MOL   H21148741   1.285   7.798   7.563 -0.1419 -1.5031 -0.0779
  116MOL   C21248742   1.151   7.638   7.593  0.5163  0.2332  0.2330
  116MOL   O21348743   1.228   7.552   7.506 -0.3040 -0.1203  0.0886
  116MOL   C21448744   1.184   7.425   7.500  0.3479 -0.1085  0.3484
  116MOL   O21548745   1.088   7.413   7.398  0.0394  0.3534  0.8833
  116MOL   C21648746   1.124   7.416   7.267  0.2867 -0.0908 -0.3607
  116MOL   C21748747   1.256   7.446   7.229 -0.8229  0.5358  0.2574
  116MOL   C21848748   1.299   7.443   7.098 -0.0737 -0.3189  0.1172
  116MOL   C21948749   1.203   7.414   7.001  0.7115 -0.6566 -0.2514
  116MOL   C22048750   1.067   7.410   7.029  0.3915  0.4034  0.0862
  116MOL   C22148751   1.031   7.405   7.162 -0.3699  0.5086 -0.3944
  116MOL   C22248752   1.189   7.607   7.737  0.5735 -0.3301  0.6289
  116MOL   H22348753   1.045   7.613   7.590  0.9548 -2.1562  2.8288
  116MOL   H22448754   1.144   7.374   7.588  0.9797  1.0363  1.2968
  116MOL   H22548755   1.266   7.361   7.466 -1.7468 -0.7656 -3.8141
  116MOL   H22648756   1.333   7.467   7.302 -0.7507 -0.4331  0.4616
  116MOL   H22748757   1.403   7.450   7.069 -0.5937  1.6568 -1.4352
  116MOL   H22848758   1.230   7.410   6.896 -0.1750  0.9899 -0.5553
  116MOL   H22948759   0.998   7.396   6.946  0.2258  1.4584  0.0387
  116MOL   H23048760   0.925   7.403   7.182 -0.4320  1.1191 -0.6661
  116MOL   H23148761   1.110   7.652   7.798  0.5301  1.0931 -0.4489
  116MOL   H23248762   1.174   7.504   7.768 -0.6728  0.2679  2.1034
  116MOL   C23348763   1.317   7.668   7.798  0.3077  0.4596 -0.0117
  116MOL   O23448764   1.315   7.644   7.945  0.1886 -0.2783 -0.0127
  116MOL   C23548765   1.281   7.757   0.047  0.7955  0.1255  0.0118
  116MOL   O23648766   1.293   7.743   0.182  0.7542 -0.1085 -0.2107
  116MOL   C23748767   1.186   7.685   0.246  0.0505  0.3466 -0.2722
  116MOL   C23848768   1.090   7.608   0.185  0.0209  0.2091  0.2659
  116MOL   C23948769   0.990   7.542   0.263  0.3379 -0.0534  1.0637
  116MOL   C24048770   0.987   7.562   0.405 -0.0523 -0.1831  0.1466
  116MOL   C24148771   1.075   7.647   0.463 -0.3956  0.6040  0.0652
  116MOL   C24248772   1.180   7.701   0.387 -0.5065 -0.0318  0.0639
  116MOL   C24348773   1.444   7.610   7.738  0.7681  0.5607  0.3030
  116MOL   H24448774   1.317   7.773   7.768  1.2897  0.7192  0.8523
  116MOL   H24548775   1.179   7.790   0.027  0.4423 -0.9354  0.0299
  116MOL   H24648776   1.343   7.843   0.023  3.4576 -1.9614 -0.8848
  116MOL   H24748777   1.099   7.594   0.079  1.0753  2.2446  0.0634
  116MOL   H24848778   0.916   7.487   0.207  0.3132 -2.3920  3.2999
  116MOL   H24948779   0.906   7.516   0.460 -0.4631 -1.2937 -1.3444
  116MOL   H25048780   1.071   7.671   0.569  0.0181  2.2888 -0.2866
  116MOL   H25148781   1.260   7.753   0.438  0.9681  0.1323 -2.3111
  116MOL   H25248782   1.440   7.504   7.762 -1.8808  0.7165  0.7647
  116MOL   H25348783   1.424   7.598   7.631  1.4620 -0.2505  0.2584
  116MOL   C25448784   1.578   7.681   7.762 -0.4951  0.0959  0.2099
  116MOL   O25548785   1.571   7.820   7.723 -0.1927 -0.2806 -0.1498
  116MOL   C25648786   1.621   7.848   7.595  0.1372 -1.2097 -0.6270
  116MOL   O25748787   1.555   7.782   7.493 -0.0046  0.1759 -0.3929
  116MOL   C25848788   1.562   7.831   7.365  0.1441  0.0453 -0.1567
  116MOL   C25948789   1.480   7.776   7.265  0.3923 -0.1597 -0.5242
  116MOL   C26048790   1.491   7.811   7.127  0.1336 -0.1386  0.2110
  116MOL   C26148791   1.580   7.923   7.100  0.1911 -0.1242  0.5093
  116MOL   C26248792   1.652   0.010   7.198 -0.6522  0.5124  0.9139
  116MOL   C26348793   1.652   7.934   7.327  0.6272  0.5506 -0.4285
  116MOL   C26448794   1.632   7.704   7.911 -0.0006  0.5179 -0.3301
  116MOL   H26548795   1.655   7.631   7.704 -1.0846  1.6571 -2.0175
  116MOL   H26648796   1.726   7.819   7.594  0.3866 -0.7319  3.5443
  116MOL   H26748797   1.598   7.954   7.585 -0.0603 -1.2576 -0.6803
  116MOL   H26848798   1.414   7.694   7.289  2.0461 -2.3527 -3.0970
  116MOL   H26948799   1.425   7.768   7.053 -0.0857  1.4378 -0.5492
  116MOL   H27048800   1.585   7.951   6.996 -1.5059 -1.9942 -0.0830
  116MOL   H27148801   1.719   0.092   7.179 -1.0034  0.7381  0.6406
  116MOL   H27248802   1.714   0.006   7.402  0.8290 -1.2557  0.5719
  116MOL   H27348803   1.718   7.769   7.899 -0.0353  0.6907  0.3407
  116MOL   H27448804   1.549   7.753   7.960  0.5764 -0.1314  1.3349
  116MOL   C27548805   1.661   7.571   0.016 -0.3250  0.3416  0.2050
  116MOL   O27648806   1.780   7.527   7.930 -0.0152  0.1236 -0.4464
  116MOL   C27748807   1.810   7.387   7.929  0.1793  0.0654 -0.1290
  116MOL   O27848808   1.860   7.331   0.068 -0.0358 -0.0998 -0.3553
  116MOL   C27948809   1.906   7.202   0.063  0.1663 -0.0055  0.2756
  116MOL   C28048810   1.936   7.143   0.186 -0.5369 -0.5479  0.5616
  116MOL   C28148811   1.965   7.003   0.186 -0.8746  0.2860 -0.0535
  116MOL   C28248812   1.960   6.922   0.067  0.1947  0.4859  0.3030
  116MOL   C28348813   1.936   6.990   7.924 -0.9925 -0.6355  0.4575
  116MOL   C28448814   1.921   7.127   7.916  0.1801 -0.0020  0.1673
  116MOL   C28548815   1.700   7.605   0.160 -0.5944 -0.5899  0.1984
  116MOL   H28648816   1.583   7.495   0.009  1.4894 -1.4300 -0.9404
  116MOL   H28748817   1.885   7.386   7.849  0.2417 -0.9759 -0.0665
  116MOL   H28848818   1.721   7.333   7.897  0.4731 -0.7890  0.4659
  116MOL   H28948819   1.941   7.198   0.279  1.0786  4.1925 -2.2016
  116MOL   H29048820   1.986   6.957   0.282 -0.9800 -0.8053 -0.5475
  116MOL   H29148821   1.979   6.816   0.076 -1.8729 -0.0642 -1.3390
  116MOL   H29248822   1.951   6.933   7.833 -0.0197  1.0372 -0.4473
  116MOL   H29348823   1.893   7.173   7.822 -0.7762 -0.8009  0.0511
  116MOL   H29448824   1.741   7.706   0.158 -1.2547 -0.3374 -0.5915
  116MOL   H29548825   1.782   7.543   0.196  0.0028  0.5017  0.7502
  116MOL   C29648826   1.583   7.587   0.257  0.5853 -0.0454 -0.1595
  116MOL   O29748827   1.571   7.442   0.274 -0.2254 -0.3783  0.1575
  116MOL   C29848828   1.446   7.391   0.282  0.2886  0.1850 -0.6852
  116MOL   O29948829   1.374   7.389   0.164 -0.1022  0.0978 -0.0688
  116MOL   C30048830   1.424   7.295   0.068  0.8693 -0.0616 -0.2767
  116MOL   C30148831   1.363   7.302   7.916  0.6550 -0.3155 -0.8327
  116MOL   C30248832   1.393   7.203   7.817 -0.3764  0.0050  0.5963
  116MOL   C30348833   1.487   7.101   7.838 -0.0254  0.6004  0.6592
  116MOL   C30448834   1.564   7.107   7.957 -0.3378  0.5272 -0.5537
  116MOL   C30548835   1.524   7.200   0.080  0.4136  0.3116 -0.6998
  116MOL   C30648836   1.593   7.647   0.400 -0.1325 -0.2980 -0.1199
  116MOL   H30748837   1.495   7.621   0.204 -0.2669 -1.9095  0.0242
  116MOL   H30848838   1.390   7.460   0.344  0.4268  1.3252 -1.8048
  116MOL   H30948839   1.449   7.292   0.326  0.5324  0.5770  0.1814
  116MOL   H31048840   1.287   7.374   7.888  0.5517 -1.0272 -2.4458
  116MOL   H31148841   1.331   7.200   7.729  0.0986 -2.5006  0.3121
  116MOL   H31248842   1.514   7.035   7.757  0.7983 -0.0011  1.4106
  116MOL   H31348843   1.642   7.033   7.968 -0.3163  0.6557  0.2029
  116MOL   H31448844   1.585   7.190   0.169  0.2273 -0.7044 -0.6772
  116MOL   H31548845   1.522   7.597   0.466  1.1576 -0.2919  1.2963
  116MOL   H31648846   1.556   7.749   0.388 -0.0819 -0.2239  0.3607
  116MOL   C31748847   1.734   7.646   0.462  0.1558  0.0713  0.3870
  116MOL   O31848848   1.751   7.523   0.526  0.4839 -0.0096  0.2272
  116MOL   C31948849   1.869   7.446   0.481  0.2808 -0.6187 -0.0083
  116MOL   O32048850   1.904   7.337   0.566 -0.6941  0.0399  0.2302
  116MOL   C32148851   1.823   7.225   0.568 -0.6208  0.3147 -0.1332
  116MOL   C32248852   1.866   7.122   0.653  0.4154 -0.2236  0.0592
  116MOL   C32348853   1.795   6.995   0.655  0.5768  0.4861  0.7711
  116MOL   C32448854   1.683   6.980   0.573 -0.1195 -0.0621 -0.2161
  116MOL   C32548855   1.632   7.086   0.493 -0.2791 -0.2132 -0.5659
  116MOL   C32648856   1.710   7.206   0.486  0.1184  0.3014  0.3831
  116MOL   C32748857   1.764   7.759   0.566 -0.4308 -0.8292  0.4708
  116MOL   H32848858   1.814   7.672   0.391  0.6034  0.3460  0.9857
  116MOL   H32948859   1.956   7.510   0.490  0.3456 -0.5485 -1.0202
  116MOL   H33048860   1.870   7.417   0.376 -2.5549  0.9423 -0.5100
  116MOL   H33148861   1.951   7.150   0.713 -0.4632  1.8089  0.3837
  116MOL   H33248862   1.831   6.906   0.705 -0.8000 -0.6572 -0.2214
  116MOL   H33348863   1.633   6.886   0.589  2.0207 -1.0464  0.9788
  116MOL   H33448864   1.547   7.072   0.429 -1.8322  0.5706  1.2676
  116MOL   H33548865   1.687   7.284   0.415  1.1298  0.2177 -0.0410
  116MOL   H33648866   1.711   7.848   0.534 -1.7612 -1.5718  0.5814
  116MOL   H33748867   1.719   7.729   0.661 -1.2821  2.2001  1.0748
  116MOL   C33848868   1.909   7.796   0.592 -0.2308 -0.2429 -0.1887
  116MOL   O33948869   1.958   7.836   0.465  0.8833  0.3285  0.2346
  116MOL   C34048870   2.094   7.840   0.439 -0.4300 -0.7223  0.3582
  116MOL   O34148871   2.156   7.720   0.465 -0.4390  0.5143  0.3101
  116MOL   C34248872   2.147   7.627   0.366  0.7292 -0.0316  0.0214
  116MOL   C34348873   2.057   7.627   0.256  0.3924  0.1022  0.3504
  116MOL   C34448874   2.073   7.535   0.153  0.1667  0.3198 -0.0770
  116MOL   C34548875   2.167   7.433   0.166 -0.3875 -0.4181  0.1367
  116MOL   C34648876   2.245   7.427   0.280  0.0396 -0.5328  0.0601
  116MOL   C34748877   2.228   7.516   0.382 -0.8079 -0.2125  0.5757
  116MOL   C34848878   1.934   7.914   0.688 -0.2650 -0.2985  0.0423
  116MOL   H34948879   1.973   7.714   0.626 -2.2855 -1.8274  0.0139
  116MOL   H35048880   2.147   7.910   0.503  0.4124 -1.2497  0.2418
  116MOL   H35148881   2.121   7.876   0.339 -0.1644 -0.7083  0.4350
  116MOL   H35248882   1.977   7.699   0.245  1.0810  0.8609  0.2439
  116MOL   H35348883   2.011   7.532   0.065  1.3056  0.7135 -0.9093
  116MOL   H35448884   2.175   7.353   0.094 -2.4811 -1.5554  1.1176
  116MOL   H35548885   2.321   7.352   0.297  1.1417  0.8462  1.4043
  116MOL   H35648886   2.294   7.509   0.467  1.6591 -0.9417 -1.3546
  116MOL   H35748887   1.895   0.030   0.643 -2.1142 -0.9470  0.2583
  116MOL   H35848888   2.042   7.913   0.700 -0.0581  1.1473 -1.6588
  116MOL   C35948889   1.893   7.898   0.834 -0.0240  0.1623  0.2628
  116MOL   O36048890   1.929   0.045   0.896  0.0904  0.4798 -0.4449
  116MOL   C36148891   1.853   0.097   0.993 -0.2475  0.0437 -0.0317
  116MOL   O36248892   1.746   0.169   0.935 -0.3292  0.1976  0.4722
  116MOL   C36348893   1.757   0.298   0.895  0.0363 -0.3364 -0.1615
  116MOL   C36448894   1.871   0.381   0.913 -0.0741  0.0299  0.1921
  116MOL   C36548895   1.874   0.513   0.874  0.1941  0.1999  1.2034
  116MOL   C36648896   1.767   0.565   0.794 -0.0747  0.7220 -0.5252
  116MOL   C36748897   1.658   0.481   0.767 -0.3315 -0.2198 -0.5208
  116MOL   C36848898   1.650   0.351   0.826 -0.0880  0.9702  0.2928
  116MOL   C36948899   1.949   7.781   0.910  0.0252 -0.6457 -0.1879
  116MOL   H37048900   1.784   7.888   0.841 -0.0922 -0.0161 -1.0223
  116MOL   H37148901   1.922   0.156   1.054 -0.3966 -2.4093  2.5817
  116MOL   H37248902   1.813   0.022   1.061  0.6890 -0.5558 -0.1349
  116MOL   H37348903   1.965   0.346   0.953 -0.5449  1.1895  2.3912
  116MOL   H37448904   1.956   0.580   0.892  0.1700  0.9199 -1.2038
  116MOL   H37548905   1.775   0.664   0.751  0.3323  0.7611 -0.3680
  116MOL   H37648906   1.567   0.510   0.717 -0.4175  0.4007 -0.0160
  116MOL   H37748907   1.566   0.287   0.803  0.1298  0.4479  0.9500
  116MOL   H37848908   1.950   7.806   1.016 -0.3471 -0.2134 -0.2805
  116MOL   H37948909   2.055   7.786   0.886 -0.5283  2.6569 -2.4192
  116MOL   C38048910   1.882   7.643   0.891  0.4391 -0.3562  0.3342
  116MOL   O38148911   1.743   7.676   0.937  0.2914  0.1032 -0.6662
  116MOL   C38248912   1.663   7.576   0.994  0.7468  0.0639 -0.1869
  116MOL   O38348913   1.636   7.468   0.910 -0.4196  0.5642 -0.1682
  116MOL   C38448914   1.536   7.470   0.815 -0.1029  0.5196  0.1857
  116MOL   C38548915   1.508   7.356   0.743 -0.1049 -0.2699 -0.5779
  116MOL   C38648916   1.404   7.354   0.649  0.0191  0.2646 -0.6396
  116MOL   C38748917   1.322   7.465   0.634  0.4571  0.6027  0.4643
  116MOL   C38848918   1.333   7.574   0.721 -0.0373  0.1823 -1.0516
  116MOL   C38948919   1.445   7.576   0.808 -1.0763 -0.4136  0.0848
  116MOL   C39048920   1.964   7.534   0.972  0.5323 -0.5641 -0.0650
  116MOL   H39148921   1.874   7.613   0.786 -1.7999 -1.7607  0.8769
  116MOL   H39248922   1.708   7.537   1.086  3.5005  0.8451 -1.1484
  116MOL   H39348923   1.574   7.626   1.032  0.8439 -1.8394  2.6961
  116MOL   H39448924   1.573   7.270   0.742 -1.5257 -1.4041  1.2370
  116MOL   H39548925   1.383   7.269   0.585 -0.8082  2.0168 -2.7776
  116MOL   H39648926   1.241   7.472   0.562  0.7217  0.8968  0.1958
  116MOL   H39748927   1.264   7.657   0.712 -0.5500  0.0062  0.9498
  116MOL   H39848928   1.450   7.664   0.870  0.4546 -1.7194  1.8615
  116MOL   H39948929   1.912   7.439   0.962  0.6798 -1.0370  3.1410
  116MOL   H40048930   1.968   7.551   1.080  2.0337 -1.8304  0.0867
  116MOL   C40148931   2.101   7.503   0.923 -0.3147 -0.5781 -0.1980
  116MOL   O40248932   2.166   7.431   1.022 -0.2327  0.0602 -0.2516
  116MOL   C40348933   2.299   7.472   1.041 -0.2151  0.1389  0.5707
  116MOL   O40448934   2.307   7.610   1.082  0.8665  1.3126  0.6447
  116MOL   C40548935   2.298   7.638   1.214  0.3331 -0.3105 -0.0637
  116MOL   C40648936   2.321   7.772   1.256 -0.2267 -0.3293 -0.0829
  116MOL   C40748937   2.322   7.802   1.390  0.6314 -0.1974 -0.5474
  116MOL   C40848938   2.274   7.703   1.479 -0.4649  0.3167  0.7550
  116MOL   C40948939   2.246   7.570   1.448  0.1736 -0.0114 -0.0058
  116MOL   C41048940   2.266   7.539   1.314 -0.1047  0.2923  0.4782
  116MOL   C41148941   2.102   7.429   0.782  0.1460 -0.5701  0.2367
  116MOL   H41248942   2.154   7.597   0.910 -0.1312 -0.0781  3.5425
  116MOL   H41348943   2.348   7.461   0.944 -2.3702 -0.2049 -0.5168
  116MOL   H41448944   2.345   7.398   1.107  2.0004 -0.6147 -1.7273
  116MOL   H41548945   2.337   7.846   1.180  0.1762  0.0885  0.4053
  116MOL   H41648946   2.324   7.904   1.426 -0.7545 -0.1201 -0.6700
  116MOL   H41748947   2.270   7.725   1.584 -0.9384 -0.4443  0.9004
  116MOL   H41848948   2.227   7.498   1.526 -1.5784  1.3439  0.8854
  116MOL   H41948949   2.227   7.443   1.281  1.7930 -1.4472  3.0990
  116MOL   H42048950   2.041   7.338   0.776  1.2948 -1.4497  1.6824
  116MOL   H42148951   2.203   7.392   0.765  0.5450  1.0177 -0.9229
  116MOL   H42248952   2.085   7.497   0.698  0.4162 -0.1897  0.4917
  117MOL     C148953   3.257   6.100   5.867 -0.7032  0.0457  0.5479
  117MOL     O248954   3.284   6.188   5.976  0.2612  0.2712  0.3583
  117MOL     C348955   3.391   6.143   6.054  1.3169  0.2753  0.3013
  117MOL     O448956   3.363   6.037   6.140 -0.4239  0.0235  0.2944
  117MOL     C548957   3.462   5.986   6.215  0.8309 -0.4467  0.6237
  117MOL     C648958   3.598   5.996   6.186  0.3228 -0.1003 -0.1982
  117MOL     C748959   3.691   5.946   6.275  0.5927  0.1221 -0.6486
  117MOL     C848960   3.646   5.878   6.391 -0.7672 -0.4685 -0.9629
  117MOL     C948961   3.513   5.855   6.411  0.1072  0.0250 -0.2319
  117MOL    C1048962   3.422   5.906   6.322 -0.0100  0.3202  0.4772
  117MOL    C1148963   3.332   6.134   5.741  0.4225 -0.3033 -0.3859
  117MOL    H1248964   3.265   5.997   5.902 -2.1923 -0.3053 -0.1064
  117MOL    H1348965   3.473   6.127   5.984 -1.2692 -0.8413 -2.5705
  117MOL    H1448966   3.414   6.233   6.111 -1.7244  1.4810 -0.2816
  117MOL    H1548967   3.631   6.039   6.093  0.3884 -2.2993 -1.2184
  117MOL    H1648968   3.795   5.968   6.259  1.1701 -1.0658  1.3050
  117MOL    H1748969   3.721   5.847   6.462 -2.8885 -0.4741  1.3423
  117MOL    H1848970   3.487   5.794   6.496  2.0831  0.6074  0.8309
  117MOL    H1948971   3.315   5.898   6.337 -0.3485  1.1151 -1.3985
  117MOL    H2048972   3.432   6.165   5.774 -0.1131  1.6096 -0.5033
  117MOL    H2148973   3.301   6.221   5.683  0.6360 -0.6865 -1.0762
  117MOL    H2248974   3.154   6.111   5.833 -1.2537 -3.8284  0.8270
  117MOL    C2348975   3.318   6.017   5.642 -0.0823 -0.0845  0.6228
  117MOL    O2448976   3.444   5.951   5.655 -0.6690 -0.3585  0.3871
  117MOL    C2548977   3.449   5.823   5.621 -0.6399 -0.4176  0.6230
  117MOL    O2648978   3.368   5.743   5.695 -0.6717 -0.1184  0.3365
  117MOL    C2748979   3.421   5.689   5.811  0.7424 -0.5258  0.4157
  117MOL    C2848980   3.348   5.594   5.884 -0.1942  0.1855  0.3779
  117MOL    C2948981   3.391   5.545   6.004 -0.6521  0.6201 -0.5109
  117MOL    C3048982   3.513   5.585   6.064 -0.3861 -0.0191  0.2001
  117MOL    C3148983   3.591   5.684   5.993 -0.4151  0.0417  0.2537
  117MOL    C3248984   3.541   5.734   5.868  0.4620 -0.1687 -0.9563
  117MOL    C3348985   3.306   6.063   5.495  0.1131 -0.2228 -0.7710
  117MOL    H3448986   3.232   5.955   5.666 -1.7135  1.5290 -0.7740
  117MOL    H3548987   3.550   5.781   5.621 -0.6827 -0.5408 -0.7909
  117MOL    H3648988   3.411   5.815   5.519 -0.3148  0.2863  0.4449
  117MOL    H3748989   3.253   5.557   5.847 -0.1458 -0.7212  1.1497
  117MOL    H3848990   3.324   5.479   6.058  1.3596 -1.1833 -0.1466
  117MOL    H3948991   3.539   5.549   6.163 -2.0207 -0.3452  0.5233
  117MOL    H4048992   3.677   5.727   6.040  0.4162 -1.0877 -0.2032
  117MOL    H4148993   3.602   5.816   5.832  0.5236  0.7889  1.2755
  117MOL    H4248994   3.378   6.015   5.429  0.4557  0.4849 -0.9170
  117MOL    H4348995   3.359   6.158   5.486  0.9777 -0.5992  0.2948
  117MOL    C4448996   3.161   6.068   5.434  0.4500  0.4766 -0.3144
  117MOL    O4548997   3.163   6.136   5.310 -0.0214 -1.0648  0.0501
  117MOL    C4648998   3.120   6.058   5.207 -0.3563  0.0504 -0.0096
  117MOL    O4748999   3.226   5.975   5.167  0.0304  0.5701 -0.8378
  117MOL    C4849000   3.209   5.908   5.048 -1.0729  0.1573  0.3096
  117MOL    C4949001   3.078   5.876   4.991  0.0219  1.1836  0.3652
  117MOL    C5049002   3.068   5.810   4.868  0.3118  0.2921  0.5714
  117MOL    C5149003   3.189   5.777   4.806 -0.2552  0.6922  0.7669
  117MOL    C5249004   3.321   5.823   4.849  0.4091  0.6991  0.7594
  117MOL    C5349005   3.329   5.884   4.975 -0.1817  0.2350 -0.0479
  117MOL    C5449006   3.068   6.134   5.531  0.9995  0.7742 -0.5285
  117MOL    H5549007   3.133   5.963   5.435 -2.3353  1.1709 -0.0583
  117MOL    H5649008   3.087   6.130   5.132  0.3701 -1.5800 -1.9207
  117MOL    H5749009   3.027   6.011   5.236 -0.1194 -0.5333 -0.1937
  117MOL    H5849010   2.983   5.888   5.043 -0.3313  2.3263 -0.5148
  117MOL    H5949011   2.975   5.786   4.819  0.2964 -0.7257  1.0909
  117MOL    H6049012   3.180   5.735   4.707  1.4162  0.3617  0.7546
  117MOL    H6149013   3.406   5.792   4.790 -0.2341  1.7738 -0.7772
  117MOL    H6249014   3.433   5.896   5.002  0.2090  2.4372 -2.3149
  117MOL    H6349015   3.068   6.071   5.621 -2.5334  0.8127 -0.4254
  117MOL    H6449016   3.111   6.227   5.568  0.1778  0.5681  1.0248
  117MOL    C6549017   2.928   6.164   5.487 -0.1024  0.4911  0.5629
  117MOL    O6649018   2.863   6.036   5.480  1.2626  0.3776 -1.0485
  117MOL    C6749019   2.739   6.026   5.415 -0.5461 -0.4666 -0.2567
  117MOL    O6849020   2.751   6.048   5.278 -0.3170  1.1161  0.6515
  117MOL    C6949021   2.641   6.106   5.208  0.4755  0.0615 -0.0500
  117MOL    C7049022   2.510   6.105   5.260  0.5431  0.6933 -0.4531
  117MOL    C7149023   2.408   6.180   5.191 -0.5919  0.0520 -0.6859
  117MOL    C7249024   2.444   6.258   5.080  0.2547  0.6098  0.2749
  117MOL    C7349025   2.572   6.260   5.025 -0.6584  0.0061  0.0938
  117MOL    C7449026   2.669   6.190   5.095  0.3070 -0.0067  0.0405
  117MOL    C7549027   2.858   6.249   5.596 -0.3163  0.4357 -0.1799
  117MOL    H7649028   2.927   6.213   5.389  4.3248  1.3193  0.8263
  117MOL    H7749029   2.677   6.101   5.464 -0.9127 -1.6762  1.1773
  117MOL    H7849030   2.681   5.936   5.439  0.5336 -0.9386  0.6503
  117MOL    H7949031   2.488   6.040   5.343 -1.2590  0.3649 -1.1650
  117MOL    H8049032   2.305   6.178   5.225  0.5125  0.1234  2.9655
  117MOL    H8149033   2.363   6.299   5.022 -0.6500 -1.4216  0.0903
  117MOL    H8249034   2.592   6.322   4.938  0.9020 -0.7101 -0.0692
  117MOL    H8349035   2.769   6.188   5.055  0.7145  1.3218  1.0060
  117MOL    H8449036   2.761   6.209   5.623 -0.9017  2.0748  0.1538
  117MOL    H8549037   2.905   6.234   5.694  2.4866 -1.0836 -1.6843
  117MOL    C8649038   2.824   6.394   5.555  0.0530  0.2125  0.3636
  117MOL    O8749039   2.940   6.455   5.504 -0.1348  0.1852  0.6188
  117MOL    C8849040   2.948   6.594   5.522  0.3576 -0.0431  0.0612
  117MOL    O8949041   2.952   6.638   5.651 -0.2891  0.1539 -0.0844
  117MOL    C9049042   3.061   6.588   5.734 -0.6634 -0.4399 -0.4811
  117MOL    C9149043   3.171   6.519   5.680  0.9493 -0.5346 -0.2128
  117MOL    C9249044   3.280   6.475   5.763  0.2724 -0.1712  0.2940
  117MOL    C9349045   3.270   6.489   5.897  0.0159  0.6635  0.1226
  117MOL    C9449046   3.168   6.569   5.954 -1.1705 -0.5545  0.8698
  117MOL    C9549047   3.060   6.618   5.873  0.5081 -0.5146 -0.3835
  117MOL    C9649048   2.709   6.408   5.453  0.3074  0.0563  0.1255
  117MOL    H9749049   2.800   6.446   5.648 -1.7501 -0.7350  0.4376
  117MOL    H9849050   2.856   6.642   5.488  0.2879  0.5377  1.0501
  117MOL    H9949051   3.027   6.635   5.458 -0.2455  0.2408 -0.5183
  117MOL   H10049052   3.178   6.514   5.573 -0.5691  0.3942 -0.3769
  117MOL   H10149053   3.363   6.419   5.723 -0.6754 -1.3157 -0.1287
  117MOL   H10249054   3.345   6.438   5.956 -1.0901  0.6695  1.5703
  117MOL   H10349055   3.148   6.580   6.060 -2.1232 -2.4668  0.9171
  117MOL   H10449056   2.976   6.669   5.917  0.8570  1.4773 -1.9296
  117MOL   H10549057   2.730   6.488   5.383  0.5341  0.0605  0.1959
  117MOL   H10649058   2.711   6.314   5.399 -1.7568  0.6382 -1.0008
  117MOL   C10749059   2.577   6.462   5.509 -0.1182 -0.1109 -0.5912
  117MOL   O10849060   2.610   6.597   5.541 -0.3189  0.4583  0.2304
  117MOL   C10949061   2.573   6.631   5.668  0.3533  0.3590  0.6623
  117MOL   O11049062   2.626   6.751   5.706 -0.2144 -0.3484  0.1468
  117MOL   C11149063   2.586   6.866   5.649  0.5740  0.2491  0.4480
  117MOL   C11249064   2.650   6.987   5.695  0.3531 -0.1659  0.2060
  117MOL   C11349065   2.591   7.112   5.657  0.1687  0.3659 -0.3915
  117MOL   C11449066   2.480   7.116   5.570 -0.0285  0.0587  0.0294
  117MOL   C11549067   2.421   7.001   5.520  0.6801 -0.6881 -0.5270
  117MOL   C11649068   2.467   6.875   5.563  0.2766  0.0031  0.0024
  117MOL   C11749069   2.461   6.461   5.407  0.5007 -0.4347  0.4206
  117MOL   H11849070   2.558   6.400   5.597  1.4429  0.8391  0.4538
  117MOL   H11949071   2.611   6.560   5.742 -1.3385 -0.5117  0.7194
  117MOL   H12049072   2.466   6.625   5.688  0.4117 -1.3380  0.5686
  117MOL   H12149073   2.738   6.982   5.758  0.2847  1.6447  0.4649
  117MOL   H12249074   2.619   7.206   5.701 -0.7125  1.6352 -2.4740
  117MOL   H12349075   2.436   7.212   5.549  2.5529  1.1491 -0.5757
  117MOL   H12449076   2.343   7.008   5.446 -1.0951 -0.3137  1.3297
  117MOL   H12549077   2.413   6.786   5.535 -1.5323  0.1659  2.7085
  117MOL   H12649078   2.452   6.355   5.384 -2.0657 -0.0582 -0.4017
  117MOL   H12749079   2.493   6.503   5.312 -0.8250  2.1670  1.0926
  117MOL   C12849080   2.323   6.512   5.450  0.2764  0.4612 -0.4312
  117MOL   O12949081   2.290   6.470   5.585  0.8792  0.2155  0.1073
  117MOL   C13049082   2.203   6.362   5.609  0.1090 -0.4467  0.0157
  117MOL   O13149083   2.256   6.240   5.568  0.3698  0.6614  0.0673
  117MOL   C13249084   2.348   6.183   5.649  0.8735  0.0446  0.9493
  117MOL   C13349085   2.410   6.238   5.764  0.0994 -0.0435 -0.8701
  117MOL   C13449086   2.506   6.167   5.831  0.3237  0.3764  0.3340
  117MOL   C13549087   2.553   6.044   5.784 -0.2950  0.3173  0.0931
  117MOL   C13649088   2.497   5.996   5.661  0.0607 -0.1925 -0.2093
  117MOL   C13749089   2.395   6.064   5.598 -0.2566  0.4552  0.1575
  117MOL   C13849090   2.222   6.491   5.336  0.0942  0.1251 -0.1247
  117MOL   H13949091   2.334   6.620   5.465  1.4051  0.5169 -1.5238
  117MOL   H14049092   2.106   6.368   5.560 -0.6273 -1.7401  1.2823
  117MOL   H14149093   2.184   6.369   5.716 -1.1639  2.2262 -0.3603
  117MOL   H14249094   2.385   6.336   5.801 -1.3626  0.0971 -2.1912
  117MOL   H14349095   2.554   6.208   5.919  0.4017 -0.7485  0.8178
  117MOL   H14449096   2.632   5.989   5.834 -0.2965 -0.8016 -1.1200
  117MOL   H14549097   2.522   5.899   5.622 -2.5682 -0.0610 -2.3346
  117MOL   H14649098   2.351   6.030   5.506  0.4972  1.0293 -0.4232
  117MOL   H14749099   2.255   6.502   5.233 -0.6807 -0.9771 -0.5110
  117MOL   H14849100   2.190   6.387   5.331 -3.0145  0.9384  1.6011
  117MOL   C14949101   2.083   6.564   5.361  0.5354 -0.2880 -0.7366
  117MOL   O15049102   2.105   6.709   5.357 -0.1327  0.6268 -0.2034
  117MOL   C15149103   2.074   6.787   5.467 -0.8945 -0.3370  0.0535
  117MOL   O15249104   2.139   6.739   5.585  0.1746  0.0842  0.1871
  117MOL   C15349105   2.118   6.804   5.705 -0.2503 -0.3231  0.0121
  117MOL   C15449106   2.037   6.925   5.718  1.0526  0.0767  0.2077
  117MOL   C15549107   2.016   6.979   5.844 -0.1010  0.2136  0.2264
  117MOL   C15649108   2.091   6.935   5.953  0.5049  0.3106 -0.2161
  117MOL   C15749109   2.178   6.830   5.945  0.2915 -0.3350  0.1689
  117MOL   C15849110   2.184   6.761   5.821  0.8492 -0.3057 -0.0804
  117MOL   C15949111   1.982   6.522   5.245 -0.0766 -0.0208  0.7948
  117MOL   H16049112   2.041   6.529   5.455  2.5056  0.6953  0.5401
  117MOL   H16149113   2.106   6.885   5.433 -1.6380  0.4596  1.6159
  117MOL   H16249114   1.966   6.774   5.475 -0.8229 -1.0736 -0.1107
  117MOL   H16349115   1.980   6.962   5.634 -1.4569  0.9726  2.2675
  117MOL   H16449116   1.933   7.047   5.861 -1.1233 -0.5683 -1.6041
  117MOL   H16549117   2.072   6.961   6.056 -2.2539 -1.6373 -0.1828
  117MOL   H16649118   2.231   6.795   6.032 -0.2231  0.4325  0.7878
  117MOL   H16749119   2.258   6.683   5.809  0.5491 -0.3500 -1.7593
  117MOL   H16849120   1.966   6.414   5.256 -0.2232 -0.0521  0.2833
  117MOL   H16949121   2.024   6.532   5.146 -1.7238 -2.5120 -0.2343
  117MOL   C17049122   1.845   6.586   5.252 -0.3174  0.1317  0.0062
  117MOL   O17149123   1.821   6.641   5.122 -0.3267 -0.5328  0.5166
  117MOL   C17249124   1.833   6.776   5.104 -0.0753  0.6315  0.7360
  117MOL   O17349125   1.759   6.842   5.196  0.3189  0.5252 -0.1631
  117MOL   C17449126   1.794   6.965   5.245  0.2314 -0.1264  0.3545
  117MOL   C17549127   1.718   7.013   5.354 -0.0891 -0.7613 -0.5259
  117MOL   C17649128   1.756   7.130   5.422  0.1381  0.5253 -0.5400
  117MOL   C17749129   1.871   7.197   5.387  0.3796  0.1256 -0.4986
  117MOL   C17849130   1.940   7.153   5.272 -0.2109  0.7161  0.2286
  117MOL   C17949131   1.910   7.031   5.202  0.3653 -0.3178  0.2744
  117MOL   C18049132   1.737   6.474   5.280  0.0952  0.7664 -0.2666
  117MOL   H18149133   1.841   6.663   5.329 -0.9074  0.8574 -0.7566
  117MOL   H18249134   1.791   6.791   5.005 -1.8171  0.6863  1.4577
  117MOL   H18349135   1.935   6.815   5.113  0.2613  0.2838 -1.4454
  117MOL   H18449136   1.636   6.962   5.401  0.5302  0.5535  2.0825
  117MOL   H18549137   1.703   7.183   5.500 -1.3779 -0.2325 -1.0234
  117MOL   H18649138   1.904   7.285   5.440 -1.9141  1.1270 -0.6686
  117MOL   H18749139   2.035   7.198   5.248 -0.9616  1.5114 -1.2544
  117MOL   H18849140   1.967   7.008   5.114  1.3538  2.0806  0.2354
  117MOL   H18949141   1.637   6.507   5.249 -0.9208 -1.2037  0.8302
  117MOL   H19049142   1.747   6.386   5.217  0.8031  0.4370  0.3027
  117MOL   C19149143   1.730   6.431   5.426  0.3129  0.7816 -0.5454
  117MOL   O19249144   1.700   6.291   5.426  0.2503  0.3235 -0.0137
  117MOL   C19349145   1.798   6.209   5.457  0.0842 -0.3404 -0.6632
  117MOL   O19449146   1.906   6.219   5.372 -0.1500 -0.2986 -0.0632
  117MOL   C19549147   1.951   6.109   5.304  0.5131 -0.0744  0.2601
  117MOL   C19649148   2.086   6.068   5.309  0.9212 -0.3359  0.0522
  117MOL   C19749149   2.129   5.961   5.236  0.0494 -0.0878  0.2357
  117MOL   C19849150   2.039   5.893   5.156  0.1837  0.1249 -0.1642
  117MOL   C19949151   1.902   5.935   5.150 -0.8345 -0.3810 -0.1330
  117MOL   C20049152   1.856   6.042   5.223  0.2284 -0.3285  0.5962
  117MOL   C20149153   1.614   6.510   5.514 -0.2979  0.1352 -0.1082
  117MOL   H20249154   1.824   6.444   5.480  0.9273 -2.1569 -0.8480
  117MOL   H20349155   1.749   6.112   5.449 -1.8850  0.6021 -0.3992
  117MOL   H20449156   1.818   6.230   5.562  0.3570 -0.7446 -0.6332
  117MOL   H20549157   2.155   6.120   5.374  1.7219 -3.0766  1.4450
  117MOL   H20649158   2.231   5.927   5.245 -0.0977  0.1727  3.3563
  117MOL   H20749159   2.070   5.812   5.092  0.0709  1.0707 -1.4300
  117MOL   H20849160   1.841   5.882   5.078  0.0412 -1.7298  0.1041
  117MOL   H20949161   1.752   6.067   5.212 -0.2220 -2.6226 -0.8070
  117MOL   H21049162   1.613   6.613   5.478 -2.0569  1.0957  2.5699
  117MOL   H21149163   1.516   6.477   5.481 -1.0617  0.3407  1.9046
  117MOL   C21249164   1.640   6.499   5.673  0.0465  0.2747 -0.3356
  117MOL   O21349165   1.759   6.573   5.696 -0.0115  0.1054 -0.4773
  117MOL   C21449166   1.835   6.535   5.804  0.1686  0.3468 -0.1072
  117MOL   O21549167   1.900   6.413   5.792 -0.1112 -0.0354  0.2518
  117MOL   C21649168   1.989   6.377   5.891 -1.2228 -0.4580  0.4595
  117MOL   C21749169   2.051   6.466   5.978  0.5751 -0.5508 -0.2636
  117MOL   C21849170   2.153   6.424   6.065  0.4704 -0.2085 -0.0067
  117MOL   C21949171   2.188   6.283   6.062 -0.3862  0.1421 -0.1637
  117MOL   C22049172   2.122   6.192   5.977  0.0752 -0.3972  0.1711
  117MOL   C22149173   2.021   6.240   5.891  0.2250  0.5863 -0.2879
  117MOL   C22249174   1.528   6.579   5.745 -0.0262 -0.0616 -0.1557
  117MOL   H22349175   1.644   6.394   5.702  1.4537  0.1739 -0.8635
  117MOL   H22449176   1.771   6.539   5.892 -1.9216 -2.2063 -1.4487
  117MOL   H22549177   1.913   6.611   5.812 -0.2288  0.6861  0.5594
  117MOL   H22649178   2.021   6.569   5.995  2.2986 -0.5686  3.4472
  117MOL   H22749179   2.200   6.498   6.128  0.4505 -0.0544 -0.1721
  117MOL   H22849180   2.261   6.249   6.133  1.4052 -1.3307 -2.6571
  117MOL   H22949181   2.136   6.085   5.970  0.2828 -0.4765  1.5998
  117MOL   H23049182   1.967   6.178   5.822  0.7854  0.1630 -0.3549
  117MOL   H23149183   1.557   6.586   5.850 -0.8279  1.7898 -0.0378
  117MOL   H23249184   1.521   6.685   5.721  3.2018  0.0801 -0.6298
  117MOL   C23349185   1.394   6.511   5.738  0.2655 -0.6504 -0.3773
  117MOL   O23449186   1.391   6.391   5.813  0.1253  0.0419  0.3977
  117MOL   C23549187   1.324   6.277   5.761  0.0209  0.1282  0.1334
  117MOL   O23649188   1.387   6.234   5.651  0.1809  0.2217  1.0674
  117MOL   C23749189   1.311   6.161   5.555 -0.7474  0.4572  0.4801
  117MOL   C23849190   1.179   6.109   5.580  0.7044 -0.2363  0.7424
  117MOL   C23949191   1.112   6.040   5.477  0.0455 -0.5834  0.3272
  117MOL   C24049192   1.182   6.009   5.358  0.0965  0.0747 -0.4482
  117MOL   C24149193   1.313   6.052   5.340 -0.2591  0.5950 -0.0593
  117MOL   C24249194   1.377   6.127   5.435  0.2441 -0.6358  0.4567
  117MOL   C24349195   1.287   6.598   5.802 -0.2200 -0.9543  0.2465
  117MOL   H24449196   1.363   6.491   5.636 -0.8859 -0.6765 -0.0245
  117MOL   H24549197   1.228   6.316   5.729 -0.1775  1.6515  2.4911
  117MOL   H24649198   1.303   6.202   5.837 -2.0917 -0.8633 -1.4023
  117MOL   H24749199   1.118   6.147   5.660 -0.9587  1.3820 -1.2308
  117MOL   H24849200   1.011   6.010   5.499 -0.1713  0.4661  0.8109
  117MOL   H24949201   1.127   5.954   5.283  1.0528 -0.8146 -0.5129
  117MOL   H25049202   1.374   6.041   5.252  0.2819  1.0256  0.2584
  117MOL   H25149203   1.475   6.162   5.405 -0.7805  2.4016  0.4623
  117MOL   H25249204   1.191   6.546   5.802 -0.3170 -0.7765  0.2777
  117MOL   H25349205   1.308   6.599   5.909  1.8397 -1.4535 -0.1279
  117MOL   C25449206   1.264   6.736   5.742  0.1516  0.3494  0.2888
  117MOL   O25549207   1.204   6.708   5.621 -0.6555  0.7655 -0.4606
  117MOL   C25649208   1.281   6.722   5.501 -1.0885  0.2572  0.0727
  117MOL   O25749209   1.301   6.855   5.471  0.3604 -0.4288 -0.1389
  117MOL   C25849210   1.339   6.885   5.348 -0.0957  0.5718 -0.0624
  117MOL   C25949211   1.428   6.800   5.276 -0.5799 -0.5259 -0.1681
  117MOL   C26049212   1.466   6.828   5.143 -0.2102 -0.0581 -0.9118
  117MOL   C26149213   1.422   6.946   5.090 -0.0316  0.0722  0.3528
  117MOL   C26249214   1.323   7.027   5.156 -0.5218  0.4340  0.2687
  117MOL   C26349215   1.286   6.995   5.285  0.6388  0.0937  0.2187
  117MOL   C26449216   1.164   6.827   5.815  0.4608  0.0253  0.1781
  117MOL   H26549217   1.359   6.788   5.732  0.4049 -0.2582 -0.5322
  117MOL   H26649218   1.229   6.670   5.420 -0.5982 -2.2234  1.3174
  117MOL   H26749219   1.382   6.681   5.501 -0.2516  2.2811 -0.0950
  117MOL   H26849220   1.484   6.723   5.325 -0.0467 -1.3214 -1.9624
  117MOL   H26949221   1.537   6.771   5.084  1.1840 -0.0737  0.7275
  117MOL   H27049222   1.458   6.968   4.990 -0.4666  1.9326  0.5912
  117MOL   H27149223   1.291   7.117   5.105  1.7125  0.4824 -1.1115
  117MOL   H27249224   1.214   7.058   5.334  1.9311  1.0855  0.8565
  117MOL   H27349225   1.064   6.784   5.822  0.4638  0.2765  2.0186
  117MOL   H27449226   1.186   6.820   5.922 -0.8718  1.4673  0.5719
  117MOL   C27549227   1.161   6.981   5.769 -0.5861  0.7644  0.3103
  117MOL   O27649228   1.068   7.050   5.847 -0.2335  0.4719 -0.4031
  117MOL   C27749229   0.953   7.090   5.784 -0.1694  0.2873  0.0879
  117MOL   O27849230   0.872   6.983   5.747 -0.2545 -0.3682 -0.5464
  117MOL   C27949231   0.822   6.910   5.850 -0.0076  0.9723  0.1214
  117MOL   C28049232   0.818   6.944   5.985 -0.5170  0.3784  0.6860
  117MOL   C28149233   0.762   6.856   6.077 -0.6998 -0.0799 -0.0939
  117MOL   C28249234   0.713   6.729   6.046  0.4709 -0.7592 -0.4504
  117MOL   C28349235   0.716   6.684   5.914  0.5178 -0.0869 -0.0858
  117MOL   C28449236   0.760   6.781   5.818 -0.1313  0.4032  0.0367
  117MOL   C28549237   1.288   7.062   5.791  0.2712 -0.3441 -0.8131
  117MOL   H28649238   1.146   6.987   5.661  3.0095  0.5239 -0.2580
  117MOL   H28749239   0.986   7.129   5.688 -0.6329 -0.5211 -0.4098
  117MOL   H28849240   0.917   7.168   5.850 -1.1819 -1.8669  2.1465
  117MOL   H28949241   0.863   7.038   6.011  1.9235 -0.2258 -1.2285
  117MOL   H29049242   0.757   6.882   6.181  0.2808 -1.1481  0.2334
  117MOL   H29149243   0.667   6.673   6.126 -0.7784  0.5387 -0.2531
  117MOL   H29249244   0.675   6.587   5.887 -2.0800  1.4314 -1.8645
  117MOL   H29349245   0.776   6.751   5.716 -0.5038  0.0311  0.0888
  117MOL   H29449246   1.355   7.010   5.723 -1.4269 -1.9559 -1.2831
  117MOL   H29549247   1.322   7.049   5.894 -0.5060  2.1924 -0.1922
  117MOL   C29649248   1.279   7.204   5.736 -0.2260 -0.7469  0.0154
  117MOL   O29749249   1.407   7.269   5.726  0.6182  0.3425  0.2726
  117MOL   C29849250   1.500   7.241   5.821  0.6023  0.6869  0.1932
  117MOL   O29949251   1.579   7.125   5.787 -0.5028  0.3169  0.2110
  117MOL   C30049252   1.643   7.053   5.887  0.4702 -1.5535 -0.4410
  117MOL   C30149253   1.651   6.914   5.862 -0.0553 -0.1871  0.2323
  117MOL   C30249254   1.716   6.832   5.952  0.2215  0.4649 -0.1749
  117MOL   C30349255   1.763   6.885   6.071  0.3693 -0.3994 -0.1584
  117MOL   C30449256   1.756   7.024   6.100  0.9908  0.1065 -0.5281
  117MOL   C30549257   1.696   7.109   6.001  0.2322 -0.3484 -0.0390
  117MOL   C30649258   1.222   7.232   5.600 -0.3275 -0.6030 -0.8344
  117MOL   H30749259   1.225   7.261   5.812  1.7306  1.5810 -0.2474
  117MOL   H30849260   1.458   7.232   5.921  2.4146  0.0265  0.9193
  117MOL   H30949261   1.578   7.316   5.838  2.9458 -1.2896 -1.4272
  117MOL   H31049262   1.610   6.875   5.770  1.9591 -0.3382 -0.6307
  117MOL   H31149263   1.711   6.727   5.930  0.4449  0.2019  1.0270
  117MOL   H31249264   1.816   6.821   6.140 -0.1789 -0.6966 -0.0094
  117MOL   H31349265   1.805   7.055   6.191  0.0790 -0.9375  0.3398
  117MOL   H31449266   1.676   7.211   6.032 -3.0018 -1.1432  0.6752
  117MOL   H31549267   1.169   7.150   5.552  2.6051 -2.1633 -1.5235
  117MOL   H31649268   1.308   7.230   5.533  1.3290 -1.6180  1.2686
  117MOL   C31749269   1.161   7.373   5.601  0.5019 -0.0225 -0.7991
  117MOL   O31849270   1.025   7.353   5.634  0.0653 -0.8182  0.1987
  117MOL   C31949271   0.985   7.440   5.740  0.4100  0.5528  0.0878
  117MOL   O32049272   1.062   7.420   5.856  1.1483 -0.5607 -0.7268
  117MOL   C32149273   1.029   7.494   5.969 -0.2219  0.7874  0.3169
  117MOL   C32249274   1.138   7.505   6.059 -0.3304  0.1211  0.1912
  117MOL   C32349275   1.122   7.566   6.181  0.3868 -0.2646 -0.0670
  117MOL   C32449276   0.994   7.623   6.206  0.1855 -0.6402  0.3780
  117MOL   C32549277   0.883   7.613   6.120 -0.4338  0.1651 -0.1713
  117MOL   C32649278   0.899   7.546   5.996 -0.1626  0.3929  0.0272
  117MOL   C32749279   1.179   7.431   5.462 -0.2089  0.1137  0.8318
  117MOL   H32849280   1.203   7.452   5.663 -4.4527  1.7092  0.6312
  117MOL   H32949281   0.879   7.426   5.760 -0.1360  0.7058 -2.5042
  117MOL   H33049282   0.993   7.545   5.709  3.0455  1.1677  2.6449
  117MOL   H33149283   1.235   7.465   6.033 -0.5100 -0.3595  0.2668
  117MOL   H33249284   1.207   7.572   6.247 -1.3791  1.3531  2.1368
  117MOL   H33349285   0.970   7.670   6.301  0.7179 -1.7785  1.0895
  117MOL   H33449286   0.789   7.654   6.154  0.1591 -0.4589  2.3144
  117MOL   H33549287   0.815   7.533   5.928  1.8074  0.9674 -2.5921
  117MOL   H33649288   1.138   7.358   5.392  0.0387  0.3135  0.4757
  117MOL   H33749289   1.121   7.522   5.448  1.5381  1.0746 -0.3517
  117MOL   C33849290   1.318   7.467   5.396 -0.3695 -0.2183 -0.1658
  117MOL   O33949291   1.317   7.554   5.287 -0.1278 -0.1192 -0.3155
  117MOL   C34049292   1.260   7.503   5.175  0.3876 -0.6061 -0.5987
  117MOL   O34149293   1.344   7.404   5.116 -0.3146 -0.0706  0.3319
  117MOL   C34249294   1.312   7.371   4.988  0.6894  0.0899  0.7495
  117MOL   C34349295   1.418   7.314   4.915  0.3454 -0.9260 -0.1359
  117MOL   C34449296   1.399   7.278   4.781 -0.5863 -0.3448  0.1490
  117MOL   C34549297   1.271   7.283   4.721  0.1122  0.4392 -0.2471
  117MOL   C34649298   1.162   7.311   4.801 -0.8692 -0.2692  0.1531
  117MOL   C34749299   1.182   7.361   4.932  0.4336  0.6388 -0.1507
  117MOL   C34849300   1.414   7.543   5.492  0.9177  0.6917 -0.7581
  117MOL   H34949301   1.375   7.378   5.369  0.4957  0.5369 -0.8795
  117MOL   H35049302   1.240   7.585   5.106  1.4477 -0.4857 -0.7768
  117MOL   H35149303   1.157   7.477   5.199  1.0796 -1.6571  1.4066
  117MOL   H35249304   1.518   7.324   4.954 -0.9107  0.8915  2.8661
  117MOL   H35349305   1.483   7.236   4.727 -0.5474 -0.9230  0.6579
  117MOL   H35449306   1.254   7.245   4.621 -0.8746  0.7469 -0.2081
  117MOL   H35549307   1.065   7.311   4.753 -0.5337  0.8766 -0.5429
  117MOL   H35649308   1.100   7.391   4.995  0.5581  0.5586  0.0481
  117MOL   H35749309   1.402   7.491   5.587  1.6257  1.8546 -0.0178
  117MOL   H35849310   1.375   7.644   5.504  1.5231  0.8705 -0.2626
  117MOL   C35949311   1.571   7.542   5.462 -0.1309 -0.4986  0.0743
  117MOL   O36049312   1.626   7.619   5.559  0.2596 -0.4324  0.3701
  117MOL   C36149313   1.657   7.569   5.687  0.5132 -0.2457 -0.2470
  117MOL   O36249314   1.543   7.567   5.771 -0.5024  0.2191  0.0870
  117MOL   C36349315   1.540   7.625   5.892 -0.8820  0.0537 -0.3119
  117MOL   C36449316   1.421   7.691   5.936 -0.8286 -0.3404  1.0455
  117MOL   C36549317   1.413   7.741   6.063 -0.3927  0.5875  0.6005
  117MOL   C36649318   1.526   7.750   6.145  0.1493  0.7703 -0.2458
  117MOL   C36749319   1.639   7.687   6.105 -0.9408 -0.1827 -0.4850
  117MOL   C36849320   1.656   7.630   5.977 -0.4376  0.7596  0.0321
  117MOL   C36949321   1.633   7.602   5.324  0.0627  0.0680 -0.6378
  117MOL   H37049322   1.620   7.445   5.473 -0.6692 -0.6376  1.2796
  117MOL   H37149323   1.733   7.636   5.728 -0.3493  1.9052 -2.0660
  117MOL   H37249324   1.702   7.470   5.677  2.2631  0.0393  3.6148
  117MOL   H37349325   1.335   7.685   5.870 -0.0318 -0.3168 -0.0145
  117MOL   H37449326   1.316   7.777   6.095 -0.1722  1.3697  0.4133
  117MOL   H37549327   1.504   7.781   6.246 -0.0943  1.3315 -0.4642
  117MOL   H37649328   1.730   7.686   6.164  0.1661 -3.1425 -2.1319
  117MOL   H37749329   1.746   7.576   5.954 -0.9552 -0.1385  0.1010
  117MOL   H37849330   1.611   7.708   5.318 -0.6387 -0.1222 -1.4994
  117MOL   H37949331   1.575   7.555   5.244  1.5517  0.3018 -1.8762
  117MOL   C38049332   1.786   7.572   5.301 -0.3616  0.3078  0.1449
  117MOL   O38149333   1.859   7.681   5.368  0.3778  0.1373 -0.4579
  117MOL   C38249334   1.981   7.647   5.429  0.5422  0.3290 -0.2475
  117MOL   O38349335   1.962   7.553   5.536  0.2227 -0.0076 -0.4358
  117MOL   C38449336   2.071   7.492   5.596 -0.5240  0.4046  0.7725
  117MOL   C38549337   2.202   7.541   5.578 -0.3810 -0.1188 -0.5634
  117MOL   C38649338   2.312   7.494   5.650  0.4909 -0.2978 -0.5359
  117MOL   C38749339   2.296   7.382   5.734 -0.1441 -0.0227 -0.1640
  117MOL   C38849340   2.164   7.329   5.748  0.0794 -0.0342  0.6536
  117MOL   C38949341   2.049   7.388   5.687  0.0004 -0.2156 -0.7344
  117MOL   C39049342   1.833   7.582   5.156  0.0207 -0.0088 -0.0613
  117MOL   H39149343   1.827   7.482   5.348  0.5900 -0.2204 -1.6684
  117MOL   H39249344   2.060   7.610   5.364  0.3108 -2.0345  0.7829
  117MOL   H39349345   2.018   7.745   5.460 -0.3024  1.6864 -3.2955
  117MOL   H39449346   2.215   7.623   5.509 -0.2435 -0.3162 -0.7740
  117MOL   H39549347   2.411   7.534   5.630  1.2633 -0.4974  2.6240
  117MOL   H39649348   2.383   7.345   5.786 -0.5828 -0.7649  0.0500
  117MOL   H39749349   2.139   7.231   5.783 -2.4557  0.3292 -0.0245
  117MOL   H39849350   1.953   7.338   5.694  0.1400 -0.9948 -3.7908
  117MOL   H39949351   1.942   7.592   5.156 -0.2360  3.5346  1.4375
  117MOL   H40049352   1.812   7.685   5.128 -2.1861 -0.4385 -0.0416
  117MOL   C40149353   1.763   7.491   5.053  0.9567 -0.4465 -0.0877
  117MOL   O40249354   1.846   7.515   4.938 -0.5437  0.9587  0.1403
  117MOL   C40349355   1.786   7.489   4.810  0.3729 -0.1803 -0.9172
  117MOL   O40449356   1.857   7.549   4.710 -0.2508  0.1265  0.1883
  117MOL   C40549357   1.796   7.583   4.590  0.1768  0.5823 -0.3132
  117MOL   C40649358   1.676   7.521   4.551  0.1866 -0.0930 -0.4194
  117MOL   C40749359   1.607   7.568   4.434  0.6838  0.4495 -0.3126
  117MOL   C40849360   1.672   7.672   4.362  0.5655  0.0626  0.1360
  117MOL   C40949361   1.795   7.730   4.396 -0.0421  0.4839  0.0188
  117MOL   C41049362   1.849   7.691   4.517 -0.2756 -0.3938  0.6550
  117MOL   C41149363   1.753   7.348   5.086  0.1973  0.4011 -0.3843
  117MOL   H41249364   1.664   7.530   5.030  1.2164  1.8123  2.3765
  117MOL   H41349365   1.682   7.522   4.816  0.3741 -0.6696  3.6320
  117MOL   H41449366   1.783   7.386   4.774 -1.4414  0.2337 -2.0563
  117MOL   H41549367   1.628   7.441   4.605  0.4622 -1.8619 -2.7137
  117MOL   H41649368   1.513   7.521   4.409 -0.1774  0.8937  1.9413
  117MOL   H41749369   1.626   7.708   4.272  0.3314 -1.0537 -0.1973
  117MOL   H41849370   1.846   7.808   4.340 -0.4058  0.9902  0.3919
  117MOL   H41949371   1.930   7.745   4.564 -0.9160  1.4833 -0.3356
  117MOL   H42049372   1.850   7.307   5.115 -0.8989 -1.3612  0.9099
  117MOL   H42149373   1.716   7.269   5.021  1.8416 -1.7512  1.1992
  117MOL   H42249374   1.680   7.337   5.167  0.6144 -1.0061 -0.1864
  118MOL     C149375   3.937   0.696   5.480 -0.2731 -0.2769 -0.1704
  118MOL     O249376   3.866   0.761   5.581  0.5374 -0.4124  0.4601
  118MOL     C349377   3.770   0.689   5.637 -0.4996 -0.8755  0.7569
  118MOL     O449378   3.660   0.678   5.565 -0.1783  0.5615  0.1814
  118MOL     C549379   3.543   0.636   5.627  0.4988 -0.5735 -0.2407
  118MOL     C649380   3.536   0.582   5.759  0.4060  0.2341  0.2057
  118MOL     C749381   3.409   0.565   5.821  0.2186 -0.0884  0.5386
  118MOL     C849382   3.289   0.573   5.741 -0.1245  0.6259  0.2032
  118MOL     C949383   3.298   0.629   5.613 -0.2172  0.1998 -0.2115
  118MOL    C1049384   3.424   0.655   5.558 -0.1256  0.1188  0.1744
  118MOL    C1149385   4.018   0.792   5.397 -0.2463 -0.3633  0.2774
  118MOL    H1249386   3.990   0.616   5.532  0.8102 -0.5260 -1.6484
  118MOL    H1349387   3.805   0.591   5.670 -0.1350 -0.7796  0.6539
  118MOL    H1449388   3.761   0.741   5.732  1.0231  0.0394  0.4065
  118MOL    H1549389   3.627   0.566   5.814  1.2484 -0.1563 -1.2792
  118MOL    H1649390   3.406   0.528   5.922 -0.8851  0.7203  0.8197
  118MOL    H1749391   3.196   0.550   5.791 -1.1488  1.2556 -1.3725
  118MOL    H1849392   3.208   0.644   5.554 -0.8783  0.1375  0.7621
  118MOL    H1949393   3.425   0.694   5.457  0.7652  0.0500  0.1561
  118MOL    H2049394   4.095   0.852   5.446 -0.1252 -0.8499  0.6889
  118MOL    H2149395   3.948   0.855   5.342  0.5638  1.5993  1.4631
  118MOL    H2249396   3.867   0.647   5.414 -0.7490  1.9464 -1.3569
  118MOL    C2349397   4.110   0.733   5.288 -0.1770  0.6725 -0.3362
  118MOL    O2449398   4.208   0.651   5.350 -0.8454 -0.3375  0.0359
  118MOL    C2549399   4.204   0.517   5.321 -0.1520  0.2683 -0.5811
  118MOL    O2649400   4.081   0.464   5.362 -0.2941 -0.4006 -0.2877
  118MOL    C2749401   4.059   0.326   5.373 -0.0434 -0.5179  0.4548
  118MOL    C2849402   3.966   0.264   5.455  0.2819  0.2457 -0.3190
  118MOL    C2949403   3.946   0.126   5.450  0.7759  0.2307 -0.3197
  118MOL    C3049404   4.020   0.040   5.364  0.4448 -1.0872  0.6797
  118MOL    C3149405   4.121   0.100   5.285 -0.1866  0.6904  0.2360
  118MOL    C3249406   4.153   0.237   5.304  0.3311  0.0714 -1.0075
  118MOL    C3349407   4.176   0.847   5.203  0.6271  0.3299 -0.4146
  118MOL    H3449408   4.047   0.677   5.219 -0.0641 -1.7214  1.4573
  118MOL    H3549409   4.281   0.471   5.383  1.0418  0.1502 -2.1006
  118MOL    H3649410   4.221   0.495   5.215 -1.6488 -0.8287 -0.6008
  118MOL    H3749411   3.896   0.322   5.512 -0.2365 -1.2742  0.6202
  118MOL    H3849412   3.874   0.077   5.513 -0.7346  1.0011 -1.4045
  118MOL    H3949413   3.997   7.910   5.367  1.3798 -1.2723  1.5487
  118MOL    H4049414   4.191   0.045   5.223 -0.0358  1.0781  0.0618
  118MOL    H4149415   4.242   0.271   5.254  1.2269  0.3609  0.7537
  118MOL    H4249416   4.212   0.924   5.270  0.1946  0.2392 -0.0777
  118MOL    H4349417   4.086   0.893   5.162 -1.3480 -2.4383  0.6186
  118MOL    C4449418   4.283   0.813   5.100  0.4988  0.6086  0.3643
  118MOL    O4549419   4.315   0.934   5.038  0.1313  0.0255  0.4505
  118MOL    C4649420   4.412   1.020   5.094 -0.4727 -0.2548  0.4213
  118MOL    O4749421   4.536   0.960   5.091 -0.4701 -0.0839 -0.1560
  118MOL    C4849422   4.604   0.938   4.971  0.0691 -0.3224 -0.9105
  118MOL    C4949423   4.731   0.880   4.975  0.4626 -0.4289  0.2945
  118MOL    C5049424   4.809   0.859   4.858  0.6939 -0.3062  0.6607
  118MOL    C5149425   4.752   0.895   4.737 -0.3989 -0.9376  0.7284
  118MOL    C5249426   4.627   0.956   4.725  0.4579  0.3224 -0.0632
  118MOL    C5349427   4.552   0.981   4.844 -0.5092 -0.6550 -0.7468
  118MOL    C5449428   4.241   0.715   4.995 -0.0007  0.7096  0.5975
  118MOL    H5549429   4.371   0.775   5.152  0.6580 -1.7039 -1.4744
  118MOL    H5649430   4.393   1.051   5.197 -0.6137  0.7090  0.1136
  118MOL    H5749431   4.404   1.110   5.033 -0.4484 -1.2676 -1.0921
  118MOL    H5849432   4.773   0.840   5.066 -1.0216 -3.3272 -0.2387
  118MOL    H5949433   4.913   0.829   4.861  1.9378  3.2139 -2.5005
  118MOL    H6049434   4.815   0.873   4.652  0.7697  1.0314  1.0574
  118MOL    H6149435   4.585   0.986   4.630  2.0356  0.6102 -0.6917
  118MOL    H6249436   4.454   1.025   4.833 -0.2406  0.1006 -0.1195
  118MOL    H6349437   4.170   0.639   5.029 -0.0691  0.4258 -0.1579
  118MOL    H6449438   4.180   0.765   4.920  0.3137  1.8511  1.0893
  118MOL    C6549439   4.361   0.646   4.924 -0.7483  0.2162 -0.5408
  118MOL    O6649440   4.397   0.547   5.020 -0.2670 -0.4002 -0.3727
  118MOL    C6749441   4.525   0.489   5.005 -0.2155 -0.7101 -0.0114
  118MOL    O6849442   4.629   0.567   5.034 -0.0298  0.7148  0.3442
  118MOL    C6949443   4.650   0.586   5.170  0.2932  0.5434 -0.4904
  118MOL    C7049444   4.783   0.593   5.218  0.7547 -0.0385 -0.2545
  118MOL    C7149445   4.812   0.610   5.358 -0.0931 -0.3036  0.0587
  118MOL    C7249446   4.709   0.621   5.452  0.0448  0.4534  0.3021
  118MOL    C7349447   4.577   0.611   5.409 -0.1263 -0.1465 -0.3741
  118MOL    C7449448   4.551   0.594   5.270  0.2558  0.1181 -0.0616
  118MOL    C7549449   4.326   0.596   4.783 -0.0907 -0.3138  0.0237
  118MOL    H7649450   4.441   0.720   4.926  0.6808 -1.2687 -1.5424
  118MOL    H7749451   4.544   0.450   4.905  0.7361  1.9456 -0.8955
  118MOL    H7849452   4.526   0.400   5.068 -2.9139  0.4007  1.6744
  118MOL    H7949453   4.853   0.596   5.136 -0.8964  0.8013 -1.6428
  118MOL    H8049454   4.910   0.634   5.395  1.0427 -1.5805 -2.0258
  118MOL    H8149455   4.726   0.628   5.559  0.1313 -0.7435  0.3759
  118MOL    H8249456   4.500   0.629   5.483  0.1508 -0.0372 -0.1069
  118MOL    H8349457   4.446   0.590   5.245  0.0175  0.2170  0.9325
  118MOL    H8449458   4.299   0.692   4.738  2.9458  1.2225  1.2544
  118MOL    H8549459   4.423   0.567   4.742  0.9035 -0.2937  2.2169
  118MOL    C8649460   4.221   0.483   4.774  0.2751  0.4062 -0.3647
  118MOL    O8749461   4.091   0.523   4.815 -0.5964 -0.0650 -0.6133
  118MOL    C8849462   4.004   0.419   4.830  0.1164  0.0290  0.4324
  118MOL    O8949463   3.988   0.383   4.967 -0.3859 -0.4079 -0.0626
  118MOL    C9049464   3.885   0.444   5.034 -0.2265  0.1827  0.2614
  118MOL    C9149465   3.829   0.567   4.992  0.2089 -0.5284  0.4295
  118MOL    C9249466   3.742   0.640   5.076  0.0622 -0.0215  0.2085
  118MOL    C9349467   3.712   0.587   5.201  0.6486  0.1856 -0.3509
  118MOL    C9449468   3.757   0.457   5.235 -0.2100  0.0570 -0.4680
  118MOL    C9549469   3.841   0.384   5.149 -0.0333  0.4400 -0.1818
  118MOL    C9649470   4.216   0.429   4.627  0.2986  0.8550 -0.1140
  118MOL    H9749471   4.247   0.399   4.838  1.2479  0.7791 -0.2611
  118MOL    H9849472   4.049   0.328   4.793  0.7213  0.0390  1.1416
  118MOL    H9949473   3.906   0.431   4.784  0.5425  0.0248 -0.4688
  118MOL   H10049474   3.854   0.624   4.903  0.9893  0.0806  1.0384
  118MOL   H10149475   3.701   0.735   5.045  0.7934  0.2939  0.1921
  118MOL   H10249476   3.661   0.653   5.270  2.2688 -0.2254  1.2954
  118MOL   H10349477   3.743   0.423   5.336 -0.8214 -1.1638 -0.9647
  118MOL   H10449478   3.884   0.287   5.171 -0.5469  0.3537  0.4716
  118MOL   H10549479   4.319   0.409   4.599  0.3591  1.3196 -0.2243
  118MOL   H10649480   4.163   0.334   4.626 -1.7418  1.9054  2.2259
  118MOL   C10749481   4.151   0.524   4.518  0.5371  0.3446 -0.4197
  118MOL   O10849482   4.183   0.468   4.384  0.0985 -0.1106 -0.5966
  118MOL   C10949483   4.267   0.541   4.296 -0.2136  0.0282  0.1779
  118MOL   O11049484   4.406   0.516   4.316 -0.2713  0.0256 -0.2739
  118MOL   C11149485   4.455   0.397   4.263 -0.3373 -0.3135  0.3933
  118MOL   C11249486   4.592   0.374   4.272 -0.5360 -0.0367  0.0140
  118MOL   C11349487   4.661   0.271   4.210 -0.4374 -0.2284  0.1965
  118MOL   C11449488   4.587   0.186   4.129 -0.4358 -0.1279 -0.8148
  118MOL   C11549489   4.444   0.195   4.121  1.0733  0.1269 -0.1456
  118MOL   C11649490   4.383   0.298   4.196  0.1126 -0.1175 -0.0593
  118MOL   C11749491   3.996   0.517   4.515  0.2021  0.0541 -0.0145
  118MOL   H11849492   4.197   0.622   4.532  0.5595  0.2138  0.4312
  118MOL   H11949493   4.237   0.643   4.322 -1.3820 -0.0763 -0.6781
  118MOL   H12049494   4.236   0.525   4.193  0.6193 -0.3015 -0.0200
  118MOL   H12149495   4.647   0.436   4.341 -0.9126  2.2692 -1.6831
  118MOL   H12249496   4.767   0.252   4.219 -0.1762 -1.8816 -4.8440
  118MOL   H12349497   4.645   0.107   4.083 -1.5738 -0.5172 -1.6004
  118MOL   H12449498   4.378   0.122   4.076 -0.3948  3.0417 -2.9700
  118MOL   H12549499   4.276   0.311   4.195  0.1330  0.2628  1.5305
  118MOL   H12649500   3.951   0.548   4.609  1.2342 -0.2230  0.5792
  118MOL   H12749501   3.960   0.415   4.508 -1.4330  0.4359  2.2509
  118MOL   C12849502   3.930   0.609   4.402  0.4434 -0.0551 -0.1640
  118MOL   O12949503   4.013   0.729   4.400 -0.0629  0.0767 -0.0290
  118MOL   C13049504   4.001   0.799   4.285  0.2877  0.4466  0.4497
  118MOL   O13149505   4.035   0.722   4.174 -0.2432  0.3782 -0.4125
  118MOL   C13249506   4.064   0.790   4.053 -0.5237 -0.2640 -0.3943
  118MOL   C13349507   4.059   0.928   4.040  0.3468 -0.3290  0.6529
  118MOL   C13449508   4.110   0.991   3.927 -0.1466 -0.2675 -0.2609
  118MOL   C13549509   4.160   0.916   3.822  0.6833 -0.1132  0.6064
  118MOL   C13649510   4.165   0.776   3.837 -0.6195  0.0685 -0.2853
  118MOL   C13749511   4.122   0.712   3.953  0.6887  0.0191 -0.5083
  118MOL   C13849512   3.781   0.619   4.422  0.2355  0.0676  0.0163
  118MOL   H13949513   3.956   0.549   4.315  1.8833  0.5502 -0.1605
  118MOL   H14049514   4.061   0.887   4.310 -0.4737  1.6134 -1.7181
  118MOL   H14149515   3.902   0.843   4.277  0.8420  1.6637  0.1910
  118MOL   H14249516   4.018   0.991   4.118 -1.5669 -0.3390 -0.3208
  118MOL   H14349517   4.100   1.099   3.934 -2.2091 -0.5395  1.4726
  118MOL   H14449518   4.195   0.966   3.733  0.9034 -0.6753  0.3782
  118MOL   H14549519   4.197   0.719   3.752 -1.3841  0.6139 -0.9418
  118MOL   H14649520   4.121   0.605   3.966  2.0913  0.1806  1.1922
  118MOL   H14749521   3.732   0.659   4.333  0.8840  0.5375 -0.1233
  118MOL   H14849522   3.736   0.519   4.425 -0.4592  0.3680 -0.1302
  118MOL   C14949523   3.732   0.707   4.540 -0.0205  0.3128 -0.6006
  118MOL   O15049524   3.759   0.843   4.509  0.3765 -0.4036  0.0377
  118MOL   C15149525   3.847   0.907   4.597  0.5296 -0.7319  0.8195
  118MOL   O15249526   3.782   0.943   4.716 -0.2654 -0.0031 -0.3301
  118MOL   C15349527   3.856   1.002   4.820 -0.2942  0.6198 -0.0851
  118MOL   C15449528   3.782   1.083   4.917 -0.2475  0.5641  0.0113
  118MOL   C15549529   3.850   1.163   5.012  0.9283 -0.2927  0.2709
  118MOL   C15649530   3.993   1.158   5.017 -0.2363  0.4261  0.1620
  118MOL   C15749531   4.065   1.079   4.925  0.1914  0.0531 -0.4606
  118MOL   C15849532   3.997   0.999   4.831  0.6312 -0.1190 -0.9675
  118MOL   C15949533   3.581   0.700   4.564 -0.5841  0.8148  0.6783
  118MOL   H16049534   3.775   0.675   4.635 -0.9369  0.4106 -0.1492
  118MOL   H16149535   3.929   0.840   4.620 -0.4688 -2.6052 -0.8594
  118MOL   H16249536   3.894   0.997   4.557 -1.0873  0.0252  0.5616
  118MOL   H16349537   3.674   1.078   4.911 -0.2423 -0.9008  0.8112
  118MOL   H16449538   3.786   1.222   5.077  0.5670 -0.1894 -0.1778
  118MOL   H16549539   4.045   1.218   5.090 -0.3190  0.5710  0.1027
  118MOL   H16649540   4.172   1.088   4.933  0.3093 -0.0751 -1.8596
  118MOL   H16749541   4.056   0.952   4.754  0.4504 -1.4411 -0.3063
  118MOL   H16849542   3.523   0.744   4.483 -2.0651 -1.4663  0.4614
  118MOL   H16949543   3.566   0.772   4.644 -0.8857 -0.2081  1.5489
  118MOL   C17049544   3.532   0.555   4.602 -0.2488  0.0363  0.5854
  118MOL   O17149545   3.621   0.501   4.702 -0.2540  0.3247 -0.5017
  118MOL   C17249546   3.639   0.372   4.667  0.5728  0.5033 -0.0101
  118MOL   O17349547   3.532   0.284   4.664 -0.0601 -0.1054 -0.0200
  118MOL   C17449548   3.474   0.241   4.779  0.2630  0.6698  0.2506
  118MOL   C17549549   3.384   0.132   4.772  0.0552  0.3333  0.1317
  118MOL   C17649550   3.306   0.092   4.882 -0.3989  1.8278  0.6256
  118MOL   C17749551   3.320   0.165   4.996  0.0316 -0.0289 -0.0276
  118MOL   C17849552   3.407   0.275   5.009  0.4457 -0.0288  0.5382
  118MOL   C17949553   3.477   0.314   4.896 -0.9177 -0.1961  0.2749
  118MOL   C18049554   3.392   0.554   4.660 -0.2354  0.1508  0.3038
  118MOL   H18149555   3.527   0.505   4.505  2.6416  0.3808  0.2317
  118MOL   H18249556   3.709   0.329   4.738 -0.1070  0.7304  0.8071
  118MOL   H18349557   3.681   0.365   4.566  0.3018  0.2793 -0.1086
  118MOL   H18449558   3.353   0.085   4.680  1.1132  2.2583 -1.2510
  118MOL   H18549559   3.242   0.006   4.873 -1.2431  2.5495 -0.3619
  118MOL   H18649560   3.262   0.126   5.079 -1.8572  0.5501 -1.0306
  118MOL   H18749561   3.415   0.329   5.102  0.1447  1.7254 -0.4306
  118MOL   H18849562   3.547   0.396   4.909 -0.7109 -0.5290  1.3972
  118MOL   H18949563   3.366   0.456   4.699 -2.7443  0.2952 -0.9520
  118MOL   H19049564   3.394   0.628   4.740  0.4404 -0.9106  1.2882
  118MOL   C19149565   3.278   0.574   4.556 -0.9415  0.6404 -0.4216
  118MOL   O19249566   3.157   0.601   4.638  0.0736 -0.1841  0.2785
  118MOL   C19349567   3.065   0.682   4.575  0.3455 -0.0215 -0.0610
  118MOL   O19449568   3.118   0.806   4.526  0.5630 -0.9262  0.2364
  118MOL   C19549569   3.187   0.885   4.610 -0.3075 -0.2724  0.1260
  118MOL   C19649570   3.166   0.894   4.752 -0.9396 -0.3933  0.2687
  118MOL   C19749571   3.256   0.956   4.834  0.8264  0.5525 -0.2703
  118MOL   C19849572   3.373   1.013   4.781  0.0994 -0.7413  0.1940
  118MOL   C19949573   3.393   1.024   4.642  0.5857  0.0016 -0.0772
  118MOL   C20049574   3.302   0.960   4.557 -0.3822  0.3848  0.1019
  118MOL   C20149575   3.251   0.450   4.472  0.5387 -0.6161  0.3955
  118MOL   H20249576   3.310   0.662   4.501 -1.2556  1.0103 -0.0139
  118MOL   H20349577   2.983   0.703   4.644  0.3280  0.8301 -0.3346
  118MOL   H20449578   3.018   0.637   4.488 -1.8212  1.3424  0.3467
  118MOL   H20549579   3.089   0.831   4.795  0.2900 -1.1362  1.4121
  118MOL   H20649580   3.241   0.951   4.940 -0.7542 -1.0870 -0.5638
  118MOL   H20749581   3.443   1.062   4.847  0.8263 -0.8966 -0.4588
  118MOL   H20849582   3.481   1.079   4.611  0.9696 -0.0757  0.8464
  118MOL   H20949583   3.314   0.966   4.450 -0.6340 -1.2823 -0.0390
  118MOL   H21049584   3.292   0.361   4.520  0.7873  0.6791  2.6624
  118MOL   H21149585   3.144   0.429   4.464  0.4605  0.7126 -2.7098
  118MOL   C21249586   3.317   0.457   4.332 -0.3952  0.3833 -0.2854
  118MOL   O21349587   3.317   0.325   4.274 -0.4813  0.4442 -0.1825
  118MOL   C21449588   3.421   0.238   4.316 -0.3623 -0.0738  0.0938
  118MOL   O21549589   3.551   0.278   4.287 -0.2214 -0.0867  0.6109
  118MOL   C21649590   3.653   0.199   4.343 -0.4182  0.2899 -0.2910
  118MOL   C21749591   3.632   0.080   4.418  0.0382 -0.0754 -0.0383
  118MOL   C21849592   3.734   7.975   4.462  0.0917 -0.0679 -0.6276
  118MOL   C21949593   3.866   0.038   4.438 -0.2886  0.0137 -0.1109
  118MOL   C22049594   3.892   0.148   4.355 -0.0730  0.3755 -0.0753
  118MOL   C22149595   3.786   0.232   4.307  0.3188  0.3173  0.0020
  118MOL   C22249596   3.247   0.549   4.227  0.4394 -0.0301 -0.2021
  118MOL   H22349597   3.419   0.495   4.336 -1.4279  3.3207 -0.4292
  118MOL   H22449598   3.410   0.141   4.268  1.6433 -0.7606  0.9705
  118MOL   H22549599   3.416   0.228   4.424 -0.7615  0.3698  0.1189
  118MOL   H22649600   3.532   0.050   4.445  0.5812 -4.7508 -2.8096
  118MOL   H22749601   3.720   7.892   4.530  1.9088  1.2663  1.4484
  118MOL   H22849602   3.949   7.957   4.478 -0.3756 -1.0867 -1.4413
  118MOL   H22949603   3.995   0.176   4.341  0.3621  1.0254  3.8493
  118MOL   H23049604   3.809   0.322   4.252  1.2770  0.2754  0.3365
  118MOL   H23149605   3.158   0.498   4.188  0.3947  1.3663 -2.0238
  118MOL   H23249606   3.201   0.634   4.278  0.2253 -1.2553  1.6846
  118MOL   C23349607   3.332   0.600   4.115 -0.7263  0.4211 -0.7808
  118MOL   O23449608   3.448   0.669   4.158 -0.2432 -0.4500 -0.2860
  118MOL   C23549609   3.441   0.800   4.207 -0.2525  0.5797 -0.6508
  118MOL   O23649610   3.435   0.894   4.104  0.3804  0.0388 -0.3142
  118MOL   C23749611   3.523   0.887   3.997  0.1654  0.1341  0.1707
  118MOL   C23849612   3.653   0.836   4.009 -1.3078 -0.2405  0.0768
  118MOL   C23949613   3.729   0.824   3.898 -0.3158 -0.3046 -0.2443
  118MOL   C24049614   3.692   0.871   3.774  0.0907 -0.1861  0.0979
  118MOL   C24149615   3.564   0.938   3.770  0.2412 -0.1057 -0.3812
  118MOL   C24249616   3.477   0.936   3.879 -0.1406 -0.1014 -0.0054
  118MOL   C24349617   3.386   0.482   4.024  0.0329 -0.1648  0.0760
  118MOL   H24449618   3.274   0.681   4.071 -1.4507  1.0696  1.3390
  118MOL   H24549619   3.533   0.822   4.260  0.5496  2.7934 -2.8647
  118MOL   H24649620   3.358   0.793   4.277  2.0683  0.2146  2.1385
  118MOL   H24749621   3.685   0.815   4.110  1.9141  1.7709 -0.4673
  118MOL   H24849622   3.827   0.779   3.910 -1.0233 -1.3679  1.7638
  118MOL   H24949623   3.754   0.855   3.687  1.3632 -1.5325  1.2381
  118MOL   H25049624   3.533   0.968   3.671  1.5926 -1.4057 -1.2286
  118MOL   H25149625   3.378   0.977   3.868 -0.1423  0.8791  3.2778
  118MOL   H25249626   3.463   0.432   4.082  2.2245  0.8092 -1.9193
  118MOL   H25349627   3.313   0.406   3.994  0.1489 -0.9450  1.7335
  118MOL   C25449628   3.447   0.530   3.893  0.3743  0.4075 -0.7625
  118MOL   O25549629   3.549   0.435   3.854 -0.6615 -0.6173  0.1572
  118MOL   C25649630   3.671   0.443   3.918 -0.1082 -1.0944  0.2772
  118MOL   O25749631   3.765   0.525   3.846 -0.5279  0.2776 -0.2321
  118MOL   C25849632   3.819   0.470   3.733  0.6433 -0.4662  0.3887
  118MOL   C25949633   3.794   0.340   3.681 -0.3762 -0.0359 -0.2864
  118MOL   C26049634   3.857   0.294   3.563 -0.3577 -0.1622 -0.9590
  118MOL   C26149635   3.953   0.374   3.498  0.7179  0.7548 -0.3233
  118MOL   C26249636   3.984   0.503   3.551 -0.0609  0.5366 -0.6237
  118MOL   C26349637   3.916   0.547   3.669  0.4120  0.2155  0.1608
  118MOL   C26449638   3.353   0.545   3.768  0.4825 -0.1388  0.2388
  118MOL   H26549639   3.492   0.628   3.911 -0.4707  0.4437  1.3952
  118MOL   H26649640   3.713   0.343   3.929  1.8568 -0.2530  0.4979
  118MOL   H26749641   3.657   0.463   4.024  0.7645 -0.3479  0.2544
  118MOL   H26849642   3.724   0.272   3.727 -2.4724  1.7575 -0.6981
  118MOL   H26949643   3.829   0.196   3.527 -1.2244 -0.0334 -0.6640
  118MOL   H27049644   3.999   0.340   3.406  0.7257 -0.3252  0.0832
  118MOL   H27149645   4.056   0.567   3.504 -1.8043  1.9274 -1.4744
  118MOL   H27249646   3.934   0.649   3.700 -0.5534  0.1888  0.8580
  118MOL   H27349647   3.414   0.568   3.681  1.9600 -0.0271  1.3034
  118MOL   H27449648   3.315   0.445   3.745  1.2307 -0.2348 -0.5946
  118MOL   C27549649   3.238   0.651   3.779  0.1170 -0.8489 -1.1604
  118MOL   O27649650   3.207   0.687   3.644 -0.1124 -0.2646  0.2431
  118MOL   C27749651   3.276   0.801   3.598 -0.4562 -0.4440 -0.0362
  118MOL   O27849652   3.203   0.911   3.615 -0.2524  0.2062 -0.3990
  118MOL   C27949653   3.076   0.912   3.557  0.0499  0.4084  0.4015
  118MOL   C28049654   3.037   0.830   3.444  0.2027  0.4353 -0.0887
  118MOL   C28149655   2.908   0.843   3.391 -0.1410  0.1209  0.3660
  118MOL   C28249656   2.813   0.934   3.443  0.3242 -0.0581  0.7355
  118MOL   C28349657   2.857   1.017   3.549  0.5283 -0.0925 -0.3692
  118MOL   C28449658   2.980   0.997   3.608  0.5810 -0.6351 -1.0455
  118MOL   C28549659   3.098   0.606   3.841 -0.2376 -0.1020  0.6992
  118MOL   H28649660   3.286   0.734   3.832  1.0068 -2.1051  0.0319
  118MOL   H28749661   3.300   0.794   3.492 -1.3628 -0.8895 -0.2143
  118MOL   H28849662   3.375   0.811   3.644 -0.0938  2.1274 -1.2733
  118MOL   H28949663   3.102   0.750   3.411 -0.0269  0.2035  0.0274
  118MOL   H29049664   2.884   0.781   3.305  0.0790  0.9615 -0.3082
  118MOL   H29149665   2.716   0.947   3.397 -0.4616  0.0267  2.3823
  118MOL   H29249666   2.798   1.097   3.592  1.0117 -0.6489  1.3579
  118MOL   H29349667   2.999   1.061   3.693 -2.5119 -2.2358  0.8915
  118MOL   H29449668   3.032   0.693   3.834 -0.9989 -0.7076  0.2742
  118MOL   H29549669   3.110   0.587   3.948  2.6107  0.7539  0.5635
  118MOL   C29649670   3.027   0.492   3.773  0.0682 -0.4051 -0.3548
  118MOL   O29749671   3.091   0.377   3.826  0.0699  0.0921 -0.3135
  118MOL   C29849672   3.098   0.264   3.747 -0.1506  0.1934  0.4240
  118MOL   O29949673   2.981   0.188   3.739 -0.2810 -0.3910 -0.4884
  118MOL   C30049674   2.943   0.103   3.844 -0.6864  0.7789  0.1566
  118MOL   C30149675   2.835   0.013   3.815 -0.4810 -0.0711  0.0182
  118MOL   C30249676   2.798   7.893   3.910 -0.1387  0.1976 -0.0353
  118MOL   C30349677   2.860   7.896   4.040  0.2611  0.3381 -0.3475
  118MOL   C30449678   2.961   0.016   4.073  0.1787 -0.3405 -0.0979
  118MOL   C30549679   3.003   0.103   3.968  0.7878 -0.5843 -0.2806
  118MOL   C30649680   2.879   0.488   3.812 -0.2302 -0.2550 -0.0959
  118MOL   H30749681   3.036   0.507   3.666  0.5918 -0.3889 -0.3092
  118MOL   H30849682   3.174   0.192   3.777 -0.5146 -0.6736 -0.7078
  118MOL   H30949683   3.118   0.284   3.641 -2.7255 -0.0753 -0.1490
  118MOL   H31049684   2.793   0.017   3.716 -0.0386 -1.6905 -0.2504
  118MOL   H31149685   2.724   7.816   3.894  1.8120 -1.5552 -0.7461
  118MOL   H31249686   2.830   7.824   4.115 -1.3480  1.7246  0.3551
  118MOL   H31349687   3.022   0.012   4.162 -0.0212 -0.4110  0.0365
  118MOL   H31449688   3.085   0.171   3.985 -1.4426  2.1509 -0.0194
  118MOL   H31549689   2.860   0.549   3.900 -2.1076 -0.8484 -0.0593
  118MOL   H31649690   2.845   0.386   3.828  2.0304 -1.2363 -1.2673
  118MOL   C31749691   2.788   0.546   3.703  0.1247 -0.1773 -0.3182
  118MOL   O31849692   2.803   0.497   3.565 -0.3301 -1.0655 -0.5106
  118MOL   C31949693   2.770   0.369   3.538  0.4563  0.6566 -0.1161
  118MOL   O32049694   2.637   0.335   3.547  0.4902  0.5428  0.2981
  118MOL   C32149695   2.545   0.400   3.468  0.3219  0.2396 -0.1371
  118MOL   C32249696   2.580   0.481   3.357 -0.4340  0.1354  0.4100
  118MOL   C32349697   2.480   0.554   3.284 -0.6660 -0.3546  0.8163
  118MOL   C32449698   2.348   0.538   3.325  0.6235 -0.3838 -0.1489
  118MOL   C32549699   2.313   0.447   3.421  0.3544  0.2192 -0.1636
  118MOL   C32649700   2.409   0.376   3.493  0.6130  0.2391 -1.1893
  118MOL   C32749701   2.760   0.699   3.707  0.1166  0.4963  0.6402
  118MOL   H32849702   2.688   0.513   3.729  0.0439 -1.4200 -2.1323
  118MOL   H32949703   2.809   0.312   3.622 -0.5005  0.6163  0.3128
  118MOL   H33049704   2.830   0.318   3.463 -0.4901  0.5351 -0.7980
  118MOL   H33149705   2.685   0.493   3.334 -0.4815 -0.6402 -0.2859
  118MOL   H33249706   2.506   0.619   3.201 -3.2563 -1.2019 -0.7060
  118MOL   H33349707   2.272   0.601   3.282  2.4431  0.8903 -1.5447
  118MOL   H33449708   2.209   0.430   3.441  0.5528 -0.9479 -0.0742
  118MOL   H33549709   2.381   0.303   3.567  0.4251  1.2277 -0.2818
  118MOL   H33649710   2.858   0.746   3.702 -0.2931  1.3309  0.3850
  118MOL   H33749711   2.705   0.741   3.623  0.4812  0.6553  0.4851
  118MOL   C33849712   2.685   0.753   3.829 -0.0128  0.3819 -0.7102
  118MOL   O33949713   2.707   0.889   3.820  0.7159  0.2743 -0.3968
  118MOL   C34049714   2.667   0.949   3.939  0.3643  0.8829  0.5090
  118MOL   O34149715   2.744   0.918   4.054 -0.1972 -0.2227  0.0876
  118MOL   C34249716   2.876   0.958   4.053 -0.0169  0.1729  0.4637
  118MOL   C34349717   2.965   0.906   4.151 -0.5956 -0.9210 -0.6668
  118MOL   C34449718   3.102   0.952   4.150  0.2207 -0.2556 -0.1321
  118MOL   C34549719   3.148   1.053   4.061 -0.9009  0.2222  0.0998
  118MOL   C34649720   3.055   1.107   3.967  0.0356  0.1650  0.5109
  118MOL   C34749721   2.925   1.051   3.959  0.0730  0.2383  0.2569
  118MOL   C34849722   2.539   0.717   3.822  0.4072  0.6374  0.0515
  118MOL   H34949723   2.736   0.711   3.915 -0.5727 -0.4044 -0.7587
  118MOL   H35049724   2.565   0.925   3.969 -0.0898  0.7922 -1.0754
  118MOL   H35149725   2.671   1.057   3.925 -0.1550  0.6349 -1.6578
  118MOL   H35249726   2.932   0.829   4.220  1.6335 -0.5993  0.8211
  118MOL   H35349727   3.170   0.906   4.221 -0.3598 -1.9290 -0.6376
  118MOL   H35449728   3.253   1.074   4.072 -0.2951 -1.9492 -1.0655
  118MOL   H35549729   3.080   1.180   3.891 -0.6962  0.9939  1.0533
  118MOL   H35649730   2.861   1.097   3.885  0.9629  0.7964 -0.1875
  118MOL   H35749731   2.517   0.676   3.723  0.3221  1.7754 -0.4005
  118MOL   H35849732   2.477   0.804   3.846 -3.2366 -2.4181  2.3879
  118MOL   C35949733   2.489   0.624   3.934 -0.0859 -0.5196 -0.5901
  118MOL   O36049734   2.565   0.498   3.926 -0.1092 -0.2557  0.2809
  118MOL   C36149735   2.554   0.399   4.019 -0.6723  0.6383 -0.8103
  118MOL   O36249736   2.437   0.329   4.026  0.3557 -0.0249 -0.3556
  118MOL   C36349737   2.439   0.210   3.952  0.1231 -0.2982  0.0483
  118MOL   C36449738   2.491   0.195   3.820  0.4263  0.3845  0.2668
  118MOL   C36549739   2.474   0.080   3.750 -0.5255 -0.5209 -0.1333
  118MOL   C36649740   2.412   7.949   3.805  0.2020  0.3377 -0.2785
  118MOL   C36749741   2.357   7.955   3.939  0.8862 -0.0095  0.3645
  118MOL   C36849742   2.369   0.099   4.009 -0.1267 -0.8981  0.5802
  118MOL   C36949743   2.336   0.606   3.916 -0.4921  0.5230 -0.2801
  118MOL   H37049744   2.522   0.676   4.024 -1.8679  0.1284 -0.2923
  118MOL   H37149745   2.566   0.453   4.113  2.4973 -1.6190  0.1897
  118MOL   H37249746   2.643   0.336   4.024  0.0982  1.8072  0.6425
  118MOL   H37349747   2.545   0.273   3.768  0.5233 -0.2306 -0.5648
  118MOL   H37449748   2.520   0.077   3.652 -0.0107  1.6050  0.0110
  118MOL   H37549749   2.393   7.861   3.746  1.3857 -0.3556  0.3870
  118MOL   H37649750   2.303   7.869   3.976 -2.0841  1.3108 -0.7542
  118MOL   H37749751   2.331   0.124   4.107 -1.6396  2.9814 -0.8893
  118MOL   H37849752   2.306   0.516   3.862 -2.0836  1.1846 -0.5298
  118MOL   H37949753   2.304   0.691   3.855 -1.8074  1.1539  1.2612
  118MOL   C38049754   2.271   0.610   4.055 -0.7380 -0.8983  0.2596
  118MOL   O38149755   2.147   0.553   4.039  0.2949 -0.4776 -0.4890
  118MOL   C38249756   2.135   0.423   4.076 -0.2988 -0.0669  1.5008
  118MOL   O38349757   2.149   0.398   4.212 -0.1124 -0.1853  0.4708
  118MOL   C38449758   2.137   0.263   4.249 -0.2675  0.8268  0.2041
  118MOL   C38549759   2.194   0.228   4.371  0.7686  0.7294  0.4824
  118MOL   C38649760   2.186   0.095   4.419 -0.5933  0.3714  0.5156
  118MOL   C38749761   2.117   7.975   4.345 -0.1487 -0.5667 -0.2523
  118MOL   C38849762   2.058   0.026   4.221 -0.0821  0.1062 -0.0086
  118MOL   C38949763   2.071   0.161   4.179 -0.1505  0.4104  0.0125
  118MOL   C39049764   2.243   0.755   4.108 -0.1348  0.1004 -0.2868
  118MOL   H39149765   2.328   0.558   4.133 -1.3782  0.6918  1.8319
  118MOL   H39249766   2.033   0.393   4.050  0.3578  0.1346 -1.3991
  118MOL   H39349767   2.198   0.358   4.016 -1.1788  0.9371 -0.5394
  118MOL   H39449768   2.247   0.308   4.421  0.1417  1.3722  0.1269
  118MOL   H39549769   2.247   0.073   4.505  0.5665 -1.1618 -0.6598
  118MOL   H39649770   2.121   7.871   4.376  1.3330 -0.2925  0.5166
  118MOL   H39749771   2.003   7.932   4.160  0.5460 -1.3252  1.0459
  118MOL   H39849772   2.031   0.183   4.080 -0.6290 -0.8725 -0.0854
  118MOL   H39949773   2.158   0.808   4.065 -1.0357 -0.0670  1.2093
  118MOL   H40049774   2.323   0.821   4.077  0.0090  0.1606  0.2011
  118MOL   C40149775   2.231   0.767   4.260 -0.5088  0.1310  0.5142
  118MOL   O40249776   2.364   0.750   4.318 -0.4590 -0.2957 -0.0187
  118MOL   C40349777   2.361   0.691   4.442  0.4781  0.1126 -0.5351
  118MOL   O40449778   2.298   0.779   4.534 -0.6977 -0.2875 -0.3738
  118MOL   C40549779   2.268   0.743   4.664  0.0398  0.2579 -0.6716
  118MOL   C40649780   2.216   0.847   4.747  0.0211  0.0765 -0.0422
  118MOL   C40749781   2.187   0.818   4.881 -0.2081 -0.0698  0.3556
  118MOL   C40849782   2.212   0.691   4.931 -0.1700 -0.4508 -0.2866
  118MOL   C40949783   2.256   0.588   4.850 -0.3154  0.2003  0.5859
  118MOL   C41049784   2.290   0.613   4.714  0.0439 -0.2295 -0.3899
  118MOL   C41149785   2.173   0.904   4.298 -0.0695 -0.4234  0.0028
  118MOL   H41249786   2.167   0.684   4.289 -0.9585 -0.0182 -0.8280
  118MOL   H41349787   2.462   0.669   4.478  1.2127  2.1578 -1.2535
  118MOL   H41449788   2.309   0.596   4.431  0.3669  0.1728 -0.5248
  118MOL   H41549789   2.197   0.944   4.703 -2.2512 -0.1953  0.3173
  118MOL   H41649790   2.149   0.894   4.948 -0.1965 -2.8986  3.7247
  118MOL   H41749791   2.200   0.679   5.037  1.1307  1.8700  0.1528
  118MOL   H41849792   2.266   0.490   4.896 -0.4053  0.2988  0.8179
  118MOL   H41949793   2.329   0.531   4.656  0.2800  0.2104 -0.8572
  118MOL   H42049794   2.223   0.995   4.265 -0.0448 -0.1986  0.6392
  118MOL   H42149795   2.156   0.917   4.405  0.8508  1.2724 -0.0356
  118MOL   H42249796   2.074   0.892   4.253  0.4213 -2.4140 -0.5566
   7.97554   7.97554   7.97554
