;
; Gromacs include topology (itp) file.
; For Molecular Group XYZ
; Force field scheme: opls2005
; Produced from DL_FIELD v4.11
;


[ moleculetype ]
; name    nrexcl
XYZ    3

[ atoms ]
; nr   type   resnr   residu    atom    cgnr    charge    mass
    1        CA    1  MOL      C1     1  -0.1150000   12.0115
    2        CA    1  MOL      C2     2  -0.1150000   12.0115
    3        CA    1  MOL      C3     3  -0.1150000   12.0115
    4        CA    1  MOL      C4     4   0.1380000   12.0115
    5        CA    1  MOL      C5     5  -0.1150000   12.0115
    6        CA    1  MOL      C6     6  -0.1150000   12.0115
    7        SY    1  MOL      S7     7   0.7840000   32.0610
    8        OY    1  MOL      O8     8  -0.5300000   15.9994
    9        OY    1  MOL      O9     9  -0.5300000   15.9994
   10        CA    1  MOL     C10    10   0.1380000   12.0115
   11        CA    1  MOL     C11    11  -0.1150000   12.0115
   12        CA    1  MOL     C12    12  -0.1150000   12.0115
   13        CA    1  MOL     C13    13   0.0850000   12.0115
   14        CA    1  MOL     C14    14  -0.1150000   12.0115
   15        CA    1  MOL     C15    15  -0.1150000   12.0115
   16        OS    1  MOL     O16    16  -0.1700000   15.9994
   17        CA    1  MOL     C17    17   0.0850000   12.0115
   18        CA    1  MOL     C18    18  -0.1150000   12.0115
   19        CA    1  MOL     C19    19  -0.1150000   12.0115
   20       CBP    1  MOL     C20    20   0.0000000   12.0115
   21        CA    1  MOL     C21    21  -0.1150000   12.0115
   22        CA    1  MOL     C22    22  -0.1150000   12.0115
   23       CBP    1  MOL     C23    23   0.0000000   12.0115
   24        CA    1  MOL     C24    24  -0.1150000   12.0115
   25        CA    1  MOL     C25    25  -0.1150000   12.0115
   26        CA    1  MOL     C26    26   0.0850000   12.0115
   27        CA    1  MOL     C27    27  -0.1150000   12.0115
   28        CA    1  MOL     C28    28  -0.1150000   12.0115
   29        OS    1  MOL     O29    29  -0.1700000   15.9994
   30        HA    1  MOL     H30    30   0.1150000    1.0080
   31        HA    1  MOL     H31    31   0.1150000    1.0080
   32        HA    1  MOL     H32    32   0.1150000    1.0080
   33        HA    1  MOL     H33    33   0.1150000    1.0080
   34        HA    1  MOL     H34    34   0.1150000    1.0080
   35        HA    1  MOL     H35    35   0.1150000    1.0080
   36        HA    1  MOL     H36    36   0.1150000    1.0080
   37        HA    1  MOL     H37    37   0.1150000    1.0080
   38        HA    1  MOL     H38    38   0.1150000    1.0080
   39        HA    1  MOL     H39    39   0.1150000    1.0080
   40        HA    1  MOL     H40    40   0.1150000    1.0080
   41        HA    1  MOL     H41    41   0.1150000    1.0080
   42        HA    1  MOL     H42    42   0.1150000    1.0080
   43        HA    1  MOL     H43    43   0.1150000    1.0080
   44        HA    1  MOL     H44    44   0.1150000    1.0080
   45        HA    1  MOL     H45    45   0.1150000    1.0080
   46        HA    1  MOL     H46    46   0.1150000    1.0080
   47        CA    1  MOL     C47    47   0.0850000   12.0115
   48        CA    1  MOL     C48    48  -0.1150000   12.0115
   49        CA    1  MOL     C49    49  -0.1150000   12.0115
   50        CA    1  MOL     C50    50   0.1380000   12.0115
   51        CA    1  MOL     C51    51  -0.1150000   12.0115
   52        CA    1  MOL     C52    52  -0.1150000   12.0115
   53        SY    1  MOL     S53    53   0.7840000   32.0610
   54        OY    1  MOL     O54    54  -0.5300000   15.9994
   55        OY    1  MOL     O55    55  -0.5300000   15.9994
   56        CA    1  MOL     C56    56   0.1380000   12.0115
   57        CA    1  MOL     C57    57  -0.1150000   12.0115
   58        CA    1  MOL     C58    58  -0.1150000   12.0115
   59        CA    1  MOL     C59    59   0.0850000   12.0115
   60        CA    1  MOL     C60    60  -0.1150000   12.0115
   61        CA    1  MOL     C61    61  -0.1150000   12.0115
   62        OS    1  MOL     O62    62  -0.1700000   15.9994
   63        CA    1  MOL     C63    63   0.0850000   12.0115
   64        CA    1  MOL     C64    64  -0.1150000   12.0115
   65        CA    1  MOL     C65    65  -0.1150000   12.0115
   66       CBP    1  MOL     C66    66   0.0000000   12.0115
   67        CA    1  MOL     C67    67  -0.1150000   12.0115
   68        CA    1  MOL     C68    68  -0.1150000   12.0115
   69       CBP    1  MOL     C69    69   0.0000000   12.0115
   70        CA    1  MOL     C70    70  -0.1150000   12.0115
   71        CA    1  MOL     C71    71  -0.1150000   12.0115
   72        CA    1  MOL     C72    72   0.0850000   12.0115
   73        CA    1  MOL     C73    73  -0.1150000   12.0115
   74        CA    1  MOL     C74    74  -0.1150000   12.0115
   75        OS    1  MOL     O75    75  -0.1700000   15.9994
   76        HA    1  MOL     H76    76   0.1150000    1.0080
   77        HA    1  MOL     H77    77   0.1150000    1.0080
   78        HA    1  MOL     H78    78   0.1150000    1.0080
   79        HA    1  MOL     H79    79   0.1150000    1.0080
   80        HA    1  MOL     H80    80   0.1150000    1.0080
   81        HA    1  MOL     H81    81   0.1150000    1.0080
   82        HA    1  MOL     H82    82   0.1150000    1.0080
   83        HA    1  MOL     H83    83   0.1150000    1.0080
   84        HA    1  MOL     H84    84   0.1150000    1.0080
   85        HA    1  MOL     H85    85   0.1150000    1.0080
   86        HA    1  MOL     H86    86   0.1150000    1.0080
   87        HA    1  MOL     H87    87   0.1150000    1.0080
   88        HA    1  MOL     H88    88   0.1150000    1.0080
   89        HA    1  MOL     H89    89   0.1150000    1.0080
   90        HA    1  MOL     H90    90   0.1150000    1.0080
   91        HA    1  MOL     H91    91   0.1150000    1.0080
   92        CA    1  MOL     C92    92   0.0850000   12.0115
   93        CA    1  MOL     C93    93  -0.1150000   12.0115
   94        CA    1  MOL     C94    94  -0.1150000   12.0115
   95        CA    1  MOL     C95    95   0.1380000   12.0115
   96        CA    1  MOL     C96    96  -0.1150000   12.0115
   97        CA    1  MOL     C97    97  -0.1150000   12.0115
   98        SY    1  MOL     S98    98   0.7840000   32.0610
   99        OY    1  MOL     O99    99  -0.5300000   15.9994
  100        OY    1  MOL    O100   100  -0.5300000   15.9994
  101        CA    1  MOL    C101   101   0.1380000   12.0115
  102        CA    1  MOL    C102   102  -0.1150000   12.0115
  103        CA    1  MOL    C103   103  -0.1150000   12.0115
  104        CA    1  MOL    C104   104   0.0850000   12.0115
  105        CA    1  MOL    C105   105  -0.1150000   12.0115
  106        CA    1  MOL    C106   106  -0.1150000   12.0115
  107        OS    1  MOL    O107   107  -0.1700000   15.9994
  108        CA    1  MOL    C108   108   0.0850000   12.0115
  109        CA    1  MOL    C109   109  -0.1150000   12.0115
  110        CA    1  MOL    C110   110  -0.1150000   12.0115
  111       CBP    1  MOL    C111   111   0.0000000   12.0115
  112        CA    1  MOL    C112   112  -0.1150000   12.0115
  113        CA    1  MOL    C113   113  -0.1150000   12.0115
  114       CBP    1  MOL    C114   114   0.0000000   12.0115
  115        CA    1  MOL    C115   115  -0.1150000   12.0115
  116        CA    1  MOL    C116   116  -0.1150000   12.0115
  117        CA    1  MOL    C117   117   0.0850000   12.0115
  118        CA    1  MOL    C118   118  -0.1150000   12.0115
  119        CA    1  MOL    C119   119  -0.1150000   12.0115
  120        OS    1  MOL    O120   120  -0.1700000   15.9994
  121        HA    1  MOL    H121   121   0.1150000    1.0080
  122        HA    1  MOL    H122   122   0.1150000    1.0080
  123        HA    1  MOL    H123   123   0.1150000    1.0080
  124        HA    1  MOL    H124   124   0.1150000    1.0080
  125        HA    1  MOL    H125   125   0.1150000    1.0080
  126        HA    1  MOL    H126   126   0.1150000    1.0080
  127        HA    1  MOL    H127   127   0.1150000    1.0080
  128        HA    1  MOL    H128   128   0.1150000    1.0080
  129        HA    1  MOL    H129   129   0.1150000    1.0080
  130        HA    1  MOL    H130   130   0.1150000    1.0080
  131        HA    1  MOL    H131   131   0.1150000    1.0080
  132        HA    1  MOL    H132   132   0.1150000    1.0080
  133        HA    1  MOL    H133   133   0.1150000    1.0080
  134        HA    1  MOL    H134   134   0.1150000    1.0080
  135        HA    1  MOL    H135   135   0.1150000    1.0080
  136        HA    1  MOL    H136   136   0.1150000    1.0080
  137        CA    1  MOL    C137   137   0.0850000   12.0115
  138        CA    1  MOL    C138   138  -0.1150000   12.0115
  139        CA    1  MOL    C139   139  -0.1150000   12.0115
  140        CA    1  MOL    C140   140   0.1380000   12.0115
  141        CA    1  MOL    C141   141  -0.1150000   12.0115
  142        CA    1  MOL    C142   142  -0.1150000   12.0115
  143        SY    1  MOL    S143   143   0.7840000   32.0610
  144        OY    1  MOL    O144   144  -0.5300000   15.9994
  145        OY    1  MOL    O145   145  -0.5300000   15.9994
  146        CA    1  MOL    C146   146   0.1380000   12.0115
  147        CA    1  MOL    C147   147  -0.1150000   12.0115
  148        CA    1  MOL    C148   148  -0.1150000   12.0115
  149        CA    1  MOL    C149   149   0.0850000   12.0115
  150        CA    1  MOL    C150   150  -0.1150000   12.0115
  151        CA    1  MOL    C151   151  -0.1150000   12.0115
  152        OS    1  MOL    O152   152  -0.1700000   15.9994
  153        CA    1  MOL    C153   153   0.0850000   12.0115
  154        CA    1  MOL    C154   154  -0.1150000   12.0115
  155        CA    1  MOL    C155   155  -0.1150000   12.0115
  156       CBP    1  MOL    C156   156   0.0000000   12.0115
  157        CA    1  MOL    C157   157  -0.1150000   12.0115
  158        CA    1  MOL    C158   158  -0.1150000   12.0115
  159       CBP    1  MOL    C159   159   0.0000000   12.0115
  160        CA    1  MOL    C160   160  -0.1150000   12.0115
  161        CA    1  MOL    C161   161  -0.1150000   12.0115
  162        CA    1  MOL    C162   162   0.0850000   12.0115
  163        CA    1  MOL    C163   163  -0.1150000   12.0115
  164        CA    1  MOL    C164   164  -0.1150000   12.0115
  165        OS    1  MOL    O165   165  -0.1700000   15.9994
  166        HA    1  MOL    H166   166   0.1150000    1.0080
  167        HA    1  MOL    H167   167   0.1150000    1.0080
  168        HA    1  MOL    H168   168   0.1150000    1.0080
  169        HA    1  MOL    H169   169   0.1150000    1.0080
  170        HA    1  MOL    H170   170   0.1150000    1.0080
  171        HA    1  MOL    H171   171   0.1150000    1.0080
  172        HA    1  MOL    H172   172   0.1150000    1.0080
  173        HA    1  MOL    H173   173   0.1150000    1.0080
  174        HA    1  MOL    H174   174   0.1150000    1.0080
  175        HA    1  MOL    H175   175   0.1150000    1.0080
  176        HA    1  MOL    H176   176   0.1150000    1.0080
  177        HA    1  MOL    H177   177   0.1150000    1.0080
  178        HA    1  MOL    H178   178   0.1150000    1.0080
  179        HA    1  MOL    H179   179   0.1150000    1.0080
  180        HA    1  MOL    H180   180   0.1150000    1.0080
  181        HA    1  MOL    H181   181   0.1150000    1.0080
  182        CA    1  MOL    C182   182   0.0850000   12.0115
  183        CA    1  MOL    C183   183  -0.1150000   12.0115
  184        CA    1  MOL    C184   184  -0.1150000   12.0115
  185        CA    1  MOL    C185   185   0.1380000   12.0115
  186        CA    1  MOL    C186   186  -0.1150000   12.0115
  187        CA    1  MOL    C187   187  -0.1150000   12.0115
  188        SY    1  MOL    S188   188   0.7840000   32.0610
  189        OY    1  MOL    O189   189  -0.5300000   15.9994
  190        OY    1  MOL    O190   190  -0.5300000   15.9994
  191        CA    1  MOL    C191   191   0.1380000   12.0115
  192        CA    1  MOL    C192   192  -0.1150000   12.0115
  193        CA    1  MOL    C193   193  -0.1150000   12.0115
  194        CA    1  MOL    C194   194   0.0850000   12.0115
  195        CA    1  MOL    C195   195  -0.1150000   12.0115
  196        CA    1  MOL    C196   196  -0.1150000   12.0115
  197        OS    1  MOL    O197   197  -0.1700000   15.9994
  198        CA    1  MOL    C198   198   0.0850000   12.0115
  199        CA    1  MOL    C199   199  -0.1150000   12.0115
  200        CA    1  MOL    C200   200  -0.1150000   12.0115
  201       CBP    1  MOL    C201   201   0.0000000   12.0115
  202        CA    1  MOL    C202   202  -0.1150000   12.0115
  203        CA    1  MOL    C203   203  -0.1150000   12.0115
  204       CBP    1  MOL    C204   204   0.0000000   12.0115
  205        CA    1  MOL    C205   205  -0.1150000   12.0115
  206        CA    1  MOL    C206   206  -0.1150000   12.0115
  207        CA    1  MOL    C207   207   0.0850000   12.0115
  208        CA    1  MOL    C208   208  -0.1150000   12.0115
  209        CA    1  MOL    C209   209  -0.1150000   12.0115
  210        OS    1  MOL    O210   210  -0.1700000   15.9994
  211        HA    1  MOL    H211   211   0.1150000    1.0080
  212        HA    1  MOL    H212   212   0.1150000    1.0080
  213        HA    1  MOL    H213   213   0.1150000    1.0080
  214        HA    1  MOL    H214   214   0.1150000    1.0080
  215        HA    1  MOL    H215   215   0.1150000    1.0080
  216        HA    1  MOL    H216   216   0.1150000    1.0080
  217        HA    1  MOL    H217   217   0.1150000    1.0080
  218        HA    1  MOL    H218   218   0.1150000    1.0080
  219        HA    1  MOL    H219   219   0.1150000    1.0080
  220        HA    1  MOL    H220   220   0.1150000    1.0080
  221        HA    1  MOL    H221   221   0.1150000    1.0080
  222        HA    1  MOL    H222   222   0.1150000    1.0080
  223        HA    1  MOL    H223   223   0.1150000    1.0080
  224        HA    1  MOL    H224   224   0.1150000    1.0080
  225        HA    1  MOL    H225   225   0.1150000    1.0080
  226        HA    1  MOL    H226   226   0.1150000    1.0080
  227        CA    1  MOL    C227   227   0.0850000   12.0115
  228        CA    1  MOL    C228   228  -0.1150000   12.0115
  229        CA    1  MOL    C229   229  -0.1150000   12.0115
  230        CA    1  MOL    C230   230   0.1380000   12.0115
  231        CA    1  MOL    C231   231  -0.1150000   12.0115
  232        CA    1  MOL    C232   232  -0.1150000   12.0115
  233        SY    1  MOL    S233   233   0.7840000   32.0610
  234        OY    1  MOL    O234   234  -0.5300000   15.9994
  235        OY    1  MOL    O235   235  -0.5300000   15.9994
  236        CA    1  MOL    C236   236   0.1380000   12.0115
  237        CA    1  MOL    C237   237  -0.1150000   12.0115
  238        CA    1  MOL    C238   238  -0.1150000   12.0115
  239        CA    1  MOL    C239   239   0.0850000   12.0115
  240        CA    1  MOL    C240   240  -0.1150000   12.0115
  241        CA    1  MOL    C241   241  -0.1150000   12.0115
  242        OS    1  MOL    O242   242  -0.1700000   15.9994
  243        CA    1  MOL    C243   243   0.0850000   12.0115
  244        CA    1  MOL    C244   244  -0.1150000   12.0115
  245        CA    1  MOL    C245   245  -0.1150000   12.0115
  246       CBP    1  MOL    C246   246   0.0000000   12.0115
  247        CA    1  MOL    C247   247  -0.1150000   12.0115
  248        CA    1  MOL    C248   248  -0.1150000   12.0115
  249       CBP    1  MOL    C249   249   0.0000000   12.0115
  250        CA    1  MOL    C250   250  -0.1150000   12.0115
  251        CA    1  MOL    C251   251  -0.1150000   12.0115
  252        CA    1  MOL    C252   252   0.0850000   12.0115
  253        CA    1  MOL    C253   253  -0.1150000   12.0115
  254        CA    1  MOL    C254   254  -0.1150000   12.0115
  255        OS    1  MOL    O255   255  -0.1700000   15.9994
  256        HA    1  MOL    H256   256   0.1150000    1.0080
  257        HA    1  MOL    H257   257   0.1150000    1.0080
  258        HA    1  MOL    H258   258   0.1150000    1.0080
  259        HA    1  MOL    H259   259   0.1150000    1.0080
  260        HA    1  MOL    H260   260   0.1150000    1.0080
  261        HA    1  MOL    H261   261   0.1150000    1.0080
  262        HA    1  MOL    H262   262   0.1150000    1.0080
  263        HA    1  MOL    H263   263   0.1150000    1.0080
  264        HA    1  MOL    H264   264   0.1150000    1.0080
  265        HA    1  MOL    H265   265   0.1150000    1.0080
  266        HA    1  MOL    H266   266   0.1150000    1.0080
  267        HA    1  MOL    H267   267   0.1150000    1.0080
  268        HA    1  MOL    H268   268   0.1150000    1.0080
  269        HA    1  MOL    H269   269   0.1150000    1.0080
  270        HA    1  MOL    H270   270   0.1150000    1.0080
  271        HA    1  MOL    H271   271   0.1150000    1.0080
  272        CA    1  MOL    C272   272   0.0850000   12.0115
  273        CA    1  MOL    C273   273  -0.1150000   12.0115
  274        CA    1  MOL    C274   274  -0.1150000   12.0115
  275        CA    1  MOL    C275   275   0.1380000   12.0115
  276        CA    1  MOL    C276   276  -0.1150000   12.0115
  277        CA    1  MOL    C277   277  -0.1150000   12.0115
  278        SY    1  MOL    S278   278   0.7840000   32.0610
  279        OY    1  MOL    O279   279  -0.5300000   15.9994
  280        OY    1  MOL    O280   280  -0.5300000   15.9994
  281        CA    1  MOL    C281   281   0.1380000   12.0115
  282        CA    1  MOL    C282   282  -0.1150000   12.0115
  283        CA    1  MOL    C283   283  -0.1150000   12.0115
  284        CA    1  MOL    C284   284   0.0850000   12.0115
  285        CA    1  MOL    C285   285  -0.1150000   12.0115
  286        CA    1  MOL    C286   286  -0.1150000   12.0115
  287        OS    1  MOL    O287   287  -0.1700000   15.9994
  288        CA    1  MOL    C288   288   0.0850000   12.0115
  289        CA    1  MOL    C289   289  -0.1150000   12.0115
  290        CA    1  MOL    C290   290  -0.1150000   12.0115
  291       CBP    1  MOL    C291   291   0.0000000   12.0115
  292        CA    1  MOL    C292   292  -0.1150000   12.0115
  293        CA    1  MOL    C293   293  -0.1150000   12.0115
  294       CBP    1  MOL    C294   294   0.0000000   12.0115
  295        CA    1  MOL    C295   295  -0.1150000   12.0115
  296        CA    1  MOL    C296   296  -0.1150000   12.0115
  297        CA    1  MOL    C297   297   0.0850000   12.0115
  298        CA    1  MOL    C298   298  -0.1150000   12.0115
  299        CA    1  MOL    C299   299  -0.1150000   12.0115
  300        OS    1  MOL    O300   300  -0.1700000   15.9994
  301        HA    1  MOL    H301   301   0.1150000    1.0080
  302        HA    1  MOL    H302   302   0.1150000    1.0080
  303        HA    1  MOL    H303   303   0.1150000    1.0080
  304        HA    1  MOL    H304   304   0.1150000    1.0080
  305        HA    1  MOL    H305   305   0.1150000    1.0080
  306        HA    1  MOL    H306   306   0.1150000    1.0080
  307        HA    1  MOL    H307   307   0.1150000    1.0080
  308        HA    1  MOL    H308   308   0.1150000    1.0080
  309        HA    1  MOL    H309   309   0.1150000    1.0080
  310        HA    1  MOL    H310   310   0.1150000    1.0080
  311        HA    1  MOL    H311   311   0.1150000    1.0080
  312        HA    1  MOL    H312   312   0.1150000    1.0080
  313        HA    1  MOL    H313   313   0.1150000    1.0080
  314        HA    1  MOL    H314   314   0.1150000    1.0080
  315        HA    1  MOL    H315   315   0.1150000    1.0080
  316        HA    1  MOL    H316   316   0.1150000    1.0080
  317        CA    1  MOL    C317   317   0.0850000   12.0115
  318        CA    1  MOL    C318   318  -0.1150000   12.0115
  319        CA    1  MOL    C319   319  -0.1150000   12.0115
  320        CA    1  MOL    C320   320   0.1380000   12.0115
  321        CA    1  MOL    C321   321  -0.1150000   12.0115
  322        CA    1  MOL    C322   322  -0.1150000   12.0115
  323        SY    1  MOL    S323   323   0.7840000   32.0610
  324        OY    1  MOL    O324   324  -0.5300000   15.9994
  325        OY    1  MOL    O325   325  -0.5300000   15.9994
  326        CA    1  MOL    C326   326   0.1380000   12.0115
  327        CA    1  MOL    C327   327  -0.1150000   12.0115
  328        CA    1  MOL    C328   328  -0.1150000   12.0115
  329        CA    1  MOL    C329   329   0.0850000   12.0115
  330        CA    1  MOL    C330   330  -0.1150000   12.0115
  331        CA    1  MOL    C331   331  -0.1150000   12.0115
  332        OS    1  MOL    O332   332  -0.1700000   15.9994
  333        CA    1  MOL    C333   333   0.0850000   12.0115
  334        CA    1  MOL    C334   334  -0.1150000   12.0115
  335        CA    1  MOL    C335   335  -0.1150000   12.0115
  336       CBP    1  MOL    C336   336   0.0000000   12.0115
  337        CA    1  MOL    C337   337  -0.1150000   12.0115
  338        CA    1  MOL    C338   338  -0.1150000   12.0115
  339       CBP    1  MOL    C339   339   0.0000000   12.0115
  340        CA    1  MOL    C340   340  -0.1150000   12.0115
  341        CA    1  MOL    C341   341  -0.1150000   12.0115
  342        CA    1  MOL    C342   342   0.0850000   12.0115
  343        CA    1  MOL    C343   343  -0.1150000   12.0115
  344        CA    1  MOL    C344   344  -0.1150000   12.0115
  345        OS    1  MOL    O345   345  -0.1700000   15.9994
  346        HA    1  MOL    H346   346   0.1150000    1.0080
  347        HA    1  MOL    H347   347   0.1150000    1.0080
  348        HA    1  MOL    H348   348   0.1150000    1.0080
  349        HA    1  MOL    H349   349   0.1150000    1.0080
  350        HA    1  MOL    H350   350   0.1150000    1.0080
  351        HA    1  MOL    H351   351   0.1150000    1.0080
  352        HA    1  MOL    H352   352   0.1150000    1.0080
  353        HA    1  MOL    H353   353   0.1150000    1.0080
  354        HA    1  MOL    H354   354   0.1150000    1.0080
  355        HA    1  MOL    H355   355   0.1150000    1.0080
  356        HA    1  MOL    H356   356   0.1150000    1.0080
  357        HA    1  MOL    H357   357   0.1150000    1.0080
  358        HA    1  MOL    H358   358   0.1150000    1.0080
  359        HA    1  MOL    H359   359   0.1150000    1.0080
  360        HA    1  MOL    H360   360   0.1150000    1.0080
  361        HA    1  MOL    H361   361   0.1150000    1.0080
  362        CA    1  MOL    C362   362   0.0850000   12.0115
  363        CA    1  MOL    C363   363  -0.1150000   12.0115
  364        CA    1  MOL    C364   364  -0.1150000   12.0115
  365        CA    1  MOL    C365   365   0.1380000   12.0115
  366        CA    1  MOL    C366   366  -0.1150000   12.0115
  367        CA    1  MOL    C367   367  -0.1150000   12.0115
  368        SY    1  MOL    S368   368   0.7840000   32.0610
  369        OY    1  MOL    O369   369  -0.5300000   15.9994
  370        OY    1  MOL    O370   370  -0.5300000   15.9994
  371        CA    1  MOL    C371   371   0.1380000   12.0115
  372        CA    1  MOL    C372   372  -0.1150000   12.0115
  373        CA    1  MOL    C373   373  -0.1150000   12.0115
  374        CA    1  MOL    C374   374   0.0850000   12.0115
  375        CA    1  MOL    C375   375  -0.1150000   12.0115
  376        CA    1  MOL    C376   376  -0.1150000   12.0115
  377        OS    1  MOL    O377   377  -0.1700000   15.9994
  378        CA    1  MOL    C378   378   0.0850000   12.0115
  379        CA    1  MOL    C379   379  -0.1150000   12.0115
  380        CA    1  MOL    C380   380  -0.1150000   12.0115
  381       CBP    1  MOL    C381   381   0.0000000   12.0115
  382        CA    1  MOL    C382   382  -0.1150000   12.0115
  383        CA    1  MOL    C383   383  -0.1150000   12.0115
  384       CBP    1  MOL    C384   384   0.0000000   12.0115
  385        CA    1  MOL    C385   385  -0.1150000   12.0115
  386        CA    1  MOL    C386   386  -0.1150000   12.0115
  387        CA    1  MOL    C387   387   0.0850000   12.0115
  388        CA    1  MOL    C388   388  -0.1150000   12.0115
  389        CA    1  MOL    C389   389  -0.1150000   12.0115
  390        OS    1  MOL    O390   390  -0.1700000   15.9994
  391        HA    1  MOL    H391   391   0.1150000    1.0080
  392        HA    1  MOL    H392   392   0.1150000    1.0080
  393        HA    1  MOL    H393   393   0.1150000    1.0080
  394        HA    1  MOL    H394   394   0.1150000    1.0080
  395        HA    1  MOL    H395   395   0.1150000    1.0080
  396        HA    1  MOL    H396   396   0.1150000    1.0080
  397        HA    1  MOL    H397   397   0.1150000    1.0080
  398        HA    1  MOL    H398   398   0.1150000    1.0080
  399        HA    1  MOL    H399   399   0.1150000    1.0080
  400        HA    1  MOL    H400   400   0.1150000    1.0080
  401        HA    1  MOL    H401   401   0.1150000    1.0080
  402        HA    1  MOL    H402   402   0.1150000    1.0080
  403        HA    1  MOL    H403   403   0.1150000    1.0080
  404        HA    1  MOL    H404   404   0.1150000    1.0080
  405        HA    1  MOL    H405   405   0.1150000    1.0080
  406        HA    1  MOL    H406   406   0.1150000    1.0080
  407        CA    1  MOL    C407   407   0.0850000   12.0115
  408        CA    1  MOL    C408   408  -0.1150000   12.0115
  409        CA    1  MOL    C409   409  -0.1150000   12.0115
  410        CA    1  MOL    C410   410   0.1380000   12.0115
  411        CA    1  MOL    C411   411  -0.1150000   12.0115
  412        CA    1  MOL    C412   412  -0.1150000   12.0115
  413        SY    1  MOL    S413   413   0.7840000   32.0610
  414        OY    1  MOL    O414   414  -0.5300000   15.9994
  415        OY    1  MOL    O415   415  -0.5300000   15.9994
  416        CA    1  MOL    C416   416   0.1380000   12.0115
  417        CA    1  MOL    C417   417  -0.1150000   12.0115
  418        CA    1  MOL    C418   418  -0.1150000   12.0115
  419        CA    1  MOL    C419   419   0.0850000   12.0115
  420        CA    1  MOL    C420   420  -0.1150000   12.0115
  421        CA    1  MOL    C421   421  -0.1150000   12.0115
  422        OS    1  MOL    O422   422  -0.1700000   15.9994
  423        CA    1  MOL    C423   423   0.0850000   12.0115
  424        CA    1  MOL    C424   424  -0.1150000   12.0115
  425        CA    1  MOL    C425   425  -0.1150000   12.0115
  426       CBP    1  MOL    C426   426   0.0000000   12.0115
  427        CA    1  MOL    C427   427  -0.1150000   12.0115
  428        CA    1  MOL    C428   428  -0.1150000   12.0115
  429       CBP    1  MOL    C429   429   0.0000000   12.0115
  430        CA    1  MOL    C430   430  -0.1150000   12.0115
  431        CA    1  MOL    C431   431  -0.1150000   12.0115
  432        CA    1  MOL    C432   432   0.0850000   12.0115
  433        CA    1  MOL    C433   433  -0.1150000   12.0115
  434        CA    1  MOL    C434   434  -0.1150000   12.0115
  435        OS    1  MOL    O435   435  -0.1700000   15.9994
  436        HA    1  MOL    H436   436   0.1150000    1.0080
  437        HA    1  MOL    H437   437   0.1150000    1.0080
  438        HA    1  MOL    H438   438   0.1150000    1.0080
  439        HA    1  MOL    H439   439   0.1150000    1.0080
  440        HA    1  MOL    H440   440   0.1150000    1.0080
  441        HA    1  MOL    H441   441   0.1150000    1.0080
  442        HA    1  MOL    H442   442   0.1150000    1.0080
  443        HA    1  MOL    H443   443   0.1150000    1.0080
  444        HA    1  MOL    H444   444   0.1150000    1.0080
  445        HA    1  MOL    H445   445   0.1150000    1.0080
  446        HA    1  MOL    H446   446   0.1150000    1.0080
  447        HA    1  MOL    H447   447   0.1150000    1.0080
  448        HA    1  MOL    H448   448   0.1150000    1.0080
  449        HA    1  MOL    H449   449   0.1150000    1.0080
  450        HA    1  MOL    H450   450   0.1150000    1.0080
  451        HA    1  MOL    H451   451   0.1150000    1.0080
  452        CA    1  MOL    C452   452   0.0850000   12.0115
  453        CA    1  MOL    C453   453  -0.1150000   12.0115
  454        CA    1  MOL    C454   454  -0.1150000   12.0115
  455        CA    1  MOL    C455   455   0.1380000   12.0115
  456        CA    1  MOL    C456   456  -0.1150000   12.0115
  457        CA    1  MOL    C457   457  -0.1150000   12.0115
  458        SY    1  MOL    S458   458   0.7840000   32.0610
  459        OY    1  MOL    O459   459  -0.5300000   15.9994
  460        OY    1  MOL    O460   460  -0.5300000   15.9994
  461        CA    1  MOL    C461   461   0.1380000   12.0115
  462        CA    1  MOL    C462   462  -0.1150000   12.0115
  463        CA    1  MOL    C463   463  -0.1150000   12.0115
  464        CA    1  MOL    C464   464   0.0850000   12.0115
  465        CA    1  MOL    C465   465  -0.1150000   12.0115
  466        CA    1  MOL    C466   466  -0.1150000   12.0115
  467        OS    1  MOL    O467   467  -0.1700000   15.9994
  468        CA    1  MOL    C468   468   0.0850000   12.0115
  469        CA    1  MOL    C469   469  -0.1150000   12.0115
  470        CA    1  MOL    C470   470  -0.1150000   12.0115
  471       CBP    1  MOL    C471   471   0.0000000   12.0115
  472        CA    1  MOL    C472   472  -0.1150000   12.0115
  473        CA    1  MOL    C473   473  -0.1150000   12.0115
  474       CBP    1  MOL    C474   474   0.0000000   12.0115
  475        CA    1  MOL    C475   475  -0.1150000   12.0115
  476        CA    1  MOL    C476   476  -0.1150000   12.0115
  477        CA    1  MOL    C477   477   0.0850000   12.0115
  478        CA    1  MOL    C478   478  -0.1150000   12.0115
  479        CA    1  MOL    C479   479  -0.1150000   12.0115
  480        OS    1  MOL    O480   480  -0.1700000   15.9994
  481        HA    1  MOL    H481   481   0.1150000    1.0080
  482        HA    1  MOL    H482   482   0.1150000    1.0080
  483        HA    1  MOL    H483   483   0.1150000    1.0080
  484        HA    1  MOL    H484   484   0.1150000    1.0080
  485        HA    1  MOL    H485   485   0.1150000    1.0080
  486        HA    1  MOL    H486   486   0.1150000    1.0080
  487        HA    1  MOL    H487   487   0.1150000    1.0080
  488        HA    1  MOL    H488   488   0.1150000    1.0080
  489        HA    1  MOL    H489   489   0.1150000    1.0080
  490        HA    1  MOL    H490   490   0.1150000    1.0080
  491        HA    1  MOL    H491   491   0.1150000    1.0080
  492        HA    1  MOL    H492   492   0.1150000    1.0080
  493        HA    1  MOL    H493   493   0.1150000    1.0080
  494        HA    1  MOL    H494   494   0.1150000    1.0080
  495        HA    1  MOL    H495   495   0.1150000    1.0080
  496        HA    1  MOL    H496   496   0.1150000    1.0080
  497        CA    1  MOL    C497   497   0.0850000   12.0115
  498        CA    1  MOL    C498   498  -0.1150000   12.0115
  499        CA    1  MOL    C499   499  -0.1150000   12.0115
  500        CA    1  MOL    C500   500   0.1380000   12.0115
  501        CA    1  MOL    C501   501  -0.1150000   12.0115
  502        CA    1  MOL    C502   502  -0.1150000   12.0115
  503        SY    1  MOL    S503   503   0.7840000   32.0610
  504        OY    1  MOL    O504   504  -0.5300000   15.9994
  505        OY    1  MOL    O505   505  -0.5300000   15.9994
  506        CA    1  MOL    C506   506   0.1380000   12.0115
  507        CA    1  MOL    C507   507  -0.1150000   12.0115
  508        CA    1  MOL    C508   508  -0.1150000   12.0115
  509        CA    1  MOL    C509   509   0.0850000   12.0115
  510        CA    1  MOL    C510   510  -0.1150000   12.0115
  511        CA    1  MOL    C511   511  -0.1150000   12.0115
  512        OS    1  MOL    O512   512  -0.1700000   15.9994
  513        CA    1  MOL    C513   513   0.0850000   12.0115
  514        CA    1  MOL    C514   514  -0.1150000   12.0115
  515        CA    1  MOL    C515   515  -0.1150000   12.0115
  516       CBP    1  MOL    C516   516   0.0000000   12.0115
  517        CA    1  MOL    C517   517  -0.1150000   12.0115
  518        CA    1  MOL    C518   518  -0.1150000   12.0115
  519       CBP    1  MOL    C519   519   0.0000000   12.0115
  520        CA    1  MOL    C520   520  -0.1150000   12.0115
  521        CA    1  MOL    C521   521  -0.1150000   12.0115
  522        CA    1  MOL    C522   522   0.0850000   12.0115
  523        CA    1  MOL    C523   523  -0.1150000   12.0115
  524        CA    1  MOL    C524   524  -0.1150000   12.0115
  525        OS    1  MOL    O525   525  -0.1700000   15.9994
  526        HA    1  MOL    H526   526   0.1150000    1.0080
  527        HA    1  MOL    H527   527   0.1150000    1.0080
  528        HA    1  MOL    H528   528   0.1150000    1.0080
  529        HA    1  MOL    H529   529   0.1150000    1.0080
  530        HA    1  MOL    H530   530   0.1150000    1.0080
  531        HA    1  MOL    H531   531   0.1150000    1.0080
  532        HA    1  MOL    H532   532   0.1150000    1.0080
  533        HA    1  MOL    H533   533   0.1150000    1.0080
  534        HA    1  MOL    H534   534   0.1150000    1.0080
  535        HA    1  MOL    H535   535   0.1150000    1.0080
  536        HA    1  MOL    H536   536   0.1150000    1.0080
  537        HA    1  MOL    H537   537   0.1150000    1.0080
  538        HA    1  MOL    H538   538   0.1150000    1.0080
  539        HA    1  MOL    H539   539   0.1150000    1.0080
  540        HA    1  MOL    H540   540   0.1150000    1.0080
  541        HA    1  MOL    H541   541   0.1150000    1.0080
  542        CA    1  MOL    C542   542   0.0850000   12.0115
  543        CA    1  MOL    C543   543  -0.1150000   12.0115
  544        CA    1  MOL    C544   544  -0.1150000   12.0115
  545        CA    1  MOL    C545   545   0.1380000   12.0115
  546        CA    1  MOL    C546   546  -0.1150000   12.0115
  547        CA    1  MOL    C547   547  -0.1150000   12.0115
  548        SY    1  MOL    S548   548   0.7840000   32.0610
  549        OY    1  MOL    O549   549  -0.5300000   15.9994
  550        OY    1  MOL    O550   550  -0.5300000   15.9994
  551        CA    1  MOL    C551   551   0.1380000   12.0115
  552        CA    1  MOL    C552   552  -0.1150000   12.0115
  553        CA    1  MOL    C553   553  -0.1150000   12.0115
  554        CA    1  MOL    C554   554   0.0850000   12.0115
  555        CA    1  MOL    C555   555  -0.1150000   12.0115
  556        CA    1  MOL    C556   556  -0.1150000   12.0115
  557        OS    1  MOL    O557   557  -0.1700000   15.9994
  558        CA    1  MOL    C558   558   0.0850000   12.0115
  559        CA    1  MOL    C559   559  -0.1150000   12.0115
  560        CA    1  MOL    C560   560  -0.1150000   12.0115
  561       CBP    1  MOL    C561   561   0.0000000   12.0115
  562        CA    1  MOL    C562   562  -0.1150000   12.0115
  563        CA    1  MOL    C563   563  -0.1150000   12.0115
  564       CBP    1  MOL    C564   564   0.0000000   12.0115
  565        CA    1  MOL    C565   565  -0.1150000   12.0115
  566        CA    1  MOL    C566   566  -0.1150000   12.0115
  567        CA    1  MOL    C567   567   0.0850000   12.0115
  568        CA    1  MOL    C568   568  -0.1150000   12.0115
  569        CA    1  MOL    C569   569  -0.1150000   12.0115
  570        OS    1  MOL    O570   570  -0.1700000   15.9994
  571        HA    1  MOL    H571   571   0.1150000    1.0080
  572        HA    1  MOL    H572   572   0.1150000    1.0080
  573        HA    1  MOL    H573   573   0.1150000    1.0080
  574        HA    1  MOL    H574   574   0.1150000    1.0080
  575        HA    1  MOL    H575   575   0.1150000    1.0080
  576        HA    1  MOL    H576   576   0.1150000    1.0080
  577        HA    1  MOL    H577   577   0.1150000    1.0080
  578        HA    1  MOL    H578   578   0.1150000    1.0080
  579        HA    1  MOL    H579   579   0.1150000    1.0080
  580        HA    1  MOL    H580   580   0.1150000    1.0080
  581        HA    1  MOL    H581   581   0.1150000    1.0080
  582        HA    1  MOL    H582   582   0.1150000    1.0080
  583        HA    1  MOL    H583   583   0.1150000    1.0080
  584        HA    1  MOL    H584   584   0.1150000    1.0080
  585        HA    1  MOL    H585   585   0.1150000    1.0080
  586        HA    1  MOL    H586   586   0.1150000    1.0080
  587        CA    1  MOL    C587   587   0.0850000   12.0115
  588        CA    1  MOL    C588   588  -0.1150000   12.0115
  589        CA    1  MOL    C589   589  -0.1150000   12.0115
  590        CA    1  MOL    C590   590   0.1380000   12.0115
  591        CA    1  MOL    C591   591  -0.1150000   12.0115
  592        CA    1  MOL    C592   592  -0.1150000   12.0115
  593        SY    1  MOL    S593   593   0.7840000   32.0610
  594        OY    1  MOL    O594   594  -0.5300000   15.9994
  595        OY    1  MOL    O595   595  -0.5300000   15.9994
  596        CA    1  MOL    C596   596   0.1380000   12.0115
  597        CA    1  MOL    C597   597  -0.1150000   12.0115
  598        CA    1  MOL    C598   598  -0.1150000   12.0115
  599        CA    1  MOL    C599   599   0.0850000   12.0115
  600        CA    1  MOL    C600   600  -0.1150000   12.0115
  601        CA    1  MOL    C601   601  -0.1150000   12.0115
  602        OS    1  MOL    O602   602  -0.1700000   15.9994
  603        CA    1  MOL    C603   603   0.0850000   12.0115
  604        CA    1  MOL    C604   604  -0.1150000   12.0115
  605        CA    1  MOL    C605   605  -0.1150000   12.0115
  606       CBP    1  MOL    C606   606   0.0000000   12.0115
  607        CA    1  MOL    C607   607  -0.1150000   12.0115
  608        CA    1  MOL    C608   608  -0.1150000   12.0115
  609       CBP    1  MOL    C609   609   0.0000000   12.0115
  610        CA    1  MOL    C610   610  -0.1150000   12.0115
  611        CA    1  MOL    C611   611  -0.1150000   12.0115
  612        CA    1  MOL    C612   612   0.0850000   12.0115
  613        CA    1  MOL    C613   613  -0.1150000   12.0115
  614        CA    1  MOL    C614   614  -0.1150000   12.0115
  615        OS    1  MOL    O615   615  -0.1700000   15.9994
  616        HA    1  MOL    H616   616   0.1150000    1.0080
  617        HA    1  MOL    H617   617   0.1150000    1.0080
  618        HA    1  MOL    H618   618   0.1150000    1.0080
  619        HA    1  MOL    H619   619   0.1150000    1.0080
  620        HA    1  MOL    H620   620   0.1150000    1.0080
  621        HA    1  MOL    H621   621   0.1150000    1.0080
  622        HA    1  MOL    H622   622   0.1150000    1.0080
  623        HA    1  MOL    H623   623   0.1150000    1.0080
  624        HA    1  MOL    H624   624   0.1150000    1.0080
  625        HA    1  MOL    H625   625   0.1150000    1.0080
  626        HA    1  MOL    H626   626   0.1150000    1.0080
  627        HA    1  MOL    H627   627   0.1150000    1.0080
  628        HA    1  MOL    H628   628   0.1150000    1.0080
  629        HA    1  MOL    H629   629   0.1150000    1.0080
  630        HA    1  MOL    H630   630   0.1150000    1.0080
  631        HA    1  MOL    H631   631   0.1150000    1.0080
  632        CA    1  MOL    C632   632   0.0850000   12.0115
  633        CA    1  MOL    C633   633  -0.1150000   12.0115
  634        CA    1  MOL    C634   634  -0.1150000   12.0115
  635        CA    1  MOL    C635   635   0.1380000   12.0115
  636        CA    1  MOL    C636   636  -0.1150000   12.0115
  637        CA    1  MOL    C637   637  -0.1150000   12.0115
  638        SY    1  MOL    S638   638   0.7840000   32.0610
  639        OY    1  MOL    O639   639  -0.5300000   15.9994
  640        OY    1  MOL    O640   640  -0.5300000   15.9994
  641        CA    1  MOL    C641   641   0.1380000   12.0115
  642        CA    1  MOL    C642   642  -0.1150000   12.0115
  643        CA    1  MOL    C643   643  -0.1150000   12.0115
  644        CA    1  MOL    C644   644   0.0850000   12.0115
  645        CA    1  MOL    C645   645  -0.1150000   12.0115
  646        CA    1  MOL    C646   646  -0.1150000   12.0115
  647        OS    1  MOL    O647   647  -0.1700000   15.9994
  648        CA    1  MOL    C648   648   0.0850000   12.0115
  649        CA    1  MOL    C649   649  -0.1150000   12.0115
  650        CA    1  MOL    C650   650  -0.1150000   12.0115
  651       CBP    1  MOL    C651   651   0.0000000   12.0115
  652        CA    1  MOL    C652   652  -0.1150000   12.0115
  653        CA    1  MOL    C653   653  -0.1150000   12.0115
  654       CBP    1  MOL    C654   654   0.0000000   12.0115
  655        CA    1  MOL    C655   655  -0.1150000   12.0115
  656        CA    1  MOL    C656   656  -0.1150000   12.0115
  657        CA    1  MOL    C657   657   0.0850000   12.0115
  658        CA    1  MOL    C658   658  -0.1150000   12.0115
  659        CA    1  MOL    C659   659  -0.1150000   12.0115
  660        OS    1  MOL    O660   660  -0.1700000   15.9994
  661        HA    1  MOL    H661   661   0.1150000    1.0080
  662        HA    1  MOL    H662   662   0.1150000    1.0080
  663        HA    1  MOL    H663   663   0.1150000    1.0080
  664        HA    1  MOL    H664   664   0.1150000    1.0080
  665        HA    1  MOL    H665   665   0.1150000    1.0080
  666        HA    1  MOL    H666   666   0.1150000    1.0080
  667        HA    1  MOL    H667   667   0.1150000    1.0080
  668        HA    1  MOL    H668   668   0.1150000    1.0080
  669        HA    1  MOL    H669   669   0.1150000    1.0080
  670        HA    1  MOL    H670   670   0.1150000    1.0080
  671        HA    1  MOL    H671   671   0.1150000    1.0080
  672        HA    1  MOL    H672   672   0.1150000    1.0080
  673        HA    1  MOL    H673   673   0.1150000    1.0080
  674        HA    1  MOL    H674   674   0.1150000    1.0080
  675        HA    1  MOL    H675   675   0.1150000    1.0080
  676        HA    1  MOL    H676   676   0.1150000    1.0080
  677        CA    1  MOL    C677   677   0.0850000   12.0115
  678        CA    1  MOL    C678   678  -0.1150000   12.0115
  679        CA    1  MOL    C679   679  -0.1150000   12.0115
  680        CA    1  MOL    C680   680   0.1380000   12.0115
  681        CA    1  MOL    C681   681  -0.1150000   12.0115
  682        CA    1  MOL    C682   682  -0.1150000   12.0115
  683        SY    1  MOL    S683   683   0.7840000   32.0610
  684        OY    1  MOL    O684   684  -0.5300000   15.9994
  685        OY    1  MOL    O685   685  -0.5300000   15.9994
  686        CA    1  MOL    C686   686   0.1380000   12.0115
  687        CA    1  MOL    C687   687  -0.1150000   12.0115
  688        CA    1  MOL    C688   688  -0.1150000   12.0115
  689        CA    1  MOL    C689   689   0.0850000   12.0115
  690        CA    1  MOL    C690   690  -0.1150000   12.0115
  691        CA    1  MOL    C691   691  -0.1150000   12.0115
  692        OS    1  MOL    O692   692  -0.1700000   15.9994
  693        CA    1  MOL    C693   693   0.0850000   12.0115
  694        CA    1  MOL    C694   694  -0.1150000   12.0115
  695        CA    1  MOL    C695   695  -0.1150000   12.0115
  696       CBP    1  MOL    C696   696   0.0000000   12.0115
  697        CA    1  MOL    C697   697  -0.1150000   12.0115
  698        CA    1  MOL    C698   698  -0.1150000   12.0115
  699       CBP    1  MOL    C699   699   0.0000000   12.0115
  700        CA    1  MOL    C700   700  -0.1150000   12.0115
  701        CA    1  MOL    C701   701  -0.1150000   12.0115
  702        CA    1  MOL    C702   702   0.0850000   12.0115
  703        CA    1  MOL    C703   703  -0.1150000   12.0115
  704        CA    1  MOL    C704   704  -0.1150000   12.0115
  705        OS    1  MOL    O705   705  -0.1700000   15.9994
  706        HA    1  MOL    H706   706   0.1150000    1.0080
  707        HA    1  MOL    H707   707   0.1150000    1.0080
  708        HA    1  MOL    H708   708   0.1150000    1.0080
  709        HA    1  MOL    H709   709   0.1150000    1.0080
  710        HA    1  MOL    H710   710   0.1150000    1.0080
  711        HA    1  MOL    H711   711   0.1150000    1.0080
  712        HA    1  MOL    H712   712   0.1150000    1.0080
  713        HA    1  MOL    H713   713   0.1150000    1.0080
  714        HA    1  MOL    H714   714   0.1150000    1.0080
  715        HA    1  MOL    H715   715   0.1150000    1.0080
  716        HA    1  MOL    H716   716   0.1150000    1.0080
  717        HA    1  MOL    H717   717   0.1150000    1.0080
  718        HA    1  MOL    H718   718   0.1150000    1.0080
  719        HA    1  MOL    H719   719   0.1150000    1.0080
  720        HA    1  MOL    H720   720   0.1150000    1.0080
  721        HA    1  MOL    H721   721   0.1150000    1.0080
  722        CA    1  MOL    C722   722   0.0850000   12.0115
  723        CA    1  MOL    C723   723  -0.1150000   12.0115
  724        CA    1  MOL    C724   724  -0.1150000   12.0115
  725        CA    1  MOL    C725   725   0.1380000   12.0115
  726        CA    1  MOL    C726   726  -0.1150000   12.0115
  727        CA    1  MOL    C727   727  -0.1150000   12.0115
  728        SY    1  MOL    S728   728   0.7840000   32.0610
  729        OY    1  MOL    O729   729  -0.5300000   15.9994
  730        OY    1  MOL    O730   730  -0.5300000   15.9994
  731        CA    1  MOL    C731   731   0.1380000   12.0115
  732        CA    1  MOL    C732   732  -0.1150000   12.0115
  733        CA    1  MOL    C733   733  -0.1150000   12.0115
  734        CA    1  MOL    C734   734   0.0850000   12.0115
  735        CA    1  MOL    C735   735  -0.1150000   12.0115
  736        CA    1  MOL    C736   736  -0.1150000   12.0115
  737        OS    1  MOL    O737   737  -0.1700000   15.9994
  738        CA    1  MOL    C738   738   0.0850000   12.0115
  739        CA    1  MOL    C739   739  -0.1150000   12.0115
  740        CA    1  MOL    C740   740  -0.1150000   12.0115
  741       CBP    1  MOL    C741   741   0.0000000   12.0115
  742        CA    1  MOL    C742   742  -0.1150000   12.0115
  743        CA    1  MOL    C743   743  -0.1150000   12.0115
  744       CBP    1  MOL    C744   744   0.0000000   12.0115
  745        CA    1  MOL    C745   745  -0.1150000   12.0115
  746        CA    1  MOL    C746   746  -0.1150000   12.0115
  747        CA    1  MOL    C747   747   0.0850000   12.0115
  748        CA    1  MOL    C748   748  -0.1150000   12.0115
  749        CA    1  MOL    C749   749  -0.1150000   12.0115
  750        OS    1  MOL    O750   750  -0.1700000   15.9994
  751        HA    1  MOL    H751   751   0.1150000    1.0080
  752        HA    1  MOL    H752   752   0.1150000    1.0080
  753        HA    1  MOL    H753   753   0.1150000    1.0080
  754        HA    1  MOL    H754   754   0.1150000    1.0080
  755        HA    1  MOL    H755   755   0.1150000    1.0080
  756        HA    1  MOL    H756   756   0.1150000    1.0080
  757        HA    1  MOL    H757   757   0.1150000    1.0080
  758        HA    1  MOL    H758   758   0.1150000    1.0080
  759        HA    1  MOL    H759   759   0.1150000    1.0080
  760        HA    1  MOL    H760   760   0.1150000    1.0080
  761        HA    1  MOL    H761   761   0.1150000    1.0080
  762        HA    1  MOL    H762   762   0.1150000    1.0080
  763        HA    1  MOL    H763   763   0.1150000    1.0080
  764        HA    1  MOL    H764   764   0.1150000    1.0080
  765        HA    1  MOL    H765   765   0.1150000    1.0080
  766        HA    1  MOL    H766   766   0.1150000    1.0080
  767        CA    1  MOL    C767   767   0.0850000   12.0115
  768        CA    1  MOL    C768   768  -0.1150000   12.0115
  769        CA    1  MOL    C769   769  -0.1150000   12.0115
  770        CA    1  MOL    C770   770   0.1380000   12.0115
  771        CA    1  MOL    C771   771  -0.1150000   12.0115
  772        CA    1  MOL    C772   772  -0.1150000   12.0115
  773        SY    1  MOL    S773   773   0.7840000   32.0610
  774        OY    1  MOL    O774   774  -0.5300000   15.9994
  775        OY    1  MOL    O775   775  -0.5300000   15.9994
  776        CA    1  MOL    C776   776   0.1380000   12.0115
  777        CA    1  MOL    C777   777  -0.1150000   12.0115
  778        CA    1  MOL    C778   778  -0.1150000   12.0115
  779        CA    1  MOL    C779   779   0.0850000   12.0115
  780        CA    1  MOL    C780   780  -0.1150000   12.0115
  781        CA    1  MOL    C781   781  -0.1150000   12.0115
  782        OS    1  MOL    O782   782  -0.1700000   15.9994
  783        CA    1  MOL    C783   783   0.0850000   12.0115
  784        CA    1  MOL    C784   784  -0.1150000   12.0115
  785        CA    1  MOL    C785   785  -0.1150000   12.0115
  786       CBP    1  MOL    C786   786   0.0000000   12.0115
  787        CA    1  MOL    C787   787  -0.1150000   12.0115
  788        CA    1  MOL    C788   788  -0.1150000   12.0115
  789       CBP    1  MOL    C789   789   0.0000000   12.0115
  790        CA    1  MOL    C790   790  -0.1150000   12.0115
  791        CA    1  MOL    C791   791  -0.1150000   12.0115
  792        CA    1  MOL    C792   792   0.0850000   12.0115
  793        CA    1  MOL    C793   793  -0.1150000   12.0115
  794        CA    1  MOL    C794   794  -0.1150000   12.0115
  795        OS    1  MOL    O795   795  -0.1700000   15.9994
  796        HA    1  MOL    H796   796   0.1150000    1.0080
  797        HA    1  MOL    H797   797   0.1150000    1.0080
  798        HA    1  MOL    H798   798   0.1150000    1.0080
  799        HA    1  MOL    H799   799   0.1150000    1.0080
  800        HA    1  MOL    H800   800   0.1150000    1.0080
  801        HA    1  MOL    H801   801   0.1150000    1.0080
  802        HA    1  MOL    H802   802   0.1150000    1.0080
  803        HA    1  MOL    H803   803   0.1150000    1.0080
  804        HA    1  MOL    H804   804   0.1150000    1.0080
  805        HA    1  MOL    H805   805   0.1150000    1.0080
  806        HA    1  MOL    H806   806   0.1150000    1.0080
  807        HA    1  MOL    H807   807   0.1150000    1.0080
  808        HA    1  MOL    H808   808   0.1150000    1.0080
  809        HA    1  MOL    H809   809   0.1150000    1.0080
  810        HA    1  MOL    H810   810   0.1150000    1.0080
  811        HA    1  MOL    H811   811   0.1150000    1.0080
  812        CA    1  MOL    C812   812   0.0850000   12.0115
  813        CA    1  MOL    C813   813  -0.1150000   12.0115
  814        CA    1  MOL    C814   814  -0.1150000   12.0115
  815        CA    1  MOL    C815   815   0.1380000   12.0115
  816        CA    1  MOL    C816   816  -0.1150000   12.0115
  817        CA    1  MOL    C817   817  -0.1150000   12.0115
  818        SY    1  MOL    S818   818   0.7840000   32.0610
  819        OY    1  MOL    O819   819  -0.5300000   15.9994
  820        OY    1  MOL    O820   820  -0.5300000   15.9994
  821        CA    1  MOL    C821   821   0.1380000   12.0115
  822        CA    1  MOL    C822   822  -0.1150000   12.0115
  823        CA    1  MOL    C823   823  -0.1150000   12.0115
  824        CA    1  MOL    C824   824   0.0850000   12.0115
  825        CA    1  MOL    C825   825  -0.1150000   12.0115
  826        CA    1  MOL    C826   826  -0.1150000   12.0115
  827        OS    1  MOL    O827   827  -0.1700000   15.9994
  828        CA    1  MOL    C828   828   0.0850000   12.0115
  829        CA    1  MOL    C829   829  -0.1150000   12.0115
  830        CA    1  MOL    C830   830  -0.1150000   12.0115
  831       CBP    1  MOL    C831   831   0.0000000   12.0115
  832        CA    1  MOL    C832   832  -0.1150000   12.0115
  833        CA    1  MOL    C833   833  -0.1150000   12.0115
  834       CBP    1  MOL    C834   834   0.0000000   12.0115
  835        CA    1  MOL    C835   835  -0.1150000   12.0115
  836        CA    1  MOL    C836   836  -0.1150000   12.0115
  837        CA    1  MOL    C837   837   0.0850000   12.0115
  838        CA    1  MOL    C838   838  -0.1150000   12.0115
  839        CA    1  MOL    C839   839  -0.1150000   12.0115
  840        OS    1  MOL    O840   840  -0.1700000   15.9994
  841        HA    1  MOL    H841   841   0.1150000    1.0080
  842        HA    1  MOL    H842   842   0.1150000    1.0080
  843        HA    1  MOL    H843   843   0.1150000    1.0080
  844        HA    1  MOL    H844   844   0.1150000    1.0080
  845        HA    1  MOL    H845   845   0.1150000    1.0080
  846        HA    1  MOL    H846   846   0.1150000    1.0080
  847        HA    1  MOL    H847   847   0.1150000    1.0080
  848        HA    1  MOL    H848   848   0.1150000    1.0080
  849        HA    1  MOL    H849   849   0.1150000    1.0080
  850        HA    1  MOL    H850   850   0.1150000    1.0080
  851        HA    1  MOL    H851   851   0.1150000    1.0080
  852        HA    1  MOL    H852   852   0.1150000    1.0080
  853        HA    1  MOL    H853   853   0.1150000    1.0080
  854        HA    1  MOL    H854   854   0.1150000    1.0080
  855        HA    1  MOL    H855   855   0.1150000    1.0080
  856        HA    1  MOL    H856   856   0.1150000    1.0080
  857        CA    1  MOL    C857   857   0.0850000   12.0115
  858        CA    1  MOL    C858   858  -0.1150000   12.0115
  859        CA    1  MOL    C859   859  -0.1150000   12.0115
  860        CA    1  MOL    C860   860   0.1380000   12.0115
  861        CA    1  MOL    C861   861  -0.1150000   12.0115
  862        CA    1  MOL    C862   862  -0.1150000   12.0115
  863        SY    1  MOL    S863   863   0.7840000   32.0610
  864        OY    1  MOL    O864   864  -0.5300000   15.9994
  865        OY    1  MOL    O865   865  -0.5300000   15.9994
  866        CA    1  MOL    C866   866   0.1380000   12.0115
  867        CA    1  MOL    C867   867  -0.1150000   12.0115
  868        CA    1  MOL    C868   868  -0.1150000   12.0115
  869        CA    1  MOL    C869   869   0.0850000   12.0115
  870        CA    1  MOL    C870   870  -0.1150000   12.0115
  871        CA    1  MOL    C871   871  -0.1150000   12.0115
  872        OS    1  MOL    O872   872  -0.1700000   15.9994
  873        CA    1  MOL    C873   873   0.0850000   12.0115
  874        CA    1  MOL    C874   874  -0.1150000   12.0115
  875        CA    1  MOL    C875   875  -0.1150000   12.0115
  876       CBP    1  MOL    C876   876   0.0000000   12.0115
  877        CA    1  MOL    C877   877  -0.1150000   12.0115
  878        CA    1  MOL    C878   878  -0.1150000   12.0115
  879       CBP    1  MOL    C879   879   0.0000000   12.0115
  880        CA    1  MOL    C880   880  -0.1150000   12.0115
  881        CA    1  MOL    C881   881  -0.1150000   12.0115
  882        CA    1  MOL    C882   882   0.1500000   12.0115
  883        CA    1  MOL    C883   883  -0.1150000   12.0115
  884        CA    1  MOL    C884   884  -0.1150000   12.0115
  885       OHP    1  MOL    O885   885  -0.5850000   15.9994
  886        HA    1  MOL    H886   886   0.1150000    1.0080
  887        HA    1  MOL    H887   887   0.1150000    1.0080
  888        HA    1  MOL    H888   888   0.1150000    1.0080
  889        HA    1  MOL    H889   889   0.1150000    1.0080
  890        HA    1  MOL    H890   890   0.1150000    1.0080
  891        HA    1  MOL    H891   891   0.1150000    1.0080
  892        HA    1  MOL    H892   892   0.1150000    1.0080
  893        HA    1  MOL    H893   893   0.1150000    1.0080
  894        HA    1  MOL    H894   894   0.1150000    1.0080
  895        HA    1  MOL    H895   895   0.1150000    1.0080
  896        HA    1  MOL    H896   896   0.1150000    1.0080
  897        HA    1  MOL    H897   897   0.1150000    1.0080
  898        HA    1  MOL    H898   898   0.1150000    1.0080
  899        HA    1  MOL    H899   899   0.1150000    1.0080
  900        HA    1  MOL    H900   900   0.1150000    1.0080
  901        HA    1  MOL    H901   901   0.1150000    1.0080
  902        HO    1  MOL    H902   902   0.4350000    1.0080

[ bonds ]
      1      2   1      0.1400 392459.2000
      1      6   1      0.1400 392459.2000
      1     46   1      0.1080 307105.6000
      2      3   1      0.1400 392459.2000
      2     30   1      0.1080 307105.6000
      3      4   1      0.1400 392459.2000
      3     31   1      0.1080 307105.6000
      4      5   1      0.1400 392459.2000
      4      7   1      0.1779 188280.0000
      5      6   1      0.1400 392459.2000
      5     32   1      0.1080 307105.6000
      6     33   1      0.1080 307105.6000
      7      8   1      0.1471 615048.0000
      7      9   1      0.1471 615048.0000
      7     10   1      0.1779 188280.0000
     10     11   1      0.1400 392459.2000
     10     15   1      0.1400 392459.2000
     11     12   1      0.1400 392459.2000
     11     34   1      0.1080 307105.6000
     12     13   1      0.1400 392459.2000
     12     35   1      0.1080 307105.6000
     13     14   1      0.1400 392459.2000
     13     16   1      0.1364 376560.0000
     14     15   1      0.1400 392459.2000
     14     36   1      0.1080 307105.6000
     15     37   1      0.1080 307105.6000
     16     17   1      0.1364 376560.0000
     17     18   1      0.1400 392459.2000
     17     22   1      0.1400 392459.2000
     18     19   1      0.1400 392459.2000
     18     38   1      0.1080 307105.6000
     19     20   1      0.1400 392459.2000
     19     39   1      0.1080 307105.6000
     20     21   1      0.1400 392459.2000
     20     23   1      0.1464 313800.0000
     21     22   1      0.1400 392459.2000
     21     40   1      0.1080 307105.6000
     22     41   1      0.1080 307105.6000
     23     24   1      0.1400 392459.2000
     23     28   1      0.1400 392459.2000
     24     25   1      0.1400 392459.2000
     24     42   1      0.1080 307105.6000
     25     26   1      0.1400 392459.2000
     25     43   1      0.1080 307105.6000
     26     27   1      0.1400 392459.2000
     26     29   1      0.1364 376560.0000
     27     28   1      0.1400 392459.2000
     27     44   1      0.1080 307105.6000
     28     45   1      0.1080 307105.6000
     29     47   1      0.1364 376560.0000
     47     48   1      0.1400 392459.2000
     47     52   1      0.1400 392459.2000
     48     49   1      0.1400 392459.2000
     48     76   1      0.1080 307105.6000
     49     50   1      0.1400 392459.2000
     49     77   1      0.1080 307105.6000
     50     51   1      0.1400 392459.2000
     50     53   1      0.1779 188280.0000
     51     52   1      0.1400 392459.2000
     51     78   1      0.1080 307105.6000
     52     79   1      0.1080 307105.6000
     53     54   1      0.1471 615048.0000
     53     55   1      0.1471 615048.0000
     53     56   1      0.1779 188280.0000
     56     57   1      0.1400 392459.2000
     56     61   1      0.1400 392459.2000
     57     58   1      0.1400 392459.2000
     57     80   1      0.1080 307105.6000
     58     59   1      0.1400 392459.2000
     58     81   1      0.1080 307105.6000
     59     60   1      0.1400 392459.2000
     59     62   1      0.1364 376560.0000
     60     61   1      0.1400 392459.2000
     60     82   1      0.1080 307105.6000
     61     83   1      0.1080 307105.6000
     62     63   1      0.1364 376560.0000
     63     64   1      0.1400 392459.2000
     63     68   1      0.1400 392459.2000
     64     65   1      0.1400 392459.2000
     64     84   1      0.1080 307105.6000
     65     66   1      0.1400 392459.2000
     65     85   1      0.1080 307105.6000
     66     67   1      0.1400 392459.2000
     66     69   1      0.1464 313800.0000
     67     68   1      0.1400 392459.2000
     67     86   1      0.1080 307105.6000
     68     87   1      0.1080 307105.6000
     69     70   1      0.1400 392459.2000
     69     74   1      0.1400 392459.2000
     70     71   1      0.1400 392459.2000
     70     88   1      0.1080 307105.6000
     71     72   1      0.1400 392459.2000
     71     89   1      0.1080 307105.6000
     72     73   1      0.1400 392459.2000
     72     75   1      0.1364 376560.0000
     73     74   1      0.1400 392459.2000
     73     90   1      0.1080 307105.6000
     74     91   1      0.1080 307105.6000
     75     92   1      0.1364 376560.0000
     92     93   1      0.1400 392459.2000
     92     97   1      0.1400 392459.2000
     93     94   1      0.1400 392459.2000
     93    121   1      0.1080 307105.6000
     94     95   1      0.1400 392459.2000
     94    122   1      0.1080 307105.6000
     95     96   1      0.1400 392459.2000
     95     98   1      0.1779 188280.0000
     96     97   1      0.1400 392459.2000
     96    123   1      0.1080 307105.6000
     97    124   1      0.1080 307105.6000
     98     99   1      0.1471 615048.0000
     98    100   1      0.1471 615048.0000
     98    101   1      0.1779 188280.0000
    101    102   1      0.1400 392459.2000
    101    106   1      0.1400 392459.2000
    102    103   1      0.1400 392459.2000
    102    125   1      0.1080 307105.6000
    103    104   1      0.1400 392459.2000
    103    126   1      0.1080 307105.6000
    104    105   1      0.1400 392459.2000
    104    107   1      0.1364 376560.0000
    105    106   1      0.1400 392459.2000
    105    127   1      0.1080 307105.6000
    106    128   1      0.1080 307105.6000
    107    108   1      0.1364 376560.0000
    108    109   1      0.1400 392459.2000
    108    113   1      0.1400 392459.2000
    109    110   1      0.1400 392459.2000
    109    129   1      0.1080 307105.6000
    110    111   1      0.1400 392459.2000
    110    130   1      0.1080 307105.6000
    111    112   1      0.1400 392459.2000
    111    114   1      0.1464 313800.0000
    112    113   1      0.1400 392459.2000
    112    131   1      0.1080 307105.6000
    113    132   1      0.1080 307105.6000
    114    115   1      0.1400 392459.2000
    114    119   1      0.1400 392459.2000
    115    116   1      0.1400 392459.2000
    115    133   1      0.1080 307105.6000
    116    117   1      0.1400 392459.2000
    116    134   1      0.1080 307105.6000
    117    118   1      0.1400 392459.2000
    117    120   1      0.1364 376560.0000
    118    119   1      0.1400 392459.2000
    118    135   1      0.1080 307105.6000
    119    136   1      0.1080 307105.6000
    120    137   1      0.1364 376560.0000
    137    138   1      0.1400 392459.2000
    137    142   1      0.1400 392459.2000
    138    139   1      0.1400 392459.2000
    138    166   1      0.1080 307105.6000
    139    140   1      0.1400 392459.2000
    139    167   1      0.1080 307105.6000
    140    141   1      0.1400 392459.2000
    140    143   1      0.1779 188280.0000
    141    142   1      0.1400 392459.2000
    141    168   1      0.1080 307105.6000
    142    169   1      0.1080 307105.6000
    143    144   1      0.1471 615048.0000
    143    145   1      0.1471 615048.0000
    143    146   1      0.1779 188280.0000
    146    147   1      0.1400 392459.2000
    146    151   1      0.1400 392459.2000
    147    148   1      0.1400 392459.2000
    147    170   1      0.1080 307105.6000
    148    149   1      0.1400 392459.2000
    148    171   1      0.1080 307105.6000
    149    150   1      0.1400 392459.2000
    149    152   1      0.1364 376560.0000
    150    151   1      0.1400 392459.2000
    150    172   1      0.1080 307105.6000
    151    173   1      0.1080 307105.6000
    152    153   1      0.1364 376560.0000
    153    154   1      0.1400 392459.2000
    153    158   1      0.1400 392459.2000
    154    155   1      0.1400 392459.2000
    154    174   1      0.1080 307105.6000
    155    156   1      0.1400 392459.2000
    155    175   1      0.1080 307105.6000
    156    157   1      0.1400 392459.2000
    156    159   1      0.1464 313800.0000
    157    158   1      0.1400 392459.2000
    157    176   1      0.1080 307105.6000
    158    177   1      0.1080 307105.6000
    159    160   1      0.1400 392459.2000
    159    164   1      0.1400 392459.2000
    160    161   1      0.1400 392459.2000
    160    178   1      0.1080 307105.6000
    161    162   1      0.1400 392459.2000
    161    179   1      0.1080 307105.6000
    162    163   1      0.1400 392459.2000
    162    165   1      0.1364 376560.0000
    163    164   1      0.1400 392459.2000
    163    180   1      0.1080 307105.6000
    164    181   1      0.1080 307105.6000
    165    182   1      0.1364 376560.0000
    182    183   1      0.1400 392459.2000
    182    187   1      0.1400 392459.2000
    183    184   1      0.1400 392459.2000
    183    211   1      0.1080 307105.6000
    184    185   1      0.1400 392459.2000
    184    212   1      0.1080 307105.6000
    185    186   1      0.1400 392459.2000
    185    188   1      0.1779 188280.0000
    186    187   1      0.1400 392459.2000
    186    213   1      0.1080 307105.6000
    187    214   1      0.1080 307105.6000
    188    189   1      0.1471 615048.0000
    188    190   1      0.1471 615048.0000
    188    191   1      0.1779 188280.0000
    191    192   1      0.1400 392459.2000
    191    196   1      0.1400 392459.2000
    192    193   1      0.1400 392459.2000
    192    215   1      0.1080 307105.6000
    193    194   1      0.1400 392459.2000
    193    216   1      0.1080 307105.6000
    194    195   1      0.1400 392459.2000
    194    197   1      0.1364 376560.0000
    195    196   1      0.1400 392459.2000
    195    217   1      0.1080 307105.6000
    196    218   1      0.1080 307105.6000
    197    198   1      0.1364 376560.0000
    198    199   1      0.1400 392459.2000
    198    203   1      0.1400 392459.2000
    199    200   1      0.1400 392459.2000
    199    219   1      0.1080 307105.6000
    200    201   1      0.1400 392459.2000
    200    220   1      0.1080 307105.6000
    201    202   1      0.1400 392459.2000
    201    204   1      0.1464 313800.0000
    202    203   1      0.1400 392459.2000
    202    221   1      0.1080 307105.6000
    203    222   1      0.1080 307105.6000
    204    205   1      0.1400 392459.2000
    204    209   1      0.1400 392459.2000
    205    206   1      0.1400 392459.2000
    205    223   1      0.1080 307105.6000
    206    207   1      0.1400 392459.2000
    206    224   1      0.1080 307105.6000
    207    208   1      0.1400 392459.2000
    207    210   1      0.1364 376560.0000
    208    209   1      0.1400 392459.2000
    208    225   1      0.1080 307105.6000
    209    226   1      0.1080 307105.6000
    210    227   1      0.1364 376560.0000
    227    228   1      0.1400 392459.2000
    227    232   1      0.1400 392459.2000
    228    229   1      0.1400 392459.2000
    228    256   1      0.1080 307105.6000
    229    230   1      0.1400 392459.2000
    229    257   1      0.1080 307105.6000
    230    231   1      0.1400 392459.2000
    230    233   1      0.1779 188280.0000
    231    232   1      0.1400 392459.2000
    231    258   1      0.1080 307105.6000
    232    259   1      0.1080 307105.6000
    233    234   1      0.1471 615048.0000
    233    235   1      0.1471 615048.0000
    233    236   1      0.1779 188280.0000
    236    237   1      0.1400 392459.2000
    236    241   1      0.1400 392459.2000
    237    238   1      0.1400 392459.2000
    237    260   1      0.1080 307105.6000
    238    239   1      0.1400 392459.2000
    238    261   1      0.1080 307105.6000
    239    240   1      0.1400 392459.2000
    239    242   1      0.1364 376560.0000
    240    241   1      0.1400 392459.2000
    240    262   1      0.1080 307105.6000
    241    263   1      0.1080 307105.6000
    242    243   1      0.1364 376560.0000
    243    244   1      0.1400 392459.2000
    243    248   1      0.1400 392459.2000
    244    245   1      0.1400 392459.2000
    244    264   1      0.1080 307105.6000
    245    246   1      0.1400 392459.2000
    245    265   1      0.1080 307105.6000
    246    247   1      0.1400 392459.2000
    246    249   1      0.1464 313800.0000
    247    248   1      0.1400 392459.2000
    247    266   1      0.1080 307105.6000
    248    267   1      0.1080 307105.6000
    249    250   1      0.1400 392459.2000
    249    254   1      0.1400 392459.2000
    250    251   1      0.1400 392459.2000
    250    268   1      0.1080 307105.6000
    251    252   1      0.1400 392459.2000
    251    269   1      0.1080 307105.6000
    252    253   1      0.1400 392459.2000
    252    255   1      0.1364 376560.0000
    253    254   1      0.1400 392459.2000
    253    270   1      0.1080 307105.6000
    254    271   1      0.1080 307105.6000
    255    272   1      0.1364 376560.0000
    272    273   1      0.1400 392459.2000
    272    277   1      0.1400 392459.2000
    273    274   1      0.1400 392459.2000
    273    301   1      0.1080 307105.6000
    274    275   1      0.1400 392459.2000
    274    302   1      0.1080 307105.6000
    275    276   1      0.1400 392459.2000
    275    278   1      0.1779 188280.0000
    276    277   1      0.1400 392459.2000
    276    303   1      0.1080 307105.6000
    277    304   1      0.1080 307105.6000
    278    279   1      0.1471 615048.0000
    278    280   1      0.1471 615048.0000
    278    281   1      0.1779 188280.0000
    281    282   1      0.1400 392459.2000
    281    286   1      0.1400 392459.2000
    282    283   1      0.1400 392459.2000
    282    305   1      0.1080 307105.6000
    283    284   1      0.1400 392459.2000
    283    306   1      0.1080 307105.6000
    284    285   1      0.1400 392459.2000
    284    287   1      0.1364 376560.0000
    285    286   1      0.1400 392459.2000
    285    307   1      0.1080 307105.6000
    286    308   1      0.1080 307105.6000
    287    288   1      0.1364 376560.0000
    288    289   1      0.1400 392459.2000
    288    293   1      0.1400 392459.2000
    289    290   1      0.1400 392459.2000
    289    309   1      0.1080 307105.6000
    290    291   1      0.1400 392459.2000
    290    310   1      0.1080 307105.6000
    291    292   1      0.1400 392459.2000
    291    294   1      0.1464 313800.0000
    292    293   1      0.1400 392459.2000
    292    311   1      0.1080 307105.6000
    293    312   1      0.1080 307105.6000
    294    295   1      0.1400 392459.2000
    294    299   1      0.1400 392459.2000
    295    296   1      0.1400 392459.2000
    295    313   1      0.1080 307105.6000
    296    297   1      0.1400 392459.2000
    296    314   1      0.1080 307105.6000
    297    298   1      0.1400 392459.2000
    297    300   1      0.1364 376560.0000
    298    299   1      0.1400 392459.2000
    298    315   1      0.1080 307105.6000
    299    316   1      0.1080 307105.6000
    300    317   1      0.1364 376560.0000
    317    318   1      0.1400 392459.2000
    317    322   1      0.1400 392459.2000
    318    319   1      0.1400 392459.2000
    318    346   1      0.1080 307105.6000
    319    320   1      0.1400 392459.2000
    319    347   1      0.1080 307105.6000
    320    321   1      0.1400 392459.2000
    320    323   1      0.1779 188280.0000
    321    322   1      0.1400 392459.2000
    321    348   1      0.1080 307105.6000
    322    349   1      0.1080 307105.6000
    323    324   1      0.1471 615048.0000
    323    325   1      0.1471 615048.0000
    323    326   1      0.1779 188280.0000
    326    327   1      0.1400 392459.2000
    326    331   1      0.1400 392459.2000
    327    328   1      0.1400 392459.2000
    327    350   1      0.1080 307105.6000
    328    329   1      0.1400 392459.2000
    328    351   1      0.1080 307105.6000
    329    330   1      0.1400 392459.2000
    329    332   1      0.1364 376560.0000
    330    331   1      0.1400 392459.2000
    330    352   1      0.1080 307105.6000
    331    353   1      0.1080 307105.6000
    332    333   1      0.1364 376560.0000
    333    334   1      0.1400 392459.2000
    333    338   1      0.1400 392459.2000
    334    335   1      0.1400 392459.2000
    334    354   1      0.1080 307105.6000
    335    336   1      0.1400 392459.2000
    335    355   1      0.1080 307105.6000
    336    337   1      0.1400 392459.2000
    336    339   1      0.1464 313800.0000
    337    338   1      0.1400 392459.2000
    337    356   1      0.1080 307105.6000
    338    357   1      0.1080 307105.6000
    339    340   1      0.1400 392459.2000
    339    344   1      0.1400 392459.2000
    340    341   1      0.1400 392459.2000
    340    358   1      0.1080 307105.6000
    341    342   1      0.1400 392459.2000
    341    359   1      0.1080 307105.6000
    342    343   1      0.1400 392459.2000
    342    345   1      0.1364 376560.0000
    343    344   1      0.1400 392459.2000
    343    360   1      0.1080 307105.6000
    344    361   1      0.1080 307105.6000
    345    362   1      0.1364 376560.0000
    362    363   1      0.1400 392459.2000
    362    367   1      0.1400 392459.2000
    363    364   1      0.1400 392459.2000
    363    391   1      0.1080 307105.6000
    364    365   1      0.1400 392459.2000
    364    392   1      0.1080 307105.6000
    365    366   1      0.1400 392459.2000
    365    368   1      0.1779 188280.0000
    366    367   1      0.1400 392459.2000
    366    393   1      0.1080 307105.6000
    367    394   1      0.1080 307105.6000
    368    369   1      0.1471 615048.0000
    368    370   1      0.1471 615048.0000
    368    371   1      0.1779 188280.0000
    371    372   1      0.1400 392459.2000
    371    376   1      0.1400 392459.2000
    372    373   1      0.1400 392459.2000
    372    395   1      0.1080 307105.6000
    373    374   1      0.1400 392459.2000
    373    396   1      0.1080 307105.6000
    374    375   1      0.1400 392459.2000
    374    377   1      0.1364 376560.0000
    375    376   1      0.1400 392459.2000
    375    397   1      0.1080 307105.6000
    376    398   1      0.1080 307105.6000
    377    378   1      0.1364 376560.0000
    378    379   1      0.1400 392459.2000
    378    383   1      0.1400 392459.2000
    379    380   1      0.1400 392459.2000
    379    399   1      0.1080 307105.6000
    380    381   1      0.1400 392459.2000
    380    400   1      0.1080 307105.6000
    381    382   1      0.1400 392459.2000
    381    384   1      0.1464 313800.0000
    382    383   1      0.1400 392459.2000
    382    401   1      0.1080 307105.6000
    383    402   1      0.1080 307105.6000
    384    385   1      0.1400 392459.2000
    384    389   1      0.1400 392459.2000
    385    386   1      0.1400 392459.2000
    385    403   1      0.1080 307105.6000
    386    387   1      0.1400 392459.2000
    386    404   1      0.1080 307105.6000
    387    388   1      0.1400 392459.2000
    387    390   1      0.1364 376560.0000
    388    389   1      0.1400 392459.2000
    388    405   1      0.1080 307105.6000
    389    406   1      0.1080 307105.6000
    390    407   1      0.1364 376560.0000
    407    408   1      0.1400 392459.2000
    407    412   1      0.1400 392459.2000
    408    409   1      0.1400 392459.2000
    408    436   1      0.1080 307105.6000
    409    410   1      0.1400 392459.2000
    409    437   1      0.1080 307105.6000
    410    411   1      0.1400 392459.2000
    410    413   1      0.1779 188280.0000
    411    412   1      0.1400 392459.2000
    411    438   1      0.1080 307105.6000
    412    439   1      0.1080 307105.6000
    413    414   1      0.1471 615048.0000
    413    415   1      0.1471 615048.0000
    413    416   1      0.1779 188280.0000
    416    417   1      0.1400 392459.2000
    416    421   1      0.1400 392459.2000
    417    418   1      0.1400 392459.2000
    417    440   1      0.1080 307105.6000
    418    419   1      0.1400 392459.2000
    418    441   1      0.1080 307105.6000
    419    420   1      0.1400 392459.2000
    419    422   1      0.1364 376560.0000
    420    421   1      0.1400 392459.2000
    420    442   1      0.1080 307105.6000
    421    443   1      0.1080 307105.6000
    422    423   1      0.1364 376560.0000
    423    424   1      0.1400 392459.2000
    423    428   1      0.1400 392459.2000
    424    425   1      0.1400 392459.2000
    424    444   1      0.1080 307105.6000
    425    426   1      0.1400 392459.2000
    425    445   1      0.1080 307105.6000
    426    427   1      0.1400 392459.2000
    426    429   1      0.1464 313800.0000
    427    428   1      0.1400 392459.2000
    427    446   1      0.1080 307105.6000
    428    447   1      0.1080 307105.6000
    429    430   1      0.1400 392459.2000
    429    434   1      0.1400 392459.2000
    430    431   1      0.1400 392459.2000
    430    448   1      0.1080 307105.6000
    431    432   1      0.1400 392459.2000
    431    449   1      0.1080 307105.6000
    432    433   1      0.1400 392459.2000
    432    435   1      0.1364 376560.0000
    433    434   1      0.1400 392459.2000
    433    450   1      0.1080 307105.6000
    434    451   1      0.1080 307105.6000
    435    452   1      0.1364 376560.0000
    452    453   1      0.1400 392459.2000
    452    457   1      0.1400 392459.2000
    453    454   1      0.1400 392459.2000
    453    481   1      0.1080 307105.6000
    454    455   1      0.1400 392459.2000
    454    482   1      0.1080 307105.6000
    455    456   1      0.1400 392459.2000
    455    458   1      0.1779 188280.0000
    456    457   1      0.1400 392459.2000
    456    483   1      0.1080 307105.6000
    457    484   1      0.1080 307105.6000
    458    459   1      0.1471 615048.0000
    458    460   1      0.1471 615048.0000
    458    461   1      0.1779 188280.0000
    461    462   1      0.1400 392459.2000
    461    466   1      0.1400 392459.2000
    462    463   1      0.1400 392459.2000
    462    485   1      0.1080 307105.6000
    463    464   1      0.1400 392459.2000
    463    486   1      0.1080 307105.6000
    464    465   1      0.1400 392459.2000
    464    467   1      0.1364 376560.0000
    465    466   1      0.1400 392459.2000
    465    487   1      0.1080 307105.6000
    466    488   1      0.1080 307105.6000
    467    468   1      0.1364 376560.0000
    468    469   1      0.1400 392459.2000
    468    473   1      0.1400 392459.2000
    469    470   1      0.1400 392459.2000
    469    489   1      0.1080 307105.6000
    470    471   1      0.1400 392459.2000
    470    490   1      0.1080 307105.6000
    471    472   1      0.1400 392459.2000
    471    474   1      0.1464 313800.0000
    472    473   1      0.1400 392459.2000
    472    491   1      0.1080 307105.6000
    473    492   1      0.1080 307105.6000
    474    475   1      0.1400 392459.2000
    474    479   1      0.1400 392459.2000
    475    476   1      0.1400 392459.2000
    475    493   1      0.1080 307105.6000
    476    477   1      0.1400 392459.2000
    476    494   1      0.1080 307105.6000
    477    478   1      0.1400 392459.2000
    477    480   1      0.1364 376560.0000
    478    479   1      0.1400 392459.2000
    478    495   1      0.1080 307105.6000
    479    496   1      0.1080 307105.6000
    480    497   1      0.1364 376560.0000
    497    498   1      0.1400 392459.2000
    497    502   1      0.1400 392459.2000
    498    499   1      0.1400 392459.2000
    498    526   1      0.1080 307105.6000
    499    500   1      0.1400 392459.2000
    499    527   1      0.1080 307105.6000
    500    501   1      0.1400 392459.2000
    500    503   1      0.1779 188280.0000
    501    502   1      0.1400 392459.2000
    501    528   1      0.1080 307105.6000
    502    529   1      0.1080 307105.6000
    503    504   1      0.1471 615048.0000
    503    505   1      0.1471 615048.0000
    503    506   1      0.1779 188280.0000
    506    507   1      0.1400 392459.2000
    506    511   1      0.1400 392459.2000
    507    508   1      0.1400 392459.2000
    507    530   1      0.1080 307105.6000
    508    509   1      0.1400 392459.2000
    508    531   1      0.1080 307105.6000
    509    510   1      0.1400 392459.2000
    509    512   1      0.1364 376560.0000
    510    511   1      0.1400 392459.2000
    510    532   1      0.1080 307105.6000
    511    533   1      0.1080 307105.6000
    512    513   1      0.1364 376560.0000
    513    514   1      0.1400 392459.2000
    513    518   1      0.1400 392459.2000
    514    515   1      0.1400 392459.2000
    514    534   1      0.1080 307105.6000
    515    516   1      0.1400 392459.2000
    515    535   1      0.1080 307105.6000
    516    517   1      0.1400 392459.2000
    516    519   1      0.1464 313800.0000
    517    518   1      0.1400 392459.2000
    517    536   1      0.1080 307105.6000
    518    537   1      0.1080 307105.6000
    519    520   1      0.1400 392459.2000
    519    524   1      0.1400 392459.2000
    520    521   1      0.1400 392459.2000
    520    538   1      0.1080 307105.6000
    521    522   1      0.1400 392459.2000
    521    539   1      0.1080 307105.6000
    522    523   1      0.1400 392459.2000
    522    525   1      0.1364 376560.0000
    523    524   1      0.1400 392459.2000
    523    540   1      0.1080 307105.6000
    524    541   1      0.1080 307105.6000
    525    542   1      0.1364 376560.0000
    542    543   1      0.1400 392459.2000
    542    547   1      0.1400 392459.2000
    543    544   1      0.1400 392459.2000
    543    571   1      0.1080 307105.6000
    544    545   1      0.1400 392459.2000
    544    572   1      0.1080 307105.6000
    545    546   1      0.1400 392459.2000
    545    548   1      0.1779 188280.0000
    546    547   1      0.1400 392459.2000
    546    573   1      0.1080 307105.6000
    547    574   1      0.1080 307105.6000
    548    549   1      0.1471 615048.0000
    548    550   1      0.1471 615048.0000
    548    551   1      0.1779 188280.0000
    551    552   1      0.1400 392459.2000
    551    556   1      0.1400 392459.2000
    552    553   1      0.1400 392459.2000
    552    575   1      0.1080 307105.6000
    553    554   1      0.1400 392459.2000
    553    576   1      0.1080 307105.6000
    554    555   1      0.1400 392459.2000
    554    557   1      0.1364 376560.0000
    555    556   1      0.1400 392459.2000
    555    577   1      0.1080 307105.6000
    556    578   1      0.1080 307105.6000
    557    558   1      0.1364 376560.0000
    558    559   1      0.1400 392459.2000
    558    563   1      0.1400 392459.2000
    559    560   1      0.1400 392459.2000
    559    579   1      0.1080 307105.6000
    560    561   1      0.1400 392459.2000
    560    580   1      0.1080 307105.6000
    561    562   1      0.1400 392459.2000
    561    564   1      0.1464 313800.0000
    562    563   1      0.1400 392459.2000
    562    581   1      0.1080 307105.6000
    563    582   1      0.1080 307105.6000
    564    565   1      0.1400 392459.2000
    564    569   1      0.1400 392459.2000
    565    566   1      0.1400 392459.2000
    565    583   1      0.1080 307105.6000
    566    567   1      0.1400 392459.2000
    566    584   1      0.1080 307105.6000
    567    568   1      0.1400 392459.2000
    567    570   1      0.1364 376560.0000
    568    569   1      0.1400 392459.2000
    568    585   1      0.1080 307105.6000
    569    586   1      0.1080 307105.6000
    570    587   1      0.1364 376560.0000
    587    588   1      0.1400 392459.2000
    587    592   1      0.1400 392459.2000
    588    589   1      0.1400 392459.2000
    588    616   1      0.1080 307105.6000
    589    590   1      0.1400 392459.2000
    589    617   1      0.1080 307105.6000
    590    591   1      0.1400 392459.2000
    590    593   1      0.1779 188280.0000
    591    592   1      0.1400 392459.2000
    591    618   1      0.1080 307105.6000
    592    619   1      0.1080 307105.6000
    593    594   1      0.1471 615048.0000
    593    595   1      0.1471 615048.0000
    593    596   1      0.1779 188280.0000
    596    597   1      0.1400 392459.2000
    596    601   1      0.1400 392459.2000
    597    598   1      0.1400 392459.2000
    597    620   1      0.1080 307105.6000
    598    599   1      0.1400 392459.2000
    598    621   1      0.1080 307105.6000
    599    600   1      0.1400 392459.2000
    599    602   1      0.1364 376560.0000
    600    601   1      0.1400 392459.2000
    600    622   1      0.1080 307105.6000
    601    623   1      0.1080 307105.6000
    602    603   1      0.1364 376560.0000
    603    604   1      0.1400 392459.2000
    603    608   1      0.1400 392459.2000
    604    605   1      0.1400 392459.2000
    604    624   1      0.1080 307105.6000
    605    606   1      0.1400 392459.2000
    605    625   1      0.1080 307105.6000
    606    607   1      0.1400 392459.2000
    606    609   1      0.1464 313800.0000
    607    608   1      0.1400 392459.2000
    607    626   1      0.1080 307105.6000
    608    627   1      0.1080 307105.6000
    609    610   1      0.1400 392459.2000
    609    614   1      0.1400 392459.2000
    610    611   1      0.1400 392459.2000
    610    628   1      0.1080 307105.6000
    611    612   1      0.1400 392459.2000
    611    629   1      0.1080 307105.6000
    612    613   1      0.1400 392459.2000
    612    615   1      0.1364 376560.0000
    613    614   1      0.1400 392459.2000
    613    630   1      0.1080 307105.6000
    614    631   1      0.1080 307105.6000
    615    632   1      0.1364 376560.0000
    632    633   1      0.1400 392459.2000
    632    637   1      0.1400 392459.2000
    633    634   1      0.1400 392459.2000
    633    661   1      0.1080 307105.6000
    634    635   1      0.1400 392459.2000
    634    662   1      0.1080 307105.6000
    635    636   1      0.1400 392459.2000
    635    638   1      0.1779 188280.0000
    636    637   1      0.1400 392459.2000
    636    663   1      0.1080 307105.6000
    637    664   1      0.1080 307105.6000
    638    639   1      0.1471 615048.0000
    638    640   1      0.1471 615048.0000
    638    641   1      0.1779 188280.0000
    641    642   1      0.1400 392459.2000
    641    646   1      0.1400 392459.2000
    642    643   1      0.1400 392459.2000
    642    665   1      0.1080 307105.6000
    643    644   1      0.1400 392459.2000
    643    666   1      0.1080 307105.6000
    644    645   1      0.1400 392459.2000
    644    647   1      0.1364 376560.0000
    645    646   1      0.1400 392459.2000
    645    667   1      0.1080 307105.6000
    646    668   1      0.1080 307105.6000
    647    648   1      0.1364 376560.0000
    648    649   1      0.1400 392459.2000
    648    653   1      0.1400 392459.2000
    649    650   1      0.1400 392459.2000
    649    669   1      0.1080 307105.6000
    650    651   1      0.1400 392459.2000
    650    670   1      0.1080 307105.6000
    651    652   1      0.1400 392459.2000
    651    654   1      0.1464 313800.0000
    652    653   1      0.1400 392459.2000
    652    671   1      0.1080 307105.6000
    653    672   1      0.1080 307105.6000
    654    655   1      0.1400 392459.2000
    654    659   1      0.1400 392459.2000
    655    656   1      0.1400 392459.2000
    655    673   1      0.1080 307105.6000
    656    657   1      0.1400 392459.2000
    656    674   1      0.1080 307105.6000
    657    658   1      0.1400 392459.2000
    657    660   1      0.1364 376560.0000
    658    659   1      0.1400 392459.2000
    658    675   1      0.1080 307105.6000
    659    676   1      0.1080 307105.6000
    660    677   1      0.1364 376560.0000
    677    678   1      0.1400 392459.2000
    677    682   1      0.1400 392459.2000
    678    679   1      0.1400 392459.2000
    678    706   1      0.1080 307105.6000
    679    680   1      0.1400 392459.2000
    679    707   1      0.1080 307105.6000
    680    681   1      0.1400 392459.2000
    680    683   1      0.1779 188280.0000
    681    682   1      0.1400 392459.2000
    681    708   1      0.1080 307105.6000
    682    709   1      0.1080 307105.6000
    683    684   1      0.1471 615048.0000
    683    685   1      0.1471 615048.0000
    683    686   1      0.1779 188280.0000
    686    687   1      0.1400 392459.2000
    686    691   1      0.1400 392459.2000
    687    688   1      0.1400 392459.2000
    687    710   1      0.1080 307105.6000
    688    689   1      0.1400 392459.2000
    688    711   1      0.1080 307105.6000
    689    690   1      0.1400 392459.2000
    689    692   1      0.1364 376560.0000
    690    691   1      0.1400 392459.2000
    690    712   1      0.1080 307105.6000
    691    713   1      0.1080 307105.6000
    692    693   1      0.1364 376560.0000
    693    694   1      0.1400 392459.2000
    693    698   1      0.1400 392459.2000
    694    695   1      0.1400 392459.2000
    694    714   1      0.1080 307105.6000
    695    696   1      0.1400 392459.2000
    695    715   1      0.1080 307105.6000
    696    697   1      0.1400 392459.2000
    696    699   1      0.1464 313800.0000
    697    698   1      0.1400 392459.2000
    697    716   1      0.1080 307105.6000
    698    717   1      0.1080 307105.6000
    699    700   1      0.1400 392459.2000
    699    704   1      0.1400 392459.2000
    700    701   1      0.1400 392459.2000
    700    718   1      0.1080 307105.6000
    701    702   1      0.1400 392459.2000
    701    719   1      0.1080 307105.6000
    702    703   1      0.1400 392459.2000
    702    705   1      0.1364 376560.0000
    703    704   1      0.1400 392459.2000
    703    720   1      0.1080 307105.6000
    704    721   1      0.1080 307105.6000
    705    722   1      0.1364 376560.0000
    722    723   1      0.1400 392459.2000
    722    727   1      0.1400 392459.2000
    723    724   1      0.1400 392459.2000
    723    751   1      0.1080 307105.6000
    724    725   1      0.1400 392459.2000
    724    752   1      0.1080 307105.6000
    725    726   1      0.1400 392459.2000
    725    728   1      0.1779 188280.0000
    726    727   1      0.1400 392459.2000
    726    753   1      0.1080 307105.6000
    727    754   1      0.1080 307105.6000
    728    729   1      0.1471 615048.0000
    728    730   1      0.1471 615048.0000
    728    731   1      0.1779 188280.0000
    731    732   1      0.1400 392459.2000
    731    736   1      0.1400 392459.2000
    732    733   1      0.1400 392459.2000
    732    755   1      0.1080 307105.6000
    733    734   1      0.1400 392459.2000
    733    756   1      0.1080 307105.6000
    734    735   1      0.1400 392459.2000
    734    737   1      0.1364 376560.0000
    735    736   1      0.1400 392459.2000
    735    757   1      0.1080 307105.6000
    736    758   1      0.1080 307105.6000
    737    738   1      0.1364 376560.0000
    738    739   1      0.1400 392459.2000
    738    743   1      0.1400 392459.2000
    739    740   1      0.1400 392459.2000
    739    759   1      0.1080 307105.6000
    740    741   1      0.1400 392459.2000
    740    760   1      0.1080 307105.6000
    741    742   1      0.1400 392459.2000
    741    744   1      0.1464 313800.0000
    742    743   1      0.1400 392459.2000
    742    761   1      0.1080 307105.6000
    743    762   1      0.1080 307105.6000
    744    745   1      0.1400 392459.2000
    744    749   1      0.1400 392459.2000
    745    746   1      0.1400 392459.2000
    745    763   1      0.1080 307105.6000
    746    747   1      0.1400 392459.2000
    746    764   1      0.1080 307105.6000
    747    748   1      0.1400 392459.2000
    747    750   1      0.1364 376560.0000
    748    749   1      0.1400 392459.2000
    748    765   1      0.1080 307105.6000
    749    766   1      0.1080 307105.6000
    750    767   1      0.1364 376560.0000
    767    768   1      0.1400 392459.2000
    767    772   1      0.1400 392459.2000
    768    769   1      0.1400 392459.2000
    768    796   1      0.1080 307105.6000
    769    770   1      0.1400 392459.2000
    769    797   1      0.1080 307105.6000
    770    771   1      0.1400 392459.2000
    770    773   1      0.1779 188280.0000
    771    772   1      0.1400 392459.2000
    771    798   1      0.1080 307105.6000
    772    799   1      0.1080 307105.6000
    773    774   1      0.1471 615048.0000
    773    775   1      0.1471 615048.0000
    773    776   1      0.1779 188280.0000
    776    777   1      0.1400 392459.2000
    776    781   1      0.1400 392459.2000
    777    778   1      0.1400 392459.2000
    777    800   1      0.1080 307105.6000
    778    779   1      0.1400 392459.2000
    778    801   1      0.1080 307105.6000
    779    780   1      0.1400 392459.2000
    779    782   1      0.1364 376560.0000
    780    781   1      0.1400 392459.2000
    780    802   1      0.1080 307105.6000
    781    803   1      0.1080 307105.6000
    782    783   1      0.1364 376560.0000
    783    784   1      0.1400 392459.2000
    783    788   1      0.1400 392459.2000
    784    785   1      0.1400 392459.2000
    784    804   1      0.1080 307105.6000
    785    786   1      0.1400 392459.2000
    785    805   1      0.1080 307105.6000
    786    787   1      0.1400 392459.2000
    786    789   1      0.1464 313800.0000
    787    788   1      0.1400 392459.2000
    787    806   1      0.1080 307105.6000
    788    807   1      0.1080 307105.6000
    789    790   1      0.1400 392459.2000
    789    794   1      0.1400 392459.2000
    790    791   1      0.1400 392459.2000
    790    808   1      0.1080 307105.6000
    791    792   1      0.1400 392459.2000
    791    809   1      0.1080 307105.6000
    792    793   1      0.1400 392459.2000
    792    795   1      0.1364 376560.0000
    793    794   1      0.1400 392459.2000
    793    810   1      0.1080 307105.6000
    794    811   1      0.1080 307105.6000
    795    812   1      0.1364 376560.0000
    812    813   1      0.1400 392459.2000
    812    817   1      0.1400 392459.2000
    813    814   1      0.1400 392459.2000
    813    841   1      0.1080 307105.6000
    814    815   1      0.1400 392459.2000
    814    842   1      0.1080 307105.6000
    815    816   1      0.1400 392459.2000
    815    818   1      0.1779 188280.0000
    816    817   1      0.1400 392459.2000
    816    843   1      0.1080 307105.6000
    817    844   1      0.1080 307105.6000
    818    819   1      0.1471 615048.0000
    818    820   1      0.1471 615048.0000
    818    821   1      0.1779 188280.0000
    821    822   1      0.1400 392459.2000
    821    826   1      0.1400 392459.2000
    822    823   1      0.1400 392459.2000
    822    845   1      0.1080 307105.6000
    823    824   1      0.1400 392459.2000
    823    846   1      0.1080 307105.6000
    824    825   1      0.1400 392459.2000
    824    827   1      0.1364 376560.0000
    825    826   1      0.1400 392459.2000
    825    847   1      0.1080 307105.6000
    826    848   1      0.1080 307105.6000
    827    828   1      0.1364 376560.0000
    828    829   1      0.1400 392459.2000
    828    833   1      0.1400 392459.2000
    829    830   1      0.1400 392459.2000
    829    849   1      0.1080 307105.6000
    830    831   1      0.1400 392459.2000
    830    850   1      0.1080 307105.6000
    831    832   1      0.1400 392459.2000
    831    834   1      0.1464 313800.0000
    832    833   1      0.1400 392459.2000
    832    851   1      0.1080 307105.6000
    833    852   1      0.1080 307105.6000
    834    835   1      0.1400 392459.2000
    834    839   1      0.1400 392459.2000
    835    836   1      0.1400 392459.2000
    835    853   1      0.1080 307105.6000
    836    837   1      0.1400 392459.2000
    836    854   1      0.1080 307105.6000
    837    838   1      0.1400 392459.2000
    837    840   1      0.1364 376560.0000
    838    839   1      0.1400 392459.2000
    838    855   1      0.1080 307105.6000
    839    856   1      0.1080 307105.6000
    840    857   1      0.1364 376560.0000
    857    858   1      0.1400 392459.2000
    857    862   1      0.1400 392459.2000
    858    859   1      0.1400 392459.2000
    858    886   1      0.1080 307105.6000
    859    860   1      0.1400 392459.2000
    859    887   1      0.1080 307105.6000
    860    861   1      0.1400 392459.2000
    860    863   1      0.1779 188280.0000
    861    862   1      0.1400 392459.2000
    861    888   1      0.1080 307105.6000
    862    889   1      0.1080 307105.6000
    863    864   1      0.1471 615048.0000
    863    865   1      0.1471 615048.0000
    863    866   1      0.1779 188280.0000
    866    867   1      0.1400 392459.2000
    866    871   1      0.1400 392459.2000
    867    868   1      0.1400 392459.2000
    867    890   1      0.1080 307105.6000
    868    869   1      0.1400 392459.2000
    868    891   1      0.1080 307105.6000
    869    870   1      0.1400 392459.2000
    869    872   1      0.1364 376560.0000
    870    871   1      0.1400 392459.2000
    870    892   1      0.1080 307105.6000
    871    893   1      0.1080 307105.6000
    872    873   1      0.1364 376560.0000
    873    874   1      0.1400 392459.2000
    873    878   1      0.1400 392459.2000
    874    875   1      0.1400 392459.2000
    874    894   1      0.1080 307105.6000
    875    876   1      0.1400 392459.2000
    875    895   1      0.1080 307105.6000
    876    877   1      0.1400 392459.2000
    876    879   1      0.1464 313800.0000
    877    878   1      0.1400 392459.2000
    877    896   1      0.1080 307105.6000
    878    897   1      0.1080 307105.6000
    879    880   1      0.1400 392459.2000
    879    884   1      0.1400 392459.2000
    880    881   1      0.1400 392459.2000
    880    898   1      0.1080 307105.6000
    881    882   1      0.1400 392459.2000
    881    899   1      0.1080 307105.6000
    882    883   1      0.1400 392459.2000
    882    885   1      0.1364 376560.0000
    883    884   1      0.1400 392459.2000
    883    900   1      0.1080 307105.6000
    884    901   1      0.1080 307105.6000
    885    902   1      0.0945 462750.4000

[ pairs ]
; ai   aj   funct   fudge_QQ  charge_i   charge_j   c6    c12
      6      3   2   0.50000    -0.1150000   -0.1150000   1.172438e-03  2.346713e-06
      6     30   2   0.50000    -0.1150000    0.1150000   2.431434e-04  1.541678e-07
     46      3   2   0.50000     0.1150000   -0.1150000   2.431434e-04  1.541678e-07
     46     30   2   0.50000     0.1150000    0.1150000   5.042375e-05  1.012808e-08
      2      5   2   0.50000    -0.1150000   -0.1150000   1.172438e-03  2.346713e-06
      2     33   2   0.50000    -0.1150000    0.1150000   2.431434e-04  1.541678e-07
     46      5   2   0.50000     0.1150000   -0.1150000   2.431434e-04  1.541678e-07
     46     33   2   0.50000     0.1150000    0.1150000   5.042375e-05  1.012808e-08
      1      4   2   0.50000    -0.1150000    0.1380000   1.172438e-03  2.346713e-06
      1     31   2   0.50000    -0.1150000    0.1150000   2.431434e-04  1.541678e-07
     30      4   2   0.50000     0.1150000    0.1380000   2.431434e-04  1.541678e-07
     30     31   2   0.50000     0.1150000    0.1150000   5.042375e-05  1.012808e-08
      2      7   2   0.50000    -0.1150000    0.7840000   2.215699e-03  4.434870e-06
     31      5   2   0.50000     0.1150000   -0.1150000   2.431434e-04  1.541678e-07
     31      7   2   0.50000     0.1150000    0.7840000   4.594978e-04  2.913497e-07
      3     32   2   0.50000    -0.1150000    0.1150000   2.431434e-04  1.541678e-07
      7      6   2   0.50000     0.7840000   -0.1150000   2.215699e-03  4.434870e-06
      7     32   2   0.50000     0.7840000    0.1150000   4.594978e-04  2.913497e-07
      3      8   2   0.50000    -0.1150000   -0.5300000   1.059145e-03  1.228897e-06
      3      9   2   0.50000    -0.1150000   -0.5300000   1.059145e-03  1.228897e-06
      3     10   2   0.50000    -0.1150000    0.1380000   1.172438e-03  2.346713e-06
      5      8   2   0.50000    -0.1150000   -0.5300000   1.059145e-03  1.228897e-06
      5      9   2   0.50000    -0.1150000   -0.5300000   1.059145e-03  1.228897e-06
      5     10   2   0.50000    -0.1150000    0.1380000   1.172438e-03  2.346713e-06
      4     33   2   0.50000     0.1380000    0.1150000   2.431434e-04  1.541678e-07
     32      1   2   0.50000     0.1150000   -0.1150000   2.431434e-04  1.541678e-07
     32     33   2   0.50000     0.1150000    0.1150000   5.042375e-05  1.012808e-08
      4     11   2   0.50000     0.1380000   -0.1150000   1.172438e-03  2.346713e-06
      4     15   2   0.50000     0.1380000   -0.1150000   1.172438e-03  2.346713e-06
      8     11   2   0.50000    -0.5300000   -0.1150000   1.059145e-03  1.228897e-06
      8     15   2   0.50000    -0.5300000   -0.1150000   1.059145e-03  1.228897e-06
      9     11   2   0.50000    -0.5300000   -0.1150000   1.059145e-03  1.228897e-06
      9     15   2   0.50000    -0.5300000   -0.1150000   1.059145e-03  1.228897e-06
      7     12   2   0.50000     0.7840000   -0.1150000   2.215699e-03  4.434870e-06
      7     34   2   0.50000     0.7840000    0.1150000   4.594978e-04  2.913497e-07
     15     12   2   0.50000    -0.1150000   -0.1150000   1.172438e-03  2.346713e-06
     15     34   2   0.50000    -0.1150000    0.1150000   2.431434e-04  1.541678e-07
      7     14   2   0.50000     0.7840000   -0.1150000   2.215699e-03  4.434870e-06
      7     37   2   0.50000     0.7840000    0.1150000   4.594978e-04  2.913497e-07
     11     14   2   0.50000    -0.1150000   -0.1150000   1.172438e-03  2.346713e-06
     11     37   2   0.50000    -0.1150000    0.1150000   2.431434e-04  1.541678e-07
     10     13   2   0.50000     0.1380000    0.0850000   1.172438e-03  2.346713e-06
     10     35   2   0.50000     0.1380000    0.1150000   2.431434e-04  1.541678e-07
     34     13   2   0.50000     0.1150000    0.0850000   2.431434e-04  1.541678e-07
     34     35   2   0.50000     0.1150000    0.1150000   5.042375e-05  1.012808e-08
     11     16   2   0.50000    -0.1150000   -0.1700000   9.038862e-04  9.862632e-07
     35     14   2   0.50000     0.1150000   -0.1150000   2.431434e-04  1.541678e-07
     35     16   2   0.50000     0.1150000   -0.1700000   1.874504e-04  6.479276e-08
     12     36   2   0.50000    -0.1150000    0.1150000   2.431434e-04  1.541678e-07
     16     15   2   0.50000    -0.1700000   -0.1150000   9.038862e-04  9.862632e-07
     16     36   2   0.50000    -0.1700000    0.1150000   1.874504e-04  6.479276e-08
     12     17   2   0.50000    -0.1150000    0.0850000   1.172438e-03  2.346713e-06
     14     17   2   0.50000    -0.1150000    0.0850000   1.172438e-03  2.346713e-06
     13     37   2   0.50000     0.0850000    0.1150000   2.431434e-04  1.541678e-07
     36     10   2   0.50000     0.1150000    0.1380000   2.431434e-04  1.541678e-07
     36     37   2   0.50000     0.1150000    0.1150000   5.042375e-05  1.012808e-08
     13     18   2   0.50000     0.0850000   -0.1150000   1.172438e-03  2.346713e-06
     13     22   2   0.50000     0.0850000   -0.1150000   1.172438e-03  2.346713e-06
     16     19   2   0.50000    -0.1700000   -0.1150000   9.038862e-04  9.862632e-07
     16     38   2   0.50000    -0.1700000    0.1150000   1.874504e-04  6.479276e-08
     22     19   2   0.50000    -0.1150000   -0.1150000   1.172438e-03  2.346713e-06
     22     38   2   0.50000    -0.1150000    0.1150000   2.431434e-04  1.541678e-07
     16     21   2   0.50000    -0.1700000   -0.1150000   9.038862e-04  9.862632e-07
     16     41   2   0.50000    -0.1700000    0.1150000   1.874504e-04  6.479276e-08
     18     21   2   0.50000    -0.1150000   -0.1150000   1.172438e-03  2.346713e-06
     18     41   2   0.50000    -0.1150000    0.1150000   2.431434e-04  1.541678e-07
     17     20   2   0.50000     0.0850000    0.0000000   1.172438e-03  2.346713e-06
     17     39   2   0.50000     0.0850000    0.1150000   2.431434e-04  1.541678e-07
     38     20   2   0.50000     0.1150000    0.0000000   2.431434e-04  1.541678e-07
     38     39   2   0.50000     0.1150000    0.1150000   5.042375e-05  1.012808e-08
     18     23   2   0.50000    -0.1150000    0.0000000   1.172438e-03  2.346713e-06
     39     21   2   0.50000     0.1150000   -0.1150000   2.431434e-04  1.541678e-07
     39     23   2   0.50000     0.1150000    0.0000000   2.431434e-04  1.541678e-07
     19     40   2   0.50000    -0.1150000    0.1150000   2.431434e-04  1.541678e-07
     23     22   2   0.50000     0.0000000   -0.1150000   1.172438e-03  2.346713e-06
     23     40   2   0.50000     0.0000000    0.1150000   2.431434e-04  1.541678e-07
     19     24   2   0.50000    -0.1150000   -0.1150000   1.172438e-03  2.346713e-06
     19     28   2   0.50000    -0.1150000   -0.1150000   1.172438e-03  2.346713e-06
     21     24   2   0.50000    -0.1150000   -0.1150000   1.172438e-03  2.346713e-06
     21     28   2   0.50000    -0.1150000   -0.1150000   1.172438e-03  2.346713e-06
     20     41   2   0.50000     0.0000000    0.1150000   2.431434e-04  1.541678e-07
     40     17   2   0.50000     0.1150000    0.0850000   2.431434e-04  1.541678e-07
     40     41   2   0.50000     0.1150000    0.1150000   5.042375e-05  1.012808e-08
     20     25   2   0.50000     0.0000000   -0.1150000   1.172438e-03  2.346713e-06
     20     42   2   0.50000     0.0000000    0.1150000   2.431434e-04  1.541678e-07
     28     25   2   0.50000    -0.1150000   -0.1150000   1.172438e-03  2.346713e-06
     28     42   2   0.50000    -0.1150000    0.1150000   2.431434e-04  1.541678e-07
     20     27   2   0.50000     0.0000000   -0.1150000   1.172438e-03  2.346713e-06
     20     45   2   0.50000     0.0000000    0.1150000   2.431434e-04  1.541678e-07
     24     27   2   0.50000    -0.1150000   -0.1150000   1.172438e-03  2.346713e-06
     24     45   2   0.50000    -0.1150000    0.1150000   2.431434e-04  1.541678e-07
     23     26   2   0.50000     0.0000000    0.0850000   1.172438e-03  2.346713e-06
     23     43   2   0.50000     0.0000000    0.1150000   2.431434e-04  1.541678e-07
     42     26   2   0.50000     0.1150000    0.0850000   2.431434e-04  1.541678e-07
     42     43   2   0.50000     0.1150000    0.1150000   5.042375e-05  1.012808e-08
     24     29   2   0.50000    -0.1150000   -0.1700000   9.038862e-04  9.862632e-07
     43     27   2   0.50000     0.1150000   -0.1150000   2.431434e-04  1.541678e-07
     43     29   2   0.50000     0.1150000   -0.1700000   1.874504e-04  6.479276e-08
     25     44   2   0.50000    -0.1150000    0.1150000   2.431434e-04  1.541678e-07
     29     28   2   0.50000    -0.1700000   -0.1150000   9.038862e-04  9.862632e-07
     29     44   2   0.50000    -0.1700000    0.1150000   1.874504e-04  6.479276e-08
     25     47   2   0.50000    -0.1150000    0.0850000   1.172438e-03  2.346713e-06
     27     47   2   0.50000    -0.1150000    0.0850000   1.172438e-03  2.346713e-06
     26     45   2   0.50000     0.0850000    0.1150000   2.431434e-04  1.541678e-07
     44     23   2   0.50000     0.1150000    0.0000000   2.431434e-04  1.541678e-07
     44     45   2   0.50000     0.1150000    0.1150000   5.042375e-05  1.012808e-08
     26     48   2   0.50000     0.0850000   -0.1150000   1.172438e-03  2.346713e-06
     26     52   2   0.50000     0.0850000   -0.1150000   1.172438e-03  2.346713e-06
     29     49   2   0.50000    -0.1700000   -0.1150000   9.038862e-04  9.862632e-07
     29     76   2   0.50000    -0.1700000    0.1150000   1.874504e-04  6.479276e-08
     52     49   2   0.50000    -0.1150000   -0.1150000   1.172438e-03  2.346713e-06
     52     76   2   0.50000    -0.1150000    0.1150000   2.431434e-04  1.541678e-07
     29     51   2   0.50000    -0.1700000   -0.1150000   9.038862e-04  9.862632e-07
     29     79   2   0.50000    -0.1700000    0.1150000   1.874504e-04  6.479276e-08
     48     51   2   0.50000    -0.1150000   -0.1150000   1.172438e-03  2.346713e-06
     48     79   2   0.50000    -0.1150000    0.1150000   2.431434e-04  1.541678e-07
     47     50   2   0.50000     0.0850000    0.1380000   1.172438e-03  2.346713e-06
     47     77   2   0.50000     0.0850000    0.1150000   2.431434e-04  1.541678e-07
     76     50   2   0.50000     0.1150000    0.1380000   2.431434e-04  1.541678e-07
     76     77   2   0.50000     0.1150000    0.1150000   5.042375e-05  1.012808e-08
     48     53   2   0.50000    -0.1150000    0.7840000   2.215699e-03  4.434870e-06
     77     51   2   0.50000     0.1150000   -0.1150000   2.431434e-04  1.541678e-07
     77     53   2   0.50000     0.1150000    0.7840000   4.594978e-04  2.913497e-07
     49     78   2   0.50000    -0.1150000    0.1150000   2.431434e-04  1.541678e-07
     53     52   2   0.50000     0.7840000   -0.1150000   2.215699e-03  4.434870e-06
     53     78   2   0.50000     0.7840000    0.1150000   4.594978e-04  2.913497e-07
     49     54   2   0.50000    -0.1150000   -0.5300000   1.059145e-03  1.228897e-06
     49     55   2   0.50000    -0.1150000   -0.5300000   1.059145e-03  1.228897e-06
     49     56   2   0.50000    -0.1150000    0.1380000   1.172438e-03  2.346713e-06
     51     54   2   0.50000    -0.1150000   -0.5300000   1.059145e-03  1.228897e-06
     51     55   2   0.50000    -0.1150000   -0.5300000   1.059145e-03  1.228897e-06
     51     56   2   0.50000    -0.1150000    0.1380000   1.172438e-03  2.346713e-06
     50     79   2   0.50000     0.1380000    0.1150000   2.431434e-04  1.541678e-07
     78     47   2   0.50000     0.1150000    0.0850000   2.431434e-04  1.541678e-07
     78     79   2   0.50000     0.1150000    0.1150000   5.042375e-05  1.012808e-08
     50     57   2   0.50000     0.1380000   -0.1150000   1.172438e-03  2.346713e-06
     50     61   2   0.50000     0.1380000   -0.1150000   1.172438e-03  2.346713e-06
     54     57   2   0.50000    -0.5300000   -0.1150000   1.059145e-03  1.228897e-06
     54     61   2   0.50000    -0.5300000   -0.1150000   1.059145e-03  1.228897e-06
     55     57   2   0.50000    -0.5300000   -0.1150000   1.059145e-03  1.228897e-06
     55     61   2   0.50000    -0.5300000   -0.1150000   1.059145e-03  1.228897e-06
     53     58   2   0.50000     0.7840000   -0.1150000   2.215699e-03  4.434870e-06
     53     80   2   0.50000     0.7840000    0.1150000   4.594978e-04  2.913497e-07
     61     58   2   0.50000    -0.1150000   -0.1150000   1.172438e-03  2.346713e-06
     61     80   2   0.50000    -0.1150000    0.1150000   2.431434e-04  1.541678e-07
     53     60   2   0.50000     0.7840000   -0.1150000   2.215699e-03  4.434870e-06
     53     83   2   0.50000     0.7840000    0.1150000   4.594978e-04  2.913497e-07
     57     60   2   0.50000    -0.1150000   -0.1150000   1.172438e-03  2.346713e-06
     57     83   2   0.50000    -0.1150000    0.1150000   2.431434e-04  1.541678e-07
     56     59   2   0.50000     0.1380000    0.0850000   1.172438e-03  2.346713e-06
     56     81   2   0.50000     0.1380000    0.1150000   2.431434e-04  1.541678e-07
     80     59   2   0.50000     0.1150000    0.0850000   2.431434e-04  1.541678e-07
     80     81   2   0.50000     0.1150000    0.1150000   5.042375e-05  1.012808e-08
     57     62   2   0.50000    -0.1150000   -0.1700000   9.038862e-04  9.862632e-07
     81     60   2   0.50000     0.1150000   -0.1150000   2.431434e-04  1.541678e-07
     81     62   2   0.50000     0.1150000   -0.1700000   1.874504e-04  6.479276e-08
     58     82   2   0.50000    -0.1150000    0.1150000   2.431434e-04  1.541678e-07
     62     61   2   0.50000    -0.1700000   -0.1150000   9.038862e-04  9.862632e-07
     62     82   2   0.50000    -0.1700000    0.1150000   1.874504e-04  6.479276e-08
     58     63   2   0.50000    -0.1150000    0.0850000   1.172438e-03  2.346713e-06
     60     63   2   0.50000    -0.1150000    0.0850000   1.172438e-03  2.346713e-06
     59     83   2   0.50000     0.0850000    0.1150000   2.431434e-04  1.541678e-07
     82     56   2   0.50000     0.1150000    0.1380000   2.431434e-04  1.541678e-07
     82     83   2   0.50000     0.1150000    0.1150000   5.042375e-05  1.012808e-08
     59     64   2   0.50000     0.0850000   -0.1150000   1.172438e-03  2.346713e-06
     59     68   2   0.50000     0.0850000   -0.1150000   1.172438e-03  2.346713e-06
     62     65   2   0.50000    -0.1700000   -0.1150000   9.038862e-04  9.862632e-07
     62     84   2   0.50000    -0.1700000    0.1150000   1.874504e-04  6.479276e-08
     68     65   2   0.50000    -0.1150000   -0.1150000   1.172438e-03  2.346713e-06
     68     84   2   0.50000    -0.1150000    0.1150000   2.431434e-04  1.541678e-07
     62     67   2   0.50000    -0.1700000   -0.1150000   9.038862e-04  9.862632e-07
     62     87   2   0.50000    -0.1700000    0.1150000   1.874504e-04  6.479276e-08
     64     67   2   0.50000    -0.1150000   -0.1150000   1.172438e-03  2.346713e-06
     64     87   2   0.50000    -0.1150000    0.1150000   2.431434e-04  1.541678e-07
     63     66   2   0.50000     0.0850000    0.0000000   1.172438e-03  2.346713e-06
     63     85   2   0.50000     0.0850000    0.1150000   2.431434e-04  1.541678e-07
     84     66   2   0.50000     0.1150000    0.0000000   2.431434e-04  1.541678e-07
     84     85   2   0.50000     0.1150000    0.1150000   5.042375e-05  1.012808e-08
     64     69   2   0.50000    -0.1150000    0.0000000   1.172438e-03  2.346713e-06
     85     67   2   0.50000     0.1150000   -0.1150000   2.431434e-04  1.541678e-07
     85     69   2   0.50000     0.1150000    0.0000000   2.431434e-04  1.541678e-07
     65     86   2   0.50000    -0.1150000    0.1150000   2.431434e-04  1.541678e-07
     69     68   2   0.50000     0.0000000   -0.1150000   1.172438e-03  2.346713e-06
     69     86   2   0.50000     0.0000000    0.1150000   2.431434e-04  1.541678e-07
     65     70   2   0.50000    -0.1150000   -0.1150000   1.172438e-03  2.346713e-06
     65     74   2   0.50000    -0.1150000   -0.1150000   1.172438e-03  2.346713e-06
     67     70   2   0.50000    -0.1150000   -0.1150000   1.172438e-03  2.346713e-06
     67     74   2   0.50000    -0.1150000   -0.1150000   1.172438e-03  2.346713e-06
     66     87   2   0.50000     0.0000000    0.1150000   2.431434e-04  1.541678e-07
     86     63   2   0.50000     0.1150000    0.0850000   2.431434e-04  1.541678e-07
     86     87   2   0.50000     0.1150000    0.1150000   5.042375e-05  1.012808e-08
     66     71   2   0.50000     0.0000000   -0.1150000   1.172438e-03  2.346713e-06
     66     88   2   0.50000     0.0000000    0.1150000   2.431434e-04  1.541678e-07
     74     71   2   0.50000    -0.1150000   -0.1150000   1.172438e-03  2.346713e-06
     74     88   2   0.50000    -0.1150000    0.1150000   2.431434e-04  1.541678e-07
     66     73   2   0.50000     0.0000000   -0.1150000   1.172438e-03  2.346713e-06
     66     91   2   0.50000     0.0000000    0.1150000   2.431434e-04  1.541678e-07
     70     73   2   0.50000    -0.1150000   -0.1150000   1.172438e-03  2.346713e-06
     70     91   2   0.50000    -0.1150000    0.1150000   2.431434e-04  1.541678e-07
     69     72   2   0.50000     0.0000000    0.0850000   1.172438e-03  2.346713e-06
     69     89   2   0.50000     0.0000000    0.1150000   2.431434e-04  1.541678e-07
     88     72   2   0.50000     0.1150000    0.0850000   2.431434e-04  1.541678e-07
     88     89   2   0.50000     0.1150000    0.1150000   5.042375e-05  1.012808e-08
     70     75   2   0.50000    -0.1150000   -0.1700000   9.038862e-04  9.862632e-07
     89     73   2   0.50000     0.1150000   -0.1150000   2.431434e-04  1.541678e-07
     89     75   2   0.50000     0.1150000   -0.1700000   1.874504e-04  6.479276e-08
     71     90   2   0.50000    -0.1150000    0.1150000   2.431434e-04  1.541678e-07
     75     74   2   0.50000    -0.1700000   -0.1150000   9.038862e-04  9.862632e-07
     75     90   2   0.50000    -0.1700000    0.1150000   1.874504e-04  6.479276e-08
     71     92   2   0.50000    -0.1150000    0.0850000   1.172438e-03  2.346713e-06
     73     92   2   0.50000    -0.1150000    0.0850000   1.172438e-03  2.346713e-06
     72     91   2   0.50000     0.0850000    0.1150000   2.431434e-04  1.541678e-07
     90     69   2   0.50000     0.1150000    0.0000000   2.431434e-04  1.541678e-07
     90     91   2   0.50000     0.1150000    0.1150000   5.042375e-05  1.012808e-08
     72     93   2   0.50000     0.0850000   -0.1150000   1.172438e-03  2.346713e-06
     72     97   2   0.50000     0.0850000   -0.1150000   1.172438e-03  2.346713e-06
     75     94   2   0.50000    -0.1700000   -0.1150000   9.038862e-04  9.862632e-07
     75    121   2   0.50000    -0.1700000    0.1150000   1.874504e-04  6.479276e-08
     97     94   2   0.50000    -0.1150000   -0.1150000   1.172438e-03  2.346713e-06
     97    121   2   0.50000    -0.1150000    0.1150000   2.431434e-04  1.541678e-07
     75     96   2   0.50000    -0.1700000   -0.1150000   9.038862e-04  9.862632e-07
     75    124   2   0.50000    -0.1700000    0.1150000   1.874504e-04  6.479276e-08
     93     96   2   0.50000    -0.1150000   -0.1150000   1.172438e-03  2.346713e-06
     93    124   2   0.50000    -0.1150000    0.1150000   2.431434e-04  1.541678e-07
     92     95   2   0.50000     0.0850000    0.1380000   1.172438e-03  2.346713e-06
     92    122   2   0.50000     0.0850000    0.1150000   2.431434e-04  1.541678e-07
    121     95   2   0.50000     0.1150000    0.1380000   2.431434e-04  1.541678e-07
    121    122   2   0.50000     0.1150000    0.1150000   5.042375e-05  1.012808e-08
     93     98   2   0.50000    -0.1150000    0.7840000   2.215699e-03  4.434870e-06
    122     96   2   0.50000     0.1150000   -0.1150000   2.431434e-04  1.541678e-07
    122     98   2   0.50000     0.1150000    0.7840000   4.594978e-04  2.913497e-07
     94    123   2   0.50000    -0.1150000    0.1150000   2.431434e-04  1.541678e-07
     98     97   2   0.50000     0.7840000   -0.1150000   2.215699e-03  4.434870e-06
     98    123   2   0.50000     0.7840000    0.1150000   4.594978e-04  2.913497e-07
     94     99   2   0.50000    -0.1150000   -0.5300000   1.059145e-03  1.228897e-06
     94    100   2   0.50000    -0.1150000   -0.5300000   1.059145e-03  1.228897e-06
     94    101   2   0.50000    -0.1150000    0.1380000   1.172438e-03  2.346713e-06
     96     99   2   0.50000    -0.1150000   -0.5300000   1.059145e-03  1.228897e-06
     96    100   2   0.50000    -0.1150000   -0.5300000   1.059145e-03  1.228897e-06
     96    101   2   0.50000    -0.1150000    0.1380000   1.172438e-03  2.346713e-06
     95    124   2   0.50000     0.1380000    0.1150000   2.431434e-04  1.541678e-07
    123     92   2   0.50000     0.1150000    0.0850000   2.431434e-04  1.541678e-07
    123    124   2   0.50000     0.1150000    0.1150000   5.042375e-05  1.012808e-08
     95    102   2   0.50000     0.1380000   -0.1150000   1.172438e-03  2.346713e-06
     95    106   2   0.50000     0.1380000   -0.1150000   1.172438e-03  2.346713e-06
     99    102   2   0.50000    -0.5300000   -0.1150000   1.059145e-03  1.228897e-06
     99    106   2   0.50000    -0.5300000   -0.1150000   1.059145e-03  1.228897e-06
    100    102   2   0.50000    -0.5300000   -0.1150000   1.059145e-03  1.228897e-06
    100    106   2   0.50000    -0.5300000   -0.1150000   1.059145e-03  1.228897e-06
     98    103   2   0.50000     0.7840000   -0.1150000   2.215699e-03  4.434870e-06
     98    125   2   0.50000     0.7840000    0.1150000   4.594978e-04  2.913497e-07
    106    103   2   0.50000    -0.1150000   -0.1150000   1.172438e-03  2.346713e-06
    106    125   2   0.50000    -0.1150000    0.1150000   2.431434e-04  1.541678e-07
     98    105   2   0.50000     0.7840000   -0.1150000   2.215699e-03  4.434870e-06
     98    128   2   0.50000     0.7840000    0.1150000   4.594978e-04  2.913497e-07
    102    105   2   0.50000    -0.1150000   -0.1150000   1.172438e-03  2.346713e-06
    102    128   2   0.50000    -0.1150000    0.1150000   2.431434e-04  1.541678e-07
    101    104   2   0.50000     0.1380000    0.0850000   1.172438e-03  2.346713e-06
    101    126   2   0.50000     0.1380000    0.1150000   2.431434e-04  1.541678e-07
    125    104   2   0.50000     0.1150000    0.0850000   2.431434e-04  1.541678e-07
    125    126   2   0.50000     0.1150000    0.1150000   5.042375e-05  1.012808e-08
    102    107   2   0.50000    -0.1150000   -0.1700000   9.038862e-04  9.862632e-07
    126    105   2   0.50000     0.1150000   -0.1150000   2.431434e-04  1.541678e-07
    126    107   2   0.50000     0.1150000   -0.1700000   1.874504e-04  6.479276e-08
    103    127   2   0.50000    -0.1150000    0.1150000   2.431434e-04  1.541678e-07
    107    106   2   0.50000    -0.1700000   -0.1150000   9.038862e-04  9.862632e-07
    107    127   2   0.50000    -0.1700000    0.1150000   1.874504e-04  6.479276e-08
    103    108   2   0.50000    -0.1150000    0.0850000   1.172438e-03  2.346713e-06
    105    108   2   0.50000    -0.1150000    0.0850000   1.172438e-03  2.346713e-06
    104    128   2   0.50000     0.0850000    0.1150000   2.431434e-04  1.541678e-07
    127    101   2   0.50000     0.1150000    0.1380000   2.431434e-04  1.541678e-07
    127    128   2   0.50000     0.1150000    0.1150000   5.042375e-05  1.012808e-08
    104    109   2   0.50000     0.0850000   -0.1150000   1.172438e-03  2.346713e-06
    104    113   2   0.50000     0.0850000   -0.1150000   1.172438e-03  2.346713e-06
    107    110   2   0.50000    -0.1700000   -0.1150000   9.038862e-04  9.862632e-07
    107    129   2   0.50000    -0.1700000    0.1150000   1.874504e-04  6.479276e-08
    113    110   2   0.50000    -0.1150000   -0.1150000   1.172438e-03  2.346713e-06
    113    129   2   0.50000    -0.1150000    0.1150000   2.431434e-04  1.541678e-07
    107    112   2   0.50000    -0.1700000   -0.1150000   9.038862e-04  9.862632e-07
    107    132   2   0.50000    -0.1700000    0.1150000   1.874504e-04  6.479276e-08
    109    112   2   0.50000    -0.1150000   -0.1150000   1.172438e-03  2.346713e-06
    109    132   2   0.50000    -0.1150000    0.1150000   2.431434e-04  1.541678e-07
    108    111   2   0.50000     0.0850000    0.0000000   1.172438e-03  2.346713e-06
    108    130   2   0.50000     0.0850000    0.1150000   2.431434e-04  1.541678e-07
    129    111   2   0.50000     0.1150000    0.0000000   2.431434e-04  1.541678e-07
    129    130   2   0.50000     0.1150000    0.1150000   5.042375e-05  1.012808e-08
    109    114   2   0.50000    -0.1150000    0.0000000   1.172438e-03  2.346713e-06
    130    112   2   0.50000     0.1150000   -0.1150000   2.431434e-04  1.541678e-07
    130    114   2   0.50000     0.1150000    0.0000000   2.431434e-04  1.541678e-07
    110    131   2   0.50000    -0.1150000    0.1150000   2.431434e-04  1.541678e-07
    114    113   2   0.50000     0.0000000   -0.1150000   1.172438e-03  2.346713e-06
    114    131   2   0.50000     0.0000000    0.1150000   2.431434e-04  1.541678e-07
    110    115   2   0.50000    -0.1150000   -0.1150000   1.172438e-03  2.346713e-06
    110    119   2   0.50000    -0.1150000   -0.1150000   1.172438e-03  2.346713e-06
    112    115   2   0.50000    -0.1150000   -0.1150000   1.172438e-03  2.346713e-06
    112    119   2   0.50000    -0.1150000   -0.1150000   1.172438e-03  2.346713e-06
    111    132   2   0.50000     0.0000000    0.1150000   2.431434e-04  1.541678e-07
    131    108   2   0.50000     0.1150000    0.0850000   2.431434e-04  1.541678e-07
    131    132   2   0.50000     0.1150000    0.1150000   5.042375e-05  1.012808e-08
    111    116   2   0.50000     0.0000000   -0.1150000   1.172438e-03  2.346713e-06
    111    133   2   0.50000     0.0000000    0.1150000   2.431434e-04  1.541678e-07
    119    116   2   0.50000    -0.1150000   -0.1150000   1.172438e-03  2.346713e-06
    119    133   2   0.50000    -0.1150000    0.1150000   2.431434e-04  1.541678e-07
    111    118   2   0.50000     0.0000000   -0.1150000   1.172438e-03  2.346713e-06
    111    136   2   0.50000     0.0000000    0.1150000   2.431434e-04  1.541678e-07
    115    118   2   0.50000    -0.1150000   -0.1150000   1.172438e-03  2.346713e-06
    115    136   2   0.50000    -0.1150000    0.1150000   2.431434e-04  1.541678e-07
    114    117   2   0.50000     0.0000000    0.0850000   1.172438e-03  2.346713e-06
    114    134   2   0.50000     0.0000000    0.1150000   2.431434e-04  1.541678e-07
    133    117   2   0.50000     0.1150000    0.0850000   2.431434e-04  1.541678e-07
    133    134   2   0.50000     0.1150000    0.1150000   5.042375e-05  1.012808e-08
    115    120   2   0.50000    -0.1150000   -0.1700000   9.038862e-04  9.862632e-07
    134    118   2   0.50000     0.1150000   -0.1150000   2.431434e-04  1.541678e-07
    134    120   2   0.50000     0.1150000   -0.1700000   1.874504e-04  6.479276e-08
    116    135   2   0.50000    -0.1150000    0.1150000   2.431434e-04  1.541678e-07
    120    119   2   0.50000    -0.1700000   -0.1150000   9.038862e-04  9.862632e-07
    120    135   2   0.50000    -0.1700000    0.1150000   1.874504e-04  6.479276e-08
    116    137   2   0.50000    -0.1150000    0.0850000   1.172438e-03  2.346713e-06
    118    137   2   0.50000    -0.1150000    0.0850000   1.172438e-03  2.346713e-06
    117    136   2   0.50000     0.0850000    0.1150000   2.431434e-04  1.541678e-07
    135    114   2   0.50000     0.1150000    0.0000000   2.431434e-04  1.541678e-07
    135    136   2   0.50000     0.1150000    0.1150000   5.042375e-05  1.012808e-08
    117    138   2   0.50000     0.0850000   -0.1150000   1.172438e-03  2.346713e-06
    117    142   2   0.50000     0.0850000   -0.1150000   1.172438e-03  2.346713e-06
    120    139   2   0.50000    -0.1700000   -0.1150000   9.038862e-04  9.862632e-07
    120    166   2   0.50000    -0.1700000    0.1150000   1.874504e-04  6.479276e-08
    142    139   2   0.50000    -0.1150000   -0.1150000   1.172438e-03  2.346713e-06
    142    166   2   0.50000    -0.1150000    0.1150000   2.431434e-04  1.541678e-07
    120    141   2   0.50000    -0.1700000   -0.1150000   9.038862e-04  9.862632e-07
    120    169   2   0.50000    -0.1700000    0.1150000   1.874504e-04  6.479276e-08
    138    141   2   0.50000    -0.1150000   -0.1150000   1.172438e-03  2.346713e-06
    138    169   2   0.50000    -0.1150000    0.1150000   2.431434e-04  1.541678e-07
    137    140   2   0.50000     0.0850000    0.1380000   1.172438e-03  2.346713e-06
    137    167   2   0.50000     0.0850000    0.1150000   2.431434e-04  1.541678e-07
    166    140   2   0.50000     0.1150000    0.1380000   2.431434e-04  1.541678e-07
    166    167   2   0.50000     0.1150000    0.1150000   5.042375e-05  1.012808e-08
    138    143   2   0.50000    -0.1150000    0.7840000   2.215699e-03  4.434870e-06
    167    141   2   0.50000     0.1150000   -0.1150000   2.431434e-04  1.541678e-07
    167    143   2   0.50000     0.1150000    0.7840000   4.594978e-04  2.913497e-07
    139    168   2   0.50000    -0.1150000    0.1150000   2.431434e-04  1.541678e-07
    143    142   2   0.50000     0.7840000   -0.1150000   2.215699e-03  4.434870e-06
    143    168   2   0.50000     0.7840000    0.1150000   4.594978e-04  2.913497e-07
    139    144   2   0.50000    -0.1150000   -0.5300000   1.059145e-03  1.228897e-06
    139    145   2   0.50000    -0.1150000   -0.5300000   1.059145e-03  1.228897e-06
    139    146   2   0.50000    -0.1150000    0.1380000   1.172438e-03  2.346713e-06
    141    144   2   0.50000    -0.1150000   -0.5300000   1.059145e-03  1.228897e-06
    141    145   2   0.50000    -0.1150000   -0.5300000   1.059145e-03  1.228897e-06
    141    146   2   0.50000    -0.1150000    0.1380000   1.172438e-03  2.346713e-06
    140    169   2   0.50000     0.1380000    0.1150000   2.431434e-04  1.541678e-07
    168    137   2   0.50000     0.1150000    0.0850000   2.431434e-04  1.541678e-07
    168    169   2   0.50000     0.1150000    0.1150000   5.042375e-05  1.012808e-08
    140    147   2   0.50000     0.1380000   -0.1150000   1.172438e-03  2.346713e-06
    140    151   2   0.50000     0.1380000   -0.1150000   1.172438e-03  2.346713e-06
    144    147   2   0.50000    -0.5300000   -0.1150000   1.059145e-03  1.228897e-06
    144    151   2   0.50000    -0.5300000   -0.1150000   1.059145e-03  1.228897e-06
    145    147   2   0.50000    -0.5300000   -0.1150000   1.059145e-03  1.228897e-06
    145    151   2   0.50000    -0.5300000   -0.1150000   1.059145e-03  1.228897e-06
    143    148   2   0.50000     0.7840000   -0.1150000   2.215699e-03  4.434870e-06
    143    170   2   0.50000     0.7840000    0.1150000   4.594978e-04  2.913497e-07
    151    148   2   0.50000    -0.1150000   -0.1150000   1.172438e-03  2.346713e-06
    151    170   2   0.50000    -0.1150000    0.1150000   2.431434e-04  1.541678e-07
    143    150   2   0.50000     0.7840000   -0.1150000   2.215699e-03  4.434870e-06
    143    173   2   0.50000     0.7840000    0.1150000   4.594978e-04  2.913497e-07
    147    150   2   0.50000    -0.1150000   -0.1150000   1.172438e-03  2.346713e-06
    147    173   2   0.50000    -0.1150000    0.1150000   2.431434e-04  1.541678e-07
    146    149   2   0.50000     0.1380000    0.0850000   1.172438e-03  2.346713e-06
    146    171   2   0.50000     0.1380000    0.1150000   2.431434e-04  1.541678e-07
    170    149   2   0.50000     0.1150000    0.0850000   2.431434e-04  1.541678e-07
    170    171   2   0.50000     0.1150000    0.1150000   5.042375e-05  1.012808e-08
    147    152   2   0.50000    -0.1150000   -0.1700000   9.038862e-04  9.862632e-07
    171    150   2   0.50000     0.1150000   -0.1150000   2.431434e-04  1.541678e-07
    171    152   2   0.50000     0.1150000   -0.1700000   1.874504e-04  6.479276e-08
    148    172   2   0.50000    -0.1150000    0.1150000   2.431434e-04  1.541678e-07
    152    151   2   0.50000    -0.1700000   -0.1150000   9.038862e-04  9.862632e-07
    152    172   2   0.50000    -0.1700000    0.1150000   1.874504e-04  6.479276e-08
    148    153   2   0.50000    -0.1150000    0.0850000   1.172438e-03  2.346713e-06
    150    153   2   0.50000    -0.1150000    0.0850000   1.172438e-03  2.346713e-06
    149    173   2   0.50000     0.0850000    0.1150000   2.431434e-04  1.541678e-07
    172    146   2   0.50000     0.1150000    0.1380000   2.431434e-04  1.541678e-07
    172    173   2   0.50000     0.1150000    0.1150000   5.042375e-05  1.012808e-08
    149    154   2   0.50000     0.0850000   -0.1150000   1.172438e-03  2.346713e-06
    149    158   2   0.50000     0.0850000   -0.1150000   1.172438e-03  2.346713e-06
    152    155   2   0.50000    -0.1700000   -0.1150000   9.038862e-04  9.862632e-07
    152    174   2   0.50000    -0.1700000    0.1150000   1.874504e-04  6.479276e-08
    158    155   2   0.50000    -0.1150000   -0.1150000   1.172438e-03  2.346713e-06
    158    174   2   0.50000    -0.1150000    0.1150000   2.431434e-04  1.541678e-07
    152    157   2   0.50000    -0.1700000   -0.1150000   9.038862e-04  9.862632e-07
    152    177   2   0.50000    -0.1700000    0.1150000   1.874504e-04  6.479276e-08
    154    157   2   0.50000    -0.1150000   -0.1150000   1.172438e-03  2.346713e-06
    154    177   2   0.50000    -0.1150000    0.1150000   2.431434e-04  1.541678e-07
    153    156   2   0.50000     0.0850000    0.0000000   1.172438e-03  2.346713e-06
    153    175   2   0.50000     0.0850000    0.1150000   2.431434e-04  1.541678e-07
    174    156   2   0.50000     0.1150000    0.0000000   2.431434e-04  1.541678e-07
    174    175   2   0.50000     0.1150000    0.1150000   5.042375e-05  1.012808e-08
    154    159   2   0.50000    -0.1150000    0.0000000   1.172438e-03  2.346713e-06
    175    157   2   0.50000     0.1150000   -0.1150000   2.431434e-04  1.541678e-07
    175    159   2   0.50000     0.1150000    0.0000000   2.431434e-04  1.541678e-07
    155    176   2   0.50000    -0.1150000    0.1150000   2.431434e-04  1.541678e-07
    159    158   2   0.50000     0.0000000   -0.1150000   1.172438e-03  2.346713e-06
    159    176   2   0.50000     0.0000000    0.1150000   2.431434e-04  1.541678e-07
    155    160   2   0.50000    -0.1150000   -0.1150000   1.172438e-03  2.346713e-06
    155    164   2   0.50000    -0.1150000   -0.1150000   1.172438e-03  2.346713e-06
    157    160   2   0.50000    -0.1150000   -0.1150000   1.172438e-03  2.346713e-06
    157    164   2   0.50000    -0.1150000   -0.1150000   1.172438e-03  2.346713e-06
    156    177   2   0.50000     0.0000000    0.1150000   2.431434e-04  1.541678e-07
    176    153   2   0.50000     0.1150000    0.0850000   2.431434e-04  1.541678e-07
    176    177   2   0.50000     0.1150000    0.1150000   5.042375e-05  1.012808e-08
    156    161   2   0.50000     0.0000000   -0.1150000   1.172438e-03  2.346713e-06
    156    178   2   0.50000     0.0000000    0.1150000   2.431434e-04  1.541678e-07
    164    161   2   0.50000    -0.1150000   -0.1150000   1.172438e-03  2.346713e-06
    164    178   2   0.50000    -0.1150000    0.1150000   2.431434e-04  1.541678e-07
    156    163   2   0.50000     0.0000000   -0.1150000   1.172438e-03  2.346713e-06
    156    181   2   0.50000     0.0000000    0.1150000   2.431434e-04  1.541678e-07
    160    163   2   0.50000    -0.1150000   -0.1150000   1.172438e-03  2.346713e-06
    160    181   2   0.50000    -0.1150000    0.1150000   2.431434e-04  1.541678e-07
    159    162   2   0.50000     0.0000000    0.0850000   1.172438e-03  2.346713e-06
    159    179   2   0.50000     0.0000000    0.1150000   2.431434e-04  1.541678e-07
    178    162   2   0.50000     0.1150000    0.0850000   2.431434e-04  1.541678e-07
    178    179   2   0.50000     0.1150000    0.1150000   5.042375e-05  1.012808e-08
    160    165   2   0.50000    -0.1150000   -0.1700000   9.038862e-04  9.862632e-07
    179    163   2   0.50000     0.1150000   -0.1150000   2.431434e-04  1.541678e-07
    179    165   2   0.50000     0.1150000   -0.1700000   1.874504e-04  6.479276e-08
    161    180   2   0.50000    -0.1150000    0.1150000   2.431434e-04  1.541678e-07
    165    164   2   0.50000    -0.1700000   -0.1150000   9.038862e-04  9.862632e-07
    165    180   2   0.50000    -0.1700000    0.1150000   1.874504e-04  6.479276e-08
    161    182   2   0.50000    -0.1150000    0.0850000   1.172438e-03  2.346713e-06
    163    182   2   0.50000    -0.1150000    0.0850000   1.172438e-03  2.346713e-06
    162    181   2   0.50000     0.0850000    0.1150000   2.431434e-04  1.541678e-07
    180    159   2   0.50000     0.1150000    0.0000000   2.431434e-04  1.541678e-07
    180    181   2   0.50000     0.1150000    0.1150000   5.042375e-05  1.012808e-08
    162    183   2   0.50000     0.0850000   -0.1150000   1.172438e-03  2.346713e-06
    162    187   2   0.50000     0.0850000   -0.1150000   1.172438e-03  2.346713e-06
    165    184   2   0.50000    -0.1700000   -0.1150000   9.038862e-04  9.862632e-07
    165    211   2   0.50000    -0.1700000    0.1150000   1.874504e-04  6.479276e-08
    187    184   2   0.50000    -0.1150000   -0.1150000   1.172438e-03  2.346713e-06
    187    211   2   0.50000    -0.1150000    0.1150000   2.431434e-04  1.541678e-07
    165    186   2   0.50000    -0.1700000   -0.1150000   9.038862e-04  9.862632e-07
    165    214   2   0.50000    -0.1700000    0.1150000   1.874504e-04  6.479276e-08
    183    186   2   0.50000    -0.1150000   -0.1150000   1.172438e-03  2.346713e-06
    183    214   2   0.50000    -0.1150000    0.1150000   2.431434e-04  1.541678e-07
    182    185   2   0.50000     0.0850000    0.1380000   1.172438e-03  2.346713e-06
    182    212   2   0.50000     0.0850000    0.1150000   2.431434e-04  1.541678e-07
    211    185   2   0.50000     0.1150000    0.1380000   2.431434e-04  1.541678e-07
    211    212   2   0.50000     0.1150000    0.1150000   5.042375e-05  1.012808e-08
    183    188   2   0.50000    -0.1150000    0.7840000   2.215699e-03  4.434870e-06
    212    186   2   0.50000     0.1150000   -0.1150000   2.431434e-04  1.541678e-07
    212    188   2   0.50000     0.1150000    0.7840000   4.594978e-04  2.913497e-07
    184    213   2   0.50000    -0.1150000    0.1150000   2.431434e-04  1.541678e-07
    188    187   2   0.50000     0.7840000   -0.1150000   2.215699e-03  4.434870e-06
    188    213   2   0.50000     0.7840000    0.1150000   4.594978e-04  2.913497e-07
    184    189   2   0.50000    -0.1150000   -0.5300000   1.059145e-03  1.228897e-06
    184    190   2   0.50000    -0.1150000   -0.5300000   1.059145e-03  1.228897e-06
    184    191   2   0.50000    -0.1150000    0.1380000   1.172438e-03  2.346713e-06
    186    189   2   0.50000    -0.1150000   -0.5300000   1.059145e-03  1.228897e-06
    186    190   2   0.50000    -0.1150000   -0.5300000   1.059145e-03  1.228897e-06
    186    191   2   0.50000    -0.1150000    0.1380000   1.172438e-03  2.346713e-06
    185    214   2   0.50000     0.1380000    0.1150000   2.431434e-04  1.541678e-07
    213    182   2   0.50000     0.1150000    0.0850000   2.431434e-04  1.541678e-07
    213    214   2   0.50000     0.1150000    0.1150000   5.042375e-05  1.012808e-08
    185    192   2   0.50000     0.1380000   -0.1150000   1.172438e-03  2.346713e-06
    185    196   2   0.50000     0.1380000   -0.1150000   1.172438e-03  2.346713e-06
    189    192   2   0.50000    -0.5300000   -0.1150000   1.059145e-03  1.228897e-06
    189    196   2   0.50000    -0.5300000   -0.1150000   1.059145e-03  1.228897e-06
    190    192   2   0.50000    -0.5300000   -0.1150000   1.059145e-03  1.228897e-06
    190    196   2   0.50000    -0.5300000   -0.1150000   1.059145e-03  1.228897e-06
    188    193   2   0.50000     0.7840000   -0.1150000   2.215699e-03  4.434870e-06
    188    215   2   0.50000     0.7840000    0.1150000   4.594978e-04  2.913497e-07
    196    193   2   0.50000    -0.1150000   -0.1150000   1.172438e-03  2.346713e-06
    196    215   2   0.50000    -0.1150000    0.1150000   2.431434e-04  1.541678e-07
    188    195   2   0.50000     0.7840000   -0.1150000   2.215699e-03  4.434870e-06
    188    218   2   0.50000     0.7840000    0.1150000   4.594978e-04  2.913497e-07
    192    195   2   0.50000    -0.1150000   -0.1150000   1.172438e-03  2.346713e-06
    192    218   2   0.50000    -0.1150000    0.1150000   2.431434e-04  1.541678e-07
    191    194   2   0.50000     0.1380000    0.0850000   1.172438e-03  2.346713e-06
    191    216   2   0.50000     0.1380000    0.1150000   2.431434e-04  1.541678e-07
    215    194   2   0.50000     0.1150000    0.0850000   2.431434e-04  1.541678e-07
    215    216   2   0.50000     0.1150000    0.1150000   5.042375e-05  1.012808e-08
    192    197   2   0.50000    -0.1150000   -0.1700000   9.038862e-04  9.862632e-07
    216    195   2   0.50000     0.1150000   -0.1150000   2.431434e-04  1.541678e-07
    216    197   2   0.50000     0.1150000   -0.1700000   1.874504e-04  6.479276e-08
    193    217   2   0.50000    -0.1150000    0.1150000   2.431434e-04  1.541678e-07
    197    196   2   0.50000    -0.1700000   -0.1150000   9.038862e-04  9.862632e-07
    197    217   2   0.50000    -0.1700000    0.1150000   1.874504e-04  6.479276e-08
    193    198   2   0.50000    -0.1150000    0.0850000   1.172438e-03  2.346713e-06
    195    198   2   0.50000    -0.1150000    0.0850000   1.172438e-03  2.346713e-06
    194    218   2   0.50000     0.0850000    0.1150000   2.431434e-04  1.541678e-07
    217    191   2   0.50000     0.1150000    0.1380000   2.431434e-04  1.541678e-07
    217    218   2   0.50000     0.1150000    0.1150000   5.042375e-05  1.012808e-08
    194    199   2   0.50000     0.0850000   -0.1150000   1.172438e-03  2.346713e-06
    194    203   2   0.50000     0.0850000   -0.1150000   1.172438e-03  2.346713e-06
    197    200   2   0.50000    -0.1700000   -0.1150000   9.038862e-04  9.862632e-07
    197    219   2   0.50000    -0.1700000    0.1150000   1.874504e-04  6.479276e-08
    203    200   2   0.50000    -0.1150000   -0.1150000   1.172438e-03  2.346713e-06
    203    219   2   0.50000    -0.1150000    0.1150000   2.431434e-04  1.541678e-07
    197    202   2   0.50000    -0.1700000   -0.1150000   9.038862e-04  9.862632e-07
    197    222   2   0.50000    -0.1700000    0.1150000   1.874504e-04  6.479276e-08
    199    202   2   0.50000    -0.1150000   -0.1150000   1.172438e-03  2.346713e-06
    199    222   2   0.50000    -0.1150000    0.1150000   2.431434e-04  1.541678e-07
    198    201   2   0.50000     0.0850000    0.0000000   1.172438e-03  2.346713e-06
    198    220   2   0.50000     0.0850000    0.1150000   2.431434e-04  1.541678e-07
    219    201   2   0.50000     0.1150000    0.0000000   2.431434e-04  1.541678e-07
    219    220   2   0.50000     0.1150000    0.1150000   5.042375e-05  1.012808e-08
    199    204   2   0.50000    -0.1150000    0.0000000   1.172438e-03  2.346713e-06
    220    202   2   0.50000     0.1150000   -0.1150000   2.431434e-04  1.541678e-07
    220    204   2   0.50000     0.1150000    0.0000000   2.431434e-04  1.541678e-07
    200    221   2   0.50000    -0.1150000    0.1150000   2.431434e-04  1.541678e-07
    204    203   2   0.50000     0.0000000   -0.1150000   1.172438e-03  2.346713e-06
    204    221   2   0.50000     0.0000000    0.1150000   2.431434e-04  1.541678e-07
    200    205   2   0.50000    -0.1150000   -0.1150000   1.172438e-03  2.346713e-06
    200    209   2   0.50000    -0.1150000   -0.1150000   1.172438e-03  2.346713e-06
    202    205   2   0.50000    -0.1150000   -0.1150000   1.172438e-03  2.346713e-06
    202    209   2   0.50000    -0.1150000   -0.1150000   1.172438e-03  2.346713e-06
    201    222   2   0.50000     0.0000000    0.1150000   2.431434e-04  1.541678e-07
    221    198   2   0.50000     0.1150000    0.0850000   2.431434e-04  1.541678e-07
    221    222   2   0.50000     0.1150000    0.1150000   5.042375e-05  1.012808e-08
    201    206   2   0.50000     0.0000000   -0.1150000   1.172438e-03  2.346713e-06
    201    223   2   0.50000     0.0000000    0.1150000   2.431434e-04  1.541678e-07
    209    206   2   0.50000    -0.1150000   -0.1150000   1.172438e-03  2.346713e-06
    209    223   2   0.50000    -0.1150000    0.1150000   2.431434e-04  1.541678e-07
    201    208   2   0.50000     0.0000000   -0.1150000   1.172438e-03  2.346713e-06
    201    226   2   0.50000     0.0000000    0.1150000   2.431434e-04  1.541678e-07
    205    208   2   0.50000    -0.1150000   -0.1150000   1.172438e-03  2.346713e-06
    205    226   2   0.50000    -0.1150000    0.1150000   2.431434e-04  1.541678e-07
    204    207   2   0.50000     0.0000000    0.0850000   1.172438e-03  2.346713e-06
    204    224   2   0.50000     0.0000000    0.1150000   2.431434e-04  1.541678e-07
    223    207   2   0.50000     0.1150000    0.0850000   2.431434e-04  1.541678e-07
    223    224   2   0.50000     0.1150000    0.1150000   5.042375e-05  1.012808e-08
    205    210   2   0.50000    -0.1150000   -0.1700000   9.038862e-04  9.862632e-07
    224    208   2   0.50000     0.1150000   -0.1150000   2.431434e-04  1.541678e-07
    224    210   2   0.50000     0.1150000   -0.1700000   1.874504e-04  6.479276e-08
    206    225   2   0.50000    -0.1150000    0.1150000   2.431434e-04  1.541678e-07
    210    209   2   0.50000    -0.1700000   -0.1150000   9.038862e-04  9.862632e-07
    210    225   2   0.50000    -0.1700000    0.1150000   1.874504e-04  6.479276e-08
    206    227   2   0.50000    -0.1150000    0.0850000   1.172438e-03  2.346713e-06
    208    227   2   0.50000    -0.1150000    0.0850000   1.172438e-03  2.346713e-06
    207    226   2   0.50000     0.0850000    0.1150000   2.431434e-04  1.541678e-07
    225    204   2   0.50000     0.1150000    0.0000000   2.431434e-04  1.541678e-07
    225    226   2   0.50000     0.1150000    0.1150000   5.042375e-05  1.012808e-08
    207    228   2   0.50000     0.0850000   -0.1150000   1.172438e-03  2.346713e-06
    207    232   2   0.50000     0.0850000   -0.1150000   1.172438e-03  2.346713e-06
    210    229   2   0.50000    -0.1700000   -0.1150000   9.038862e-04  9.862632e-07
    210    256   2   0.50000    -0.1700000    0.1150000   1.874504e-04  6.479276e-08
    232    229   2   0.50000    -0.1150000   -0.1150000   1.172438e-03  2.346713e-06
    232    256   2   0.50000    -0.1150000    0.1150000   2.431434e-04  1.541678e-07
    210    231   2   0.50000    -0.1700000   -0.1150000   9.038862e-04  9.862632e-07
    210    259   2   0.50000    -0.1700000    0.1150000   1.874504e-04  6.479276e-08
    228    231   2   0.50000    -0.1150000   -0.1150000   1.172438e-03  2.346713e-06
    228    259   2   0.50000    -0.1150000    0.1150000   2.431434e-04  1.541678e-07
    227    230   2   0.50000     0.0850000    0.1380000   1.172438e-03  2.346713e-06
    227    257   2   0.50000     0.0850000    0.1150000   2.431434e-04  1.541678e-07
    256    230   2   0.50000     0.1150000    0.1380000   2.431434e-04  1.541678e-07
    256    257   2   0.50000     0.1150000    0.1150000   5.042375e-05  1.012808e-08
    228    233   2   0.50000    -0.1150000    0.7840000   2.215699e-03  4.434870e-06
    257    231   2   0.50000     0.1150000   -0.1150000   2.431434e-04  1.541678e-07
    257    233   2   0.50000     0.1150000    0.7840000   4.594978e-04  2.913497e-07
    229    258   2   0.50000    -0.1150000    0.1150000   2.431434e-04  1.541678e-07
    233    232   2   0.50000     0.7840000   -0.1150000   2.215699e-03  4.434870e-06
    233    258   2   0.50000     0.7840000    0.1150000   4.594978e-04  2.913497e-07
    229    234   2   0.50000    -0.1150000   -0.5300000   1.059145e-03  1.228897e-06
    229    235   2   0.50000    -0.1150000   -0.5300000   1.059145e-03  1.228897e-06
    229    236   2   0.50000    -0.1150000    0.1380000   1.172438e-03  2.346713e-06
    231    234   2   0.50000    -0.1150000   -0.5300000   1.059145e-03  1.228897e-06
    231    235   2   0.50000    -0.1150000   -0.5300000   1.059145e-03  1.228897e-06
    231    236   2   0.50000    -0.1150000    0.1380000   1.172438e-03  2.346713e-06
    230    259   2   0.50000     0.1380000    0.1150000   2.431434e-04  1.541678e-07
    258    227   2   0.50000     0.1150000    0.0850000   2.431434e-04  1.541678e-07
    258    259   2   0.50000     0.1150000    0.1150000   5.042375e-05  1.012808e-08
    230    237   2   0.50000     0.1380000   -0.1150000   1.172438e-03  2.346713e-06
    230    241   2   0.50000     0.1380000   -0.1150000   1.172438e-03  2.346713e-06
    234    237   2   0.50000    -0.5300000   -0.1150000   1.059145e-03  1.228897e-06
    234    241   2   0.50000    -0.5300000   -0.1150000   1.059145e-03  1.228897e-06
    235    237   2   0.50000    -0.5300000   -0.1150000   1.059145e-03  1.228897e-06
    235    241   2   0.50000    -0.5300000   -0.1150000   1.059145e-03  1.228897e-06
    233    238   2   0.50000     0.7840000   -0.1150000   2.215699e-03  4.434870e-06
    233    260   2   0.50000     0.7840000    0.1150000   4.594978e-04  2.913497e-07
    241    238   2   0.50000    -0.1150000   -0.1150000   1.172438e-03  2.346713e-06
    241    260   2   0.50000    -0.1150000    0.1150000   2.431434e-04  1.541678e-07
    233    240   2   0.50000     0.7840000   -0.1150000   2.215699e-03  4.434870e-06
    233    263   2   0.50000     0.7840000    0.1150000   4.594978e-04  2.913497e-07
    237    240   2   0.50000    -0.1150000   -0.1150000   1.172438e-03  2.346713e-06
    237    263   2   0.50000    -0.1150000    0.1150000   2.431434e-04  1.541678e-07
    236    239   2   0.50000     0.1380000    0.0850000   1.172438e-03  2.346713e-06
    236    261   2   0.50000     0.1380000    0.1150000   2.431434e-04  1.541678e-07
    260    239   2   0.50000     0.1150000    0.0850000   2.431434e-04  1.541678e-07
    260    261   2   0.50000     0.1150000    0.1150000   5.042375e-05  1.012808e-08
    237    242   2   0.50000    -0.1150000   -0.1700000   9.038862e-04  9.862632e-07
    261    240   2   0.50000     0.1150000   -0.1150000   2.431434e-04  1.541678e-07
    261    242   2   0.50000     0.1150000   -0.1700000   1.874504e-04  6.479276e-08
    238    262   2   0.50000    -0.1150000    0.1150000   2.431434e-04  1.541678e-07
    242    241   2   0.50000    -0.1700000   -0.1150000   9.038862e-04  9.862632e-07
    242    262   2   0.50000    -0.1700000    0.1150000   1.874504e-04  6.479276e-08
    238    243   2   0.50000    -0.1150000    0.0850000   1.172438e-03  2.346713e-06
    240    243   2   0.50000    -0.1150000    0.0850000   1.172438e-03  2.346713e-06
    239    263   2   0.50000     0.0850000    0.1150000   2.431434e-04  1.541678e-07
    262    236   2   0.50000     0.1150000    0.1380000   2.431434e-04  1.541678e-07
    262    263   2   0.50000     0.1150000    0.1150000   5.042375e-05  1.012808e-08
    239    244   2   0.50000     0.0850000   -0.1150000   1.172438e-03  2.346713e-06
    239    248   2   0.50000     0.0850000   -0.1150000   1.172438e-03  2.346713e-06
    242    245   2   0.50000    -0.1700000   -0.1150000   9.038862e-04  9.862632e-07
    242    264   2   0.50000    -0.1700000    0.1150000   1.874504e-04  6.479276e-08
    248    245   2   0.50000    -0.1150000   -0.1150000   1.172438e-03  2.346713e-06
    248    264   2   0.50000    -0.1150000    0.1150000   2.431434e-04  1.541678e-07
    242    247   2   0.50000    -0.1700000   -0.1150000   9.038862e-04  9.862632e-07
    242    267   2   0.50000    -0.1700000    0.1150000   1.874504e-04  6.479276e-08
    244    247   2   0.50000    -0.1150000   -0.1150000   1.172438e-03  2.346713e-06
    244    267   2   0.50000    -0.1150000    0.1150000   2.431434e-04  1.541678e-07
    243    246   2   0.50000     0.0850000    0.0000000   1.172438e-03  2.346713e-06
    243    265   2   0.50000     0.0850000    0.1150000   2.431434e-04  1.541678e-07
    264    246   2   0.50000     0.1150000    0.0000000   2.431434e-04  1.541678e-07
    264    265   2   0.50000     0.1150000    0.1150000   5.042375e-05  1.012808e-08
    244    249   2   0.50000    -0.1150000    0.0000000   1.172438e-03  2.346713e-06
    265    247   2   0.50000     0.1150000   -0.1150000   2.431434e-04  1.541678e-07
    265    249   2   0.50000     0.1150000    0.0000000   2.431434e-04  1.541678e-07
    245    266   2   0.50000    -0.1150000    0.1150000   2.431434e-04  1.541678e-07
    249    248   2   0.50000     0.0000000   -0.1150000   1.172438e-03  2.346713e-06
    249    266   2   0.50000     0.0000000    0.1150000   2.431434e-04  1.541678e-07
    245    250   2   0.50000    -0.1150000   -0.1150000   1.172438e-03  2.346713e-06
    245    254   2   0.50000    -0.1150000   -0.1150000   1.172438e-03  2.346713e-06
    247    250   2   0.50000    -0.1150000   -0.1150000   1.172438e-03  2.346713e-06
    247    254   2   0.50000    -0.1150000   -0.1150000   1.172438e-03  2.346713e-06
    246    267   2   0.50000     0.0000000    0.1150000   2.431434e-04  1.541678e-07
    266    243   2   0.50000     0.1150000    0.0850000   2.431434e-04  1.541678e-07
    266    267   2   0.50000     0.1150000    0.1150000   5.042375e-05  1.012808e-08
    246    251   2   0.50000     0.0000000   -0.1150000   1.172438e-03  2.346713e-06
    246    268   2   0.50000     0.0000000    0.1150000   2.431434e-04  1.541678e-07
    254    251   2   0.50000    -0.1150000   -0.1150000   1.172438e-03  2.346713e-06
    254    268   2   0.50000    -0.1150000    0.1150000   2.431434e-04  1.541678e-07
    246    253   2   0.50000     0.0000000   -0.1150000   1.172438e-03  2.346713e-06
    246    271   2   0.50000     0.0000000    0.1150000   2.431434e-04  1.541678e-07
    250    253   2   0.50000    -0.1150000   -0.1150000   1.172438e-03  2.346713e-06
    250    271   2   0.50000    -0.1150000    0.1150000   2.431434e-04  1.541678e-07
    249    252   2   0.50000     0.0000000    0.0850000   1.172438e-03  2.346713e-06
    249    269   2   0.50000     0.0000000    0.1150000   2.431434e-04  1.541678e-07
    268    252   2   0.50000     0.1150000    0.0850000   2.431434e-04  1.541678e-07
    268    269   2   0.50000     0.1150000    0.1150000   5.042375e-05  1.012808e-08
    250    255   2   0.50000    -0.1150000   -0.1700000   9.038862e-04  9.862632e-07
    269    253   2   0.50000     0.1150000   -0.1150000   2.431434e-04  1.541678e-07
    269    255   2   0.50000     0.1150000   -0.1700000   1.874504e-04  6.479276e-08
    251    270   2   0.50000    -0.1150000    0.1150000   2.431434e-04  1.541678e-07
    255    254   2   0.50000    -0.1700000   -0.1150000   9.038862e-04  9.862632e-07
    255    270   2   0.50000    -0.1700000    0.1150000   1.874504e-04  6.479276e-08
    251    272   2   0.50000    -0.1150000    0.0850000   1.172438e-03  2.346713e-06
    253    272   2   0.50000    -0.1150000    0.0850000   1.172438e-03  2.346713e-06
    252    271   2   0.50000     0.0850000    0.1150000   2.431434e-04  1.541678e-07
    270    249   2   0.50000     0.1150000    0.0000000   2.431434e-04  1.541678e-07
    270    271   2   0.50000     0.1150000    0.1150000   5.042375e-05  1.012808e-08
    252    273   2   0.50000     0.0850000   -0.1150000   1.172438e-03  2.346713e-06
    252    277   2   0.50000     0.0850000   -0.1150000   1.172438e-03  2.346713e-06
    255    274   2   0.50000    -0.1700000   -0.1150000   9.038862e-04  9.862632e-07
    255    301   2   0.50000    -0.1700000    0.1150000   1.874504e-04  6.479276e-08
    277    274   2   0.50000    -0.1150000   -0.1150000   1.172438e-03  2.346713e-06
    277    301   2   0.50000    -0.1150000    0.1150000   2.431434e-04  1.541678e-07
    255    276   2   0.50000    -0.1700000   -0.1150000   9.038862e-04  9.862632e-07
    255    304   2   0.50000    -0.1700000    0.1150000   1.874504e-04  6.479276e-08
    273    276   2   0.50000    -0.1150000   -0.1150000   1.172438e-03  2.346713e-06
    273    304   2   0.50000    -0.1150000    0.1150000   2.431434e-04  1.541678e-07
    272    275   2   0.50000     0.0850000    0.1380000   1.172438e-03  2.346713e-06
    272    302   2   0.50000     0.0850000    0.1150000   2.431434e-04  1.541678e-07
    301    275   2   0.50000     0.1150000    0.1380000   2.431434e-04  1.541678e-07
    301    302   2   0.50000     0.1150000    0.1150000   5.042375e-05  1.012808e-08
    273    278   2   0.50000    -0.1150000    0.7840000   2.215699e-03  4.434870e-06
    302    276   2   0.50000     0.1150000   -0.1150000   2.431434e-04  1.541678e-07
    302    278   2   0.50000     0.1150000    0.7840000   4.594978e-04  2.913497e-07
    274    303   2   0.50000    -0.1150000    0.1150000   2.431434e-04  1.541678e-07
    278    277   2   0.50000     0.7840000   -0.1150000   2.215699e-03  4.434870e-06
    278    303   2   0.50000     0.7840000    0.1150000   4.594978e-04  2.913497e-07
    274    279   2   0.50000    -0.1150000   -0.5300000   1.059145e-03  1.228897e-06
    274    280   2   0.50000    -0.1150000   -0.5300000   1.059145e-03  1.228897e-06
    274    281   2   0.50000    -0.1150000    0.1380000   1.172438e-03  2.346713e-06
    276    279   2   0.50000    -0.1150000   -0.5300000   1.059145e-03  1.228897e-06
    276    280   2   0.50000    -0.1150000   -0.5300000   1.059145e-03  1.228897e-06
    276    281   2   0.50000    -0.1150000    0.1380000   1.172438e-03  2.346713e-06
    275    304   2   0.50000     0.1380000    0.1150000   2.431434e-04  1.541678e-07
    303    272   2   0.50000     0.1150000    0.0850000   2.431434e-04  1.541678e-07
    303    304   2   0.50000     0.1150000    0.1150000   5.042375e-05  1.012808e-08
    275    282   2   0.50000     0.1380000   -0.1150000   1.172438e-03  2.346713e-06
    275    286   2   0.50000     0.1380000   -0.1150000   1.172438e-03  2.346713e-06
    279    282   2   0.50000    -0.5300000   -0.1150000   1.059145e-03  1.228897e-06
    279    286   2   0.50000    -0.5300000   -0.1150000   1.059145e-03  1.228897e-06
    280    282   2   0.50000    -0.5300000   -0.1150000   1.059145e-03  1.228897e-06
    280    286   2   0.50000    -0.5300000   -0.1150000   1.059145e-03  1.228897e-06
    278    283   2   0.50000     0.7840000   -0.1150000   2.215699e-03  4.434870e-06
    278    305   2   0.50000     0.7840000    0.1150000   4.594978e-04  2.913497e-07
    286    283   2   0.50000    -0.1150000   -0.1150000   1.172438e-03  2.346713e-06
    286    305   2   0.50000    -0.1150000    0.1150000   2.431434e-04  1.541678e-07
    278    285   2   0.50000     0.7840000   -0.1150000   2.215699e-03  4.434870e-06
    278    308   2   0.50000     0.7840000    0.1150000   4.594978e-04  2.913497e-07
    282    285   2   0.50000    -0.1150000   -0.1150000   1.172438e-03  2.346713e-06
    282    308   2   0.50000    -0.1150000    0.1150000   2.431434e-04  1.541678e-07
    281    284   2   0.50000     0.1380000    0.0850000   1.172438e-03  2.346713e-06
    281    306   2   0.50000     0.1380000    0.1150000   2.431434e-04  1.541678e-07
    305    284   2   0.50000     0.1150000    0.0850000   2.431434e-04  1.541678e-07
    305    306   2   0.50000     0.1150000    0.1150000   5.042375e-05  1.012808e-08
    282    287   2   0.50000    -0.1150000   -0.1700000   9.038862e-04  9.862632e-07
    306    285   2   0.50000     0.1150000   -0.1150000   2.431434e-04  1.541678e-07
    306    287   2   0.50000     0.1150000   -0.1700000   1.874504e-04  6.479276e-08
    283    307   2   0.50000    -0.1150000    0.1150000   2.431434e-04  1.541678e-07
    287    286   2   0.50000    -0.1700000   -0.1150000   9.038862e-04  9.862632e-07
    287    307   2   0.50000    -0.1700000    0.1150000   1.874504e-04  6.479276e-08
    283    288   2   0.50000    -0.1150000    0.0850000   1.172438e-03  2.346713e-06
    285    288   2   0.50000    -0.1150000    0.0850000   1.172438e-03  2.346713e-06
    284    308   2   0.50000     0.0850000    0.1150000   2.431434e-04  1.541678e-07
    307    281   2   0.50000     0.1150000    0.1380000   2.431434e-04  1.541678e-07
    307    308   2   0.50000     0.1150000    0.1150000   5.042375e-05  1.012808e-08
    284    289   2   0.50000     0.0850000   -0.1150000   1.172438e-03  2.346713e-06
    284    293   2   0.50000     0.0850000   -0.1150000   1.172438e-03  2.346713e-06
    287    290   2   0.50000    -0.1700000   -0.1150000   9.038862e-04  9.862632e-07
    287    309   2   0.50000    -0.1700000    0.1150000   1.874504e-04  6.479276e-08
    293    290   2   0.50000    -0.1150000   -0.1150000   1.172438e-03  2.346713e-06
    293    309   2   0.50000    -0.1150000    0.1150000   2.431434e-04  1.541678e-07
    287    292   2   0.50000    -0.1700000   -0.1150000   9.038862e-04  9.862632e-07
    287    312   2   0.50000    -0.1700000    0.1150000   1.874504e-04  6.479276e-08
    289    292   2   0.50000    -0.1150000   -0.1150000   1.172438e-03  2.346713e-06
    289    312   2   0.50000    -0.1150000    0.1150000   2.431434e-04  1.541678e-07
    288    291   2   0.50000     0.0850000    0.0000000   1.172438e-03  2.346713e-06
    288    310   2   0.50000     0.0850000    0.1150000   2.431434e-04  1.541678e-07
    309    291   2   0.50000     0.1150000    0.0000000   2.431434e-04  1.541678e-07
    309    310   2   0.50000     0.1150000    0.1150000   5.042375e-05  1.012808e-08
    289    294   2   0.50000    -0.1150000    0.0000000   1.172438e-03  2.346713e-06
    310    292   2   0.50000     0.1150000   -0.1150000   2.431434e-04  1.541678e-07
    310    294   2   0.50000     0.1150000    0.0000000   2.431434e-04  1.541678e-07
    290    311   2   0.50000    -0.1150000    0.1150000   2.431434e-04  1.541678e-07
    294    293   2   0.50000     0.0000000   -0.1150000   1.172438e-03  2.346713e-06
    294    311   2   0.50000     0.0000000    0.1150000   2.431434e-04  1.541678e-07
    290    295   2   0.50000    -0.1150000   -0.1150000   1.172438e-03  2.346713e-06
    290    299   2   0.50000    -0.1150000   -0.1150000   1.172438e-03  2.346713e-06
    292    295   2   0.50000    -0.1150000   -0.1150000   1.172438e-03  2.346713e-06
    292    299   2   0.50000    -0.1150000   -0.1150000   1.172438e-03  2.346713e-06
    291    312   2   0.50000     0.0000000    0.1150000   2.431434e-04  1.541678e-07
    311    288   2   0.50000     0.1150000    0.0850000   2.431434e-04  1.541678e-07
    311    312   2   0.50000     0.1150000    0.1150000   5.042375e-05  1.012808e-08
    291    296   2   0.50000     0.0000000   -0.1150000   1.172438e-03  2.346713e-06
    291    313   2   0.50000     0.0000000    0.1150000   2.431434e-04  1.541678e-07
    299    296   2   0.50000    -0.1150000   -0.1150000   1.172438e-03  2.346713e-06
    299    313   2   0.50000    -0.1150000    0.1150000   2.431434e-04  1.541678e-07
    291    298   2   0.50000     0.0000000   -0.1150000   1.172438e-03  2.346713e-06
    291    316   2   0.50000     0.0000000    0.1150000   2.431434e-04  1.541678e-07
    295    298   2   0.50000    -0.1150000   -0.1150000   1.172438e-03  2.346713e-06
    295    316   2   0.50000    -0.1150000    0.1150000   2.431434e-04  1.541678e-07
    294    297   2   0.50000     0.0000000    0.0850000   1.172438e-03  2.346713e-06
    294    314   2   0.50000     0.0000000    0.1150000   2.431434e-04  1.541678e-07
    313    297   2   0.50000     0.1150000    0.0850000   2.431434e-04  1.541678e-07
    313    314   2   0.50000     0.1150000    0.1150000   5.042375e-05  1.012808e-08
    295    300   2   0.50000    -0.1150000   -0.1700000   9.038862e-04  9.862632e-07
    314    298   2   0.50000     0.1150000   -0.1150000   2.431434e-04  1.541678e-07
    314    300   2   0.50000     0.1150000   -0.1700000   1.874504e-04  6.479276e-08
    296    315   2   0.50000    -0.1150000    0.1150000   2.431434e-04  1.541678e-07
    300    299   2   0.50000    -0.1700000   -0.1150000   9.038862e-04  9.862632e-07
    300    315   2   0.50000    -0.1700000    0.1150000   1.874504e-04  6.479276e-08
    296    317   2   0.50000    -0.1150000    0.0850000   1.172438e-03  2.346713e-06
    298    317   2   0.50000    -0.1150000    0.0850000   1.172438e-03  2.346713e-06
    297    316   2   0.50000     0.0850000    0.1150000   2.431434e-04  1.541678e-07
    315    294   2   0.50000     0.1150000    0.0000000   2.431434e-04  1.541678e-07
    315    316   2   0.50000     0.1150000    0.1150000   5.042375e-05  1.012808e-08
    297    318   2   0.50000     0.0850000   -0.1150000   1.172438e-03  2.346713e-06
    297    322   2   0.50000     0.0850000   -0.1150000   1.172438e-03  2.346713e-06
    300    319   2   0.50000    -0.1700000   -0.1150000   9.038862e-04  9.862632e-07
    300    346   2   0.50000    -0.1700000    0.1150000   1.874504e-04  6.479276e-08
    322    319   2   0.50000    -0.1150000   -0.1150000   1.172438e-03  2.346713e-06
    322    346   2   0.50000    -0.1150000    0.1150000   2.431434e-04  1.541678e-07
    300    321   2   0.50000    -0.1700000   -0.1150000   9.038862e-04  9.862632e-07
    300    349   2   0.50000    -0.1700000    0.1150000   1.874504e-04  6.479276e-08
    318    321   2   0.50000    -0.1150000   -0.1150000   1.172438e-03  2.346713e-06
    318    349   2   0.50000    -0.1150000    0.1150000   2.431434e-04  1.541678e-07
    317    320   2   0.50000     0.0850000    0.1380000   1.172438e-03  2.346713e-06
    317    347   2   0.50000     0.0850000    0.1150000   2.431434e-04  1.541678e-07
    346    320   2   0.50000     0.1150000    0.1380000   2.431434e-04  1.541678e-07
    346    347   2   0.50000     0.1150000    0.1150000   5.042375e-05  1.012808e-08
    318    323   2   0.50000    -0.1150000    0.7840000   2.215699e-03  4.434870e-06
    347    321   2   0.50000     0.1150000   -0.1150000   2.431434e-04  1.541678e-07
    347    323   2   0.50000     0.1150000    0.7840000   4.594978e-04  2.913497e-07
    319    348   2   0.50000    -0.1150000    0.1150000   2.431434e-04  1.541678e-07
    323    322   2   0.50000     0.7840000   -0.1150000   2.215699e-03  4.434870e-06
    323    348   2   0.50000     0.7840000    0.1150000   4.594978e-04  2.913497e-07
    319    324   2   0.50000    -0.1150000   -0.5300000   1.059145e-03  1.228897e-06
    319    325   2   0.50000    -0.1150000   -0.5300000   1.059145e-03  1.228897e-06
    319    326   2   0.50000    -0.1150000    0.1380000   1.172438e-03  2.346713e-06
    321    324   2   0.50000    -0.1150000   -0.5300000   1.059145e-03  1.228897e-06
    321    325   2   0.50000    -0.1150000   -0.5300000   1.059145e-03  1.228897e-06
    321    326   2   0.50000    -0.1150000    0.1380000   1.172438e-03  2.346713e-06
    320    349   2   0.50000     0.1380000    0.1150000   2.431434e-04  1.541678e-07
    348    317   2   0.50000     0.1150000    0.0850000   2.431434e-04  1.541678e-07
    348    349   2   0.50000     0.1150000    0.1150000   5.042375e-05  1.012808e-08
    320    327   2   0.50000     0.1380000   -0.1150000   1.172438e-03  2.346713e-06
    320    331   2   0.50000     0.1380000   -0.1150000   1.172438e-03  2.346713e-06
    324    327   2   0.50000    -0.5300000   -0.1150000   1.059145e-03  1.228897e-06
    324    331   2   0.50000    -0.5300000   -0.1150000   1.059145e-03  1.228897e-06
    325    327   2   0.50000    -0.5300000   -0.1150000   1.059145e-03  1.228897e-06
    325    331   2   0.50000    -0.5300000   -0.1150000   1.059145e-03  1.228897e-06
    323    328   2   0.50000     0.7840000   -0.1150000   2.215699e-03  4.434870e-06
    323    350   2   0.50000     0.7840000    0.1150000   4.594978e-04  2.913497e-07
    331    328   2   0.50000    -0.1150000   -0.1150000   1.172438e-03  2.346713e-06
    331    350   2   0.50000    -0.1150000    0.1150000   2.431434e-04  1.541678e-07
    323    330   2   0.50000     0.7840000   -0.1150000   2.215699e-03  4.434870e-06
    323    353   2   0.50000     0.7840000    0.1150000   4.594978e-04  2.913497e-07
    327    330   2   0.50000    -0.1150000   -0.1150000   1.172438e-03  2.346713e-06
    327    353   2   0.50000    -0.1150000    0.1150000   2.431434e-04  1.541678e-07
    326    329   2   0.50000     0.1380000    0.0850000   1.172438e-03  2.346713e-06
    326    351   2   0.50000     0.1380000    0.1150000   2.431434e-04  1.541678e-07
    350    329   2   0.50000     0.1150000    0.0850000   2.431434e-04  1.541678e-07
    350    351   2   0.50000     0.1150000    0.1150000   5.042375e-05  1.012808e-08
    327    332   2   0.50000    -0.1150000   -0.1700000   9.038862e-04  9.862632e-07
    351    330   2   0.50000     0.1150000   -0.1150000   2.431434e-04  1.541678e-07
    351    332   2   0.50000     0.1150000   -0.1700000   1.874504e-04  6.479276e-08
    328    352   2   0.50000    -0.1150000    0.1150000   2.431434e-04  1.541678e-07
    332    331   2   0.50000    -0.1700000   -0.1150000   9.038862e-04  9.862632e-07
    332    352   2   0.50000    -0.1700000    0.1150000   1.874504e-04  6.479276e-08
    328    333   2   0.50000    -0.1150000    0.0850000   1.172438e-03  2.346713e-06
    330    333   2   0.50000    -0.1150000    0.0850000   1.172438e-03  2.346713e-06
    329    353   2   0.50000     0.0850000    0.1150000   2.431434e-04  1.541678e-07
    352    326   2   0.50000     0.1150000    0.1380000   2.431434e-04  1.541678e-07
    352    353   2   0.50000     0.1150000    0.1150000   5.042375e-05  1.012808e-08
    329    334   2   0.50000     0.0850000   -0.1150000   1.172438e-03  2.346713e-06
    329    338   2   0.50000     0.0850000   -0.1150000   1.172438e-03  2.346713e-06
    332    335   2   0.50000    -0.1700000   -0.1150000   9.038862e-04  9.862632e-07
    332    354   2   0.50000    -0.1700000    0.1150000   1.874504e-04  6.479276e-08
    338    335   2   0.50000    -0.1150000   -0.1150000   1.172438e-03  2.346713e-06
    338    354   2   0.50000    -0.1150000    0.1150000   2.431434e-04  1.541678e-07
    332    337   2   0.50000    -0.1700000   -0.1150000   9.038862e-04  9.862632e-07
    332    357   2   0.50000    -0.1700000    0.1150000   1.874504e-04  6.479276e-08
    334    337   2   0.50000    -0.1150000   -0.1150000   1.172438e-03  2.346713e-06
    334    357   2   0.50000    -0.1150000    0.1150000   2.431434e-04  1.541678e-07
    333    336   2   0.50000     0.0850000    0.0000000   1.172438e-03  2.346713e-06
    333    355   2   0.50000     0.0850000    0.1150000   2.431434e-04  1.541678e-07
    354    336   2   0.50000     0.1150000    0.0000000   2.431434e-04  1.541678e-07
    354    355   2   0.50000     0.1150000    0.1150000   5.042375e-05  1.012808e-08
    334    339   2   0.50000    -0.1150000    0.0000000   1.172438e-03  2.346713e-06
    355    337   2   0.50000     0.1150000   -0.1150000   2.431434e-04  1.541678e-07
    355    339   2   0.50000     0.1150000    0.0000000   2.431434e-04  1.541678e-07
    335    356   2   0.50000    -0.1150000    0.1150000   2.431434e-04  1.541678e-07
    339    338   2   0.50000     0.0000000   -0.1150000   1.172438e-03  2.346713e-06
    339    356   2   0.50000     0.0000000    0.1150000   2.431434e-04  1.541678e-07
    335    340   2   0.50000    -0.1150000   -0.1150000   1.172438e-03  2.346713e-06
    335    344   2   0.50000    -0.1150000   -0.1150000   1.172438e-03  2.346713e-06
    337    340   2   0.50000    -0.1150000   -0.1150000   1.172438e-03  2.346713e-06
    337    344   2   0.50000    -0.1150000   -0.1150000   1.172438e-03  2.346713e-06
    336    357   2   0.50000     0.0000000    0.1150000   2.431434e-04  1.541678e-07
    356    333   2   0.50000     0.1150000    0.0850000   2.431434e-04  1.541678e-07
    356    357   2   0.50000     0.1150000    0.1150000   5.042375e-05  1.012808e-08
    336    341   2   0.50000     0.0000000   -0.1150000   1.172438e-03  2.346713e-06
    336    358   2   0.50000     0.0000000    0.1150000   2.431434e-04  1.541678e-07
    344    341   2   0.50000    -0.1150000   -0.1150000   1.172438e-03  2.346713e-06
    344    358   2   0.50000    -0.1150000    0.1150000   2.431434e-04  1.541678e-07
    336    343   2   0.50000     0.0000000   -0.1150000   1.172438e-03  2.346713e-06
    336    361   2   0.50000     0.0000000    0.1150000   2.431434e-04  1.541678e-07
    340    343   2   0.50000    -0.1150000   -0.1150000   1.172438e-03  2.346713e-06
    340    361   2   0.50000    -0.1150000    0.1150000   2.431434e-04  1.541678e-07
    339    342   2   0.50000     0.0000000    0.0850000   1.172438e-03  2.346713e-06
    339    359   2   0.50000     0.0000000    0.1150000   2.431434e-04  1.541678e-07
    358    342   2   0.50000     0.1150000    0.0850000   2.431434e-04  1.541678e-07
    358    359   2   0.50000     0.1150000    0.1150000   5.042375e-05  1.012808e-08
    340    345   2   0.50000    -0.1150000   -0.1700000   9.038862e-04  9.862632e-07
    359    343   2   0.50000     0.1150000   -0.1150000   2.431434e-04  1.541678e-07
    359    345   2   0.50000     0.1150000   -0.1700000   1.874504e-04  6.479276e-08
    341    360   2   0.50000    -0.1150000    0.1150000   2.431434e-04  1.541678e-07
    345    344   2   0.50000    -0.1700000   -0.1150000   9.038862e-04  9.862632e-07
    345    360   2   0.50000    -0.1700000    0.1150000   1.874504e-04  6.479276e-08
    341    362   2   0.50000    -0.1150000    0.0850000   1.172438e-03  2.346713e-06
    343    362   2   0.50000    -0.1150000    0.0850000   1.172438e-03  2.346713e-06
    342    361   2   0.50000     0.0850000    0.1150000   2.431434e-04  1.541678e-07
    360    339   2   0.50000     0.1150000    0.0000000   2.431434e-04  1.541678e-07
    360    361   2   0.50000     0.1150000    0.1150000   5.042375e-05  1.012808e-08
    342    363   2   0.50000     0.0850000   -0.1150000   1.172438e-03  2.346713e-06
    342    367   2   0.50000     0.0850000   -0.1150000   1.172438e-03  2.346713e-06
    345    364   2   0.50000    -0.1700000   -0.1150000   9.038862e-04  9.862632e-07
    345    391   2   0.50000    -0.1700000    0.1150000   1.874504e-04  6.479276e-08
    367    364   2   0.50000    -0.1150000   -0.1150000   1.172438e-03  2.346713e-06
    367    391   2   0.50000    -0.1150000    0.1150000   2.431434e-04  1.541678e-07
    345    366   2   0.50000    -0.1700000   -0.1150000   9.038862e-04  9.862632e-07
    345    394   2   0.50000    -0.1700000    0.1150000   1.874504e-04  6.479276e-08
    363    366   2   0.50000    -0.1150000   -0.1150000   1.172438e-03  2.346713e-06
    363    394   2   0.50000    -0.1150000    0.1150000   2.431434e-04  1.541678e-07
    362    365   2   0.50000     0.0850000    0.1380000   1.172438e-03  2.346713e-06
    362    392   2   0.50000     0.0850000    0.1150000   2.431434e-04  1.541678e-07
    391    365   2   0.50000     0.1150000    0.1380000   2.431434e-04  1.541678e-07
    391    392   2   0.50000     0.1150000    0.1150000   5.042375e-05  1.012808e-08
    363    368   2   0.50000    -0.1150000    0.7840000   2.215699e-03  4.434870e-06
    392    366   2   0.50000     0.1150000   -0.1150000   2.431434e-04  1.541678e-07
    392    368   2   0.50000     0.1150000    0.7840000   4.594978e-04  2.913497e-07
    364    393   2   0.50000    -0.1150000    0.1150000   2.431434e-04  1.541678e-07
    368    367   2   0.50000     0.7840000   -0.1150000   2.215699e-03  4.434870e-06
    368    393   2   0.50000     0.7840000    0.1150000   4.594978e-04  2.913497e-07
    364    369   2   0.50000    -0.1150000   -0.5300000   1.059145e-03  1.228897e-06
    364    370   2   0.50000    -0.1150000   -0.5300000   1.059145e-03  1.228897e-06
    364    371   2   0.50000    -0.1150000    0.1380000   1.172438e-03  2.346713e-06
    366    369   2   0.50000    -0.1150000   -0.5300000   1.059145e-03  1.228897e-06
    366    370   2   0.50000    -0.1150000   -0.5300000   1.059145e-03  1.228897e-06
    366    371   2   0.50000    -0.1150000    0.1380000   1.172438e-03  2.346713e-06
    365    394   2   0.50000     0.1380000    0.1150000   2.431434e-04  1.541678e-07
    393    362   2   0.50000     0.1150000    0.0850000   2.431434e-04  1.541678e-07
    393    394   2   0.50000     0.1150000    0.1150000   5.042375e-05  1.012808e-08
    365    372   2   0.50000     0.1380000   -0.1150000   1.172438e-03  2.346713e-06
    365    376   2   0.50000     0.1380000   -0.1150000   1.172438e-03  2.346713e-06
    369    372   2   0.50000    -0.5300000   -0.1150000   1.059145e-03  1.228897e-06
    369    376   2   0.50000    -0.5300000   -0.1150000   1.059145e-03  1.228897e-06
    370    372   2   0.50000    -0.5300000   -0.1150000   1.059145e-03  1.228897e-06
    370    376   2   0.50000    -0.5300000   -0.1150000   1.059145e-03  1.228897e-06
    368    373   2   0.50000     0.7840000   -0.1150000   2.215699e-03  4.434870e-06
    368    395   2   0.50000     0.7840000    0.1150000   4.594978e-04  2.913497e-07
    376    373   2   0.50000    -0.1150000   -0.1150000   1.172438e-03  2.346713e-06
    376    395   2   0.50000    -0.1150000    0.1150000   2.431434e-04  1.541678e-07
    368    375   2   0.50000     0.7840000   -0.1150000   2.215699e-03  4.434870e-06
    368    398   2   0.50000     0.7840000    0.1150000   4.594978e-04  2.913497e-07
    372    375   2   0.50000    -0.1150000   -0.1150000   1.172438e-03  2.346713e-06
    372    398   2   0.50000    -0.1150000    0.1150000   2.431434e-04  1.541678e-07
    371    374   2   0.50000     0.1380000    0.0850000   1.172438e-03  2.346713e-06
    371    396   2   0.50000     0.1380000    0.1150000   2.431434e-04  1.541678e-07
    395    374   2   0.50000     0.1150000    0.0850000   2.431434e-04  1.541678e-07
    395    396   2   0.50000     0.1150000    0.1150000   5.042375e-05  1.012808e-08
    372    377   2   0.50000    -0.1150000   -0.1700000   9.038862e-04  9.862632e-07
    396    375   2   0.50000     0.1150000   -0.1150000   2.431434e-04  1.541678e-07
    396    377   2   0.50000     0.1150000   -0.1700000   1.874504e-04  6.479276e-08
    373    397   2   0.50000    -0.1150000    0.1150000   2.431434e-04  1.541678e-07
    377    376   2   0.50000    -0.1700000   -0.1150000   9.038862e-04  9.862632e-07
    377    397   2   0.50000    -0.1700000    0.1150000   1.874504e-04  6.479276e-08
    373    378   2   0.50000    -0.1150000    0.0850000   1.172438e-03  2.346713e-06
    375    378   2   0.50000    -0.1150000    0.0850000   1.172438e-03  2.346713e-06
    374    398   2   0.50000     0.0850000    0.1150000   2.431434e-04  1.541678e-07
    397    371   2   0.50000     0.1150000    0.1380000   2.431434e-04  1.541678e-07
    397    398   2   0.50000     0.1150000    0.1150000   5.042375e-05  1.012808e-08
    374    379   2   0.50000     0.0850000   -0.1150000   1.172438e-03  2.346713e-06
    374    383   2   0.50000     0.0850000   -0.1150000   1.172438e-03  2.346713e-06
    377    380   2   0.50000    -0.1700000   -0.1150000   9.038862e-04  9.862632e-07
    377    399   2   0.50000    -0.1700000    0.1150000   1.874504e-04  6.479276e-08
    383    380   2   0.50000    -0.1150000   -0.1150000   1.172438e-03  2.346713e-06
    383    399   2   0.50000    -0.1150000    0.1150000   2.431434e-04  1.541678e-07
    377    382   2   0.50000    -0.1700000   -0.1150000   9.038862e-04  9.862632e-07
    377    402   2   0.50000    -0.1700000    0.1150000   1.874504e-04  6.479276e-08
    379    382   2   0.50000    -0.1150000   -0.1150000   1.172438e-03  2.346713e-06
    379    402   2   0.50000    -0.1150000    0.1150000   2.431434e-04  1.541678e-07
    378    381   2   0.50000     0.0850000    0.0000000   1.172438e-03  2.346713e-06
    378    400   2   0.50000     0.0850000    0.1150000   2.431434e-04  1.541678e-07
    399    381   2   0.50000     0.1150000    0.0000000   2.431434e-04  1.541678e-07
    399    400   2   0.50000     0.1150000    0.1150000   5.042375e-05  1.012808e-08
    379    384   2   0.50000    -0.1150000    0.0000000   1.172438e-03  2.346713e-06
    400    382   2   0.50000     0.1150000   -0.1150000   2.431434e-04  1.541678e-07
    400    384   2   0.50000     0.1150000    0.0000000   2.431434e-04  1.541678e-07
    380    401   2   0.50000    -0.1150000    0.1150000   2.431434e-04  1.541678e-07
    384    383   2   0.50000     0.0000000   -0.1150000   1.172438e-03  2.346713e-06
    384    401   2   0.50000     0.0000000    0.1150000   2.431434e-04  1.541678e-07
    380    385   2   0.50000    -0.1150000   -0.1150000   1.172438e-03  2.346713e-06
    380    389   2   0.50000    -0.1150000   -0.1150000   1.172438e-03  2.346713e-06
    382    385   2   0.50000    -0.1150000   -0.1150000   1.172438e-03  2.346713e-06
    382    389   2   0.50000    -0.1150000   -0.1150000   1.172438e-03  2.346713e-06
    381    402   2   0.50000     0.0000000    0.1150000   2.431434e-04  1.541678e-07
    401    378   2   0.50000     0.1150000    0.0850000   2.431434e-04  1.541678e-07
    401    402   2   0.50000     0.1150000    0.1150000   5.042375e-05  1.012808e-08
    381    386   2   0.50000     0.0000000   -0.1150000   1.172438e-03  2.346713e-06
    381    403   2   0.50000     0.0000000    0.1150000   2.431434e-04  1.541678e-07
    389    386   2   0.50000    -0.1150000   -0.1150000   1.172438e-03  2.346713e-06
    389    403   2   0.50000    -0.1150000    0.1150000   2.431434e-04  1.541678e-07
    381    388   2   0.50000     0.0000000   -0.1150000   1.172438e-03  2.346713e-06
    381    406   2   0.50000     0.0000000    0.1150000   2.431434e-04  1.541678e-07
    385    388   2   0.50000    -0.1150000   -0.1150000   1.172438e-03  2.346713e-06
    385    406   2   0.50000    -0.1150000    0.1150000   2.431434e-04  1.541678e-07
    384    387   2   0.50000     0.0000000    0.0850000   1.172438e-03  2.346713e-06
    384    404   2   0.50000     0.0000000    0.1150000   2.431434e-04  1.541678e-07
    403    387   2   0.50000     0.1150000    0.0850000   2.431434e-04  1.541678e-07
    403    404   2   0.50000     0.1150000    0.1150000   5.042375e-05  1.012808e-08
    385    390   2   0.50000    -0.1150000   -0.1700000   9.038862e-04  9.862632e-07
    404    388   2   0.50000     0.1150000   -0.1150000   2.431434e-04  1.541678e-07
    404    390   2   0.50000     0.1150000   -0.1700000   1.874504e-04  6.479276e-08
    386    405   2   0.50000    -0.1150000    0.1150000   2.431434e-04  1.541678e-07
    390    389   2   0.50000    -0.1700000   -0.1150000   9.038862e-04  9.862632e-07
    390    405   2   0.50000    -0.1700000    0.1150000   1.874504e-04  6.479276e-08
    386    407   2   0.50000    -0.1150000    0.0850000   1.172438e-03  2.346713e-06
    388    407   2   0.50000    -0.1150000    0.0850000   1.172438e-03  2.346713e-06
    387    406   2   0.50000     0.0850000    0.1150000   2.431434e-04  1.541678e-07
    405    384   2   0.50000     0.1150000    0.0000000   2.431434e-04  1.541678e-07
    405    406   2   0.50000     0.1150000    0.1150000   5.042375e-05  1.012808e-08
    387    408   2   0.50000     0.0850000   -0.1150000   1.172438e-03  2.346713e-06
    387    412   2   0.50000     0.0850000   -0.1150000   1.172438e-03  2.346713e-06
    390    409   2   0.50000    -0.1700000   -0.1150000   9.038862e-04  9.862632e-07
    390    436   2   0.50000    -0.1700000    0.1150000   1.874504e-04  6.479276e-08
    412    409   2   0.50000    -0.1150000   -0.1150000   1.172438e-03  2.346713e-06
    412    436   2   0.50000    -0.1150000    0.1150000   2.431434e-04  1.541678e-07
    390    411   2   0.50000    -0.1700000   -0.1150000   9.038862e-04  9.862632e-07
    390    439   2   0.50000    -0.1700000    0.1150000   1.874504e-04  6.479276e-08
    408    411   2   0.50000    -0.1150000   -0.1150000   1.172438e-03  2.346713e-06
    408    439   2   0.50000    -0.1150000    0.1150000   2.431434e-04  1.541678e-07
    407    410   2   0.50000     0.0850000    0.1380000   1.172438e-03  2.346713e-06
    407    437   2   0.50000     0.0850000    0.1150000   2.431434e-04  1.541678e-07
    436    410   2   0.50000     0.1150000    0.1380000   2.431434e-04  1.541678e-07
    436    437   2   0.50000     0.1150000    0.1150000   5.042375e-05  1.012808e-08
    408    413   2   0.50000    -0.1150000    0.7840000   2.215699e-03  4.434870e-06
    437    411   2   0.50000     0.1150000   -0.1150000   2.431434e-04  1.541678e-07
    437    413   2   0.50000     0.1150000    0.7840000   4.594978e-04  2.913497e-07
    409    438   2   0.50000    -0.1150000    0.1150000   2.431434e-04  1.541678e-07
    413    412   2   0.50000     0.7840000   -0.1150000   2.215699e-03  4.434870e-06
    413    438   2   0.50000     0.7840000    0.1150000   4.594978e-04  2.913497e-07
    409    414   2   0.50000    -0.1150000   -0.5300000   1.059145e-03  1.228897e-06
    409    415   2   0.50000    -0.1150000   -0.5300000   1.059145e-03  1.228897e-06
    409    416   2   0.50000    -0.1150000    0.1380000   1.172438e-03  2.346713e-06
    411    414   2   0.50000    -0.1150000   -0.5300000   1.059145e-03  1.228897e-06
    411    415   2   0.50000    -0.1150000   -0.5300000   1.059145e-03  1.228897e-06
    411    416   2   0.50000    -0.1150000    0.1380000   1.172438e-03  2.346713e-06
    410    439   2   0.50000     0.1380000    0.1150000   2.431434e-04  1.541678e-07
    438    407   2   0.50000     0.1150000    0.0850000   2.431434e-04  1.541678e-07
    438    439   2   0.50000     0.1150000    0.1150000   5.042375e-05  1.012808e-08
    410    417   2   0.50000     0.1380000   -0.1150000   1.172438e-03  2.346713e-06
    410    421   2   0.50000     0.1380000   -0.1150000   1.172438e-03  2.346713e-06
    414    417   2   0.50000    -0.5300000   -0.1150000   1.059145e-03  1.228897e-06
    414    421   2   0.50000    -0.5300000   -0.1150000   1.059145e-03  1.228897e-06
    415    417   2   0.50000    -0.5300000   -0.1150000   1.059145e-03  1.228897e-06
    415    421   2   0.50000    -0.5300000   -0.1150000   1.059145e-03  1.228897e-06
    413    418   2   0.50000     0.7840000   -0.1150000   2.215699e-03  4.434870e-06
    413    440   2   0.50000     0.7840000    0.1150000   4.594978e-04  2.913497e-07
    421    418   2   0.50000    -0.1150000   -0.1150000   1.172438e-03  2.346713e-06
    421    440   2   0.50000    -0.1150000    0.1150000   2.431434e-04  1.541678e-07
    413    420   2   0.50000     0.7840000   -0.1150000   2.215699e-03  4.434870e-06
    413    443   2   0.50000     0.7840000    0.1150000   4.594978e-04  2.913497e-07
    417    420   2   0.50000    -0.1150000   -0.1150000   1.172438e-03  2.346713e-06
    417    443   2   0.50000    -0.1150000    0.1150000   2.431434e-04  1.541678e-07
    416    419   2   0.50000     0.1380000    0.0850000   1.172438e-03  2.346713e-06
    416    441   2   0.50000     0.1380000    0.1150000   2.431434e-04  1.541678e-07
    440    419   2   0.50000     0.1150000    0.0850000   2.431434e-04  1.541678e-07
    440    441   2   0.50000     0.1150000    0.1150000   5.042375e-05  1.012808e-08
    417    422   2   0.50000    -0.1150000   -0.1700000   9.038862e-04  9.862632e-07
    441    420   2   0.50000     0.1150000   -0.1150000   2.431434e-04  1.541678e-07
    441    422   2   0.50000     0.1150000   -0.1700000   1.874504e-04  6.479276e-08
    418    442   2   0.50000    -0.1150000    0.1150000   2.431434e-04  1.541678e-07
    422    421   2   0.50000    -0.1700000   -0.1150000   9.038862e-04  9.862632e-07
    422    442   2   0.50000    -0.1700000    0.1150000   1.874504e-04  6.479276e-08
    418    423   2   0.50000    -0.1150000    0.0850000   1.172438e-03  2.346713e-06
    420    423   2   0.50000    -0.1150000    0.0850000   1.172438e-03  2.346713e-06
    419    443   2   0.50000     0.0850000    0.1150000   2.431434e-04  1.541678e-07
    442    416   2   0.50000     0.1150000    0.1380000   2.431434e-04  1.541678e-07
    442    443   2   0.50000     0.1150000    0.1150000   5.042375e-05  1.012808e-08
    419    424   2   0.50000     0.0850000   -0.1150000   1.172438e-03  2.346713e-06
    419    428   2   0.50000     0.0850000   -0.1150000   1.172438e-03  2.346713e-06
    422    425   2   0.50000    -0.1700000   -0.1150000   9.038862e-04  9.862632e-07
    422    444   2   0.50000    -0.1700000    0.1150000   1.874504e-04  6.479276e-08
    428    425   2   0.50000    -0.1150000   -0.1150000   1.172438e-03  2.346713e-06
    428    444   2   0.50000    -0.1150000    0.1150000   2.431434e-04  1.541678e-07
    422    427   2   0.50000    -0.1700000   -0.1150000   9.038862e-04  9.862632e-07
    422    447   2   0.50000    -0.1700000    0.1150000   1.874504e-04  6.479276e-08
    424    427   2   0.50000    -0.1150000   -0.1150000   1.172438e-03  2.346713e-06
    424    447   2   0.50000    -0.1150000    0.1150000   2.431434e-04  1.541678e-07
    423    426   2   0.50000     0.0850000    0.0000000   1.172438e-03  2.346713e-06
    423    445   2   0.50000     0.0850000    0.1150000   2.431434e-04  1.541678e-07
    444    426   2   0.50000     0.1150000    0.0000000   2.431434e-04  1.541678e-07
    444    445   2   0.50000     0.1150000    0.1150000   5.042375e-05  1.012808e-08
    424    429   2   0.50000    -0.1150000    0.0000000   1.172438e-03  2.346713e-06
    445    427   2   0.50000     0.1150000   -0.1150000   2.431434e-04  1.541678e-07
    445    429   2   0.50000     0.1150000    0.0000000   2.431434e-04  1.541678e-07
    425    446   2   0.50000    -0.1150000    0.1150000   2.431434e-04  1.541678e-07
    429    428   2   0.50000     0.0000000   -0.1150000   1.172438e-03  2.346713e-06
    429    446   2   0.50000     0.0000000    0.1150000   2.431434e-04  1.541678e-07
    425    430   2   0.50000    -0.1150000   -0.1150000   1.172438e-03  2.346713e-06
    425    434   2   0.50000    -0.1150000   -0.1150000   1.172438e-03  2.346713e-06
    427    430   2   0.50000    -0.1150000   -0.1150000   1.172438e-03  2.346713e-06
    427    434   2   0.50000    -0.1150000   -0.1150000   1.172438e-03  2.346713e-06
    426    447   2   0.50000     0.0000000    0.1150000   2.431434e-04  1.541678e-07
    446    423   2   0.50000     0.1150000    0.0850000   2.431434e-04  1.541678e-07
    446    447   2   0.50000     0.1150000    0.1150000   5.042375e-05  1.012808e-08
    426    431   2   0.50000     0.0000000   -0.1150000   1.172438e-03  2.346713e-06
    426    448   2   0.50000     0.0000000    0.1150000   2.431434e-04  1.541678e-07
    434    431   2   0.50000    -0.1150000   -0.1150000   1.172438e-03  2.346713e-06
    434    448   2   0.50000    -0.1150000    0.1150000   2.431434e-04  1.541678e-07
    426    433   2   0.50000     0.0000000   -0.1150000   1.172438e-03  2.346713e-06
    426    451   2   0.50000     0.0000000    0.1150000   2.431434e-04  1.541678e-07
    430    433   2   0.50000    -0.1150000   -0.1150000   1.172438e-03  2.346713e-06
    430    451   2   0.50000    -0.1150000    0.1150000   2.431434e-04  1.541678e-07
    429    432   2   0.50000     0.0000000    0.0850000   1.172438e-03  2.346713e-06
    429    449   2   0.50000     0.0000000    0.1150000   2.431434e-04  1.541678e-07
    448    432   2   0.50000     0.1150000    0.0850000   2.431434e-04  1.541678e-07
    448    449   2   0.50000     0.1150000    0.1150000   5.042375e-05  1.012808e-08
    430    435   2   0.50000    -0.1150000   -0.1700000   9.038862e-04  9.862632e-07
    449    433   2   0.50000     0.1150000   -0.1150000   2.431434e-04  1.541678e-07
    449    435   2   0.50000     0.1150000   -0.1700000   1.874504e-04  6.479276e-08
    431    450   2   0.50000    -0.1150000    0.1150000   2.431434e-04  1.541678e-07
    435    434   2   0.50000    -0.1700000   -0.1150000   9.038862e-04  9.862632e-07
    435    450   2   0.50000    -0.1700000    0.1150000   1.874504e-04  6.479276e-08
    431    452   2   0.50000    -0.1150000    0.0850000   1.172438e-03  2.346713e-06
    433    452   2   0.50000    -0.1150000    0.0850000   1.172438e-03  2.346713e-06
    432    451   2   0.50000     0.0850000    0.1150000   2.431434e-04  1.541678e-07
    450    429   2   0.50000     0.1150000    0.0000000   2.431434e-04  1.541678e-07
    450    451   2   0.50000     0.1150000    0.1150000   5.042375e-05  1.012808e-08
    432    453   2   0.50000     0.0850000   -0.1150000   1.172438e-03  2.346713e-06
    432    457   2   0.50000     0.0850000   -0.1150000   1.172438e-03  2.346713e-06
    435    454   2   0.50000    -0.1700000   -0.1150000   9.038862e-04  9.862632e-07
    435    481   2   0.50000    -0.1700000    0.1150000   1.874504e-04  6.479276e-08
    457    454   2   0.50000    -0.1150000   -0.1150000   1.172438e-03  2.346713e-06
    457    481   2   0.50000    -0.1150000    0.1150000   2.431434e-04  1.541678e-07
    435    456   2   0.50000    -0.1700000   -0.1150000   9.038862e-04  9.862632e-07
    435    484   2   0.50000    -0.1700000    0.1150000   1.874504e-04  6.479276e-08
    453    456   2   0.50000    -0.1150000   -0.1150000   1.172438e-03  2.346713e-06
    453    484   2   0.50000    -0.1150000    0.1150000   2.431434e-04  1.541678e-07
    452    455   2   0.50000     0.0850000    0.1380000   1.172438e-03  2.346713e-06
    452    482   2   0.50000     0.0850000    0.1150000   2.431434e-04  1.541678e-07
    481    455   2   0.50000     0.1150000    0.1380000   2.431434e-04  1.541678e-07
    481    482   2   0.50000     0.1150000    0.1150000   5.042375e-05  1.012808e-08
    453    458   2   0.50000    -0.1150000    0.7840000   2.215699e-03  4.434870e-06
    482    456   2   0.50000     0.1150000   -0.1150000   2.431434e-04  1.541678e-07
    482    458   2   0.50000     0.1150000    0.7840000   4.594978e-04  2.913497e-07
    454    483   2   0.50000    -0.1150000    0.1150000   2.431434e-04  1.541678e-07
    458    457   2   0.50000     0.7840000   -0.1150000   2.215699e-03  4.434870e-06
    458    483   2   0.50000     0.7840000    0.1150000   4.594978e-04  2.913497e-07
    454    459   2   0.50000    -0.1150000   -0.5300000   1.059145e-03  1.228897e-06
    454    460   2   0.50000    -0.1150000   -0.5300000   1.059145e-03  1.228897e-06
    454    461   2   0.50000    -0.1150000    0.1380000   1.172438e-03  2.346713e-06
    456    459   2   0.50000    -0.1150000   -0.5300000   1.059145e-03  1.228897e-06
    456    460   2   0.50000    -0.1150000   -0.5300000   1.059145e-03  1.228897e-06
    456    461   2   0.50000    -0.1150000    0.1380000   1.172438e-03  2.346713e-06
    455    484   2   0.50000     0.1380000    0.1150000   2.431434e-04  1.541678e-07
    483    452   2   0.50000     0.1150000    0.0850000   2.431434e-04  1.541678e-07
    483    484   2   0.50000     0.1150000    0.1150000   5.042375e-05  1.012808e-08
    455    462   2   0.50000     0.1380000   -0.1150000   1.172438e-03  2.346713e-06
    455    466   2   0.50000     0.1380000   -0.1150000   1.172438e-03  2.346713e-06
    459    462   2   0.50000    -0.5300000   -0.1150000   1.059145e-03  1.228897e-06
    459    466   2   0.50000    -0.5300000   -0.1150000   1.059145e-03  1.228897e-06
    460    462   2   0.50000    -0.5300000   -0.1150000   1.059145e-03  1.228897e-06
    460    466   2   0.50000    -0.5300000   -0.1150000   1.059145e-03  1.228897e-06
    458    463   2   0.50000     0.7840000   -0.1150000   2.215699e-03  4.434870e-06
    458    485   2   0.50000     0.7840000    0.1150000   4.594978e-04  2.913497e-07
    466    463   2   0.50000    -0.1150000   -0.1150000   1.172438e-03  2.346713e-06
    466    485   2   0.50000    -0.1150000    0.1150000   2.431434e-04  1.541678e-07
    458    465   2   0.50000     0.7840000   -0.1150000   2.215699e-03  4.434870e-06
    458    488   2   0.50000     0.7840000    0.1150000   4.594978e-04  2.913497e-07
    462    465   2   0.50000    -0.1150000   -0.1150000   1.172438e-03  2.346713e-06
    462    488   2   0.50000    -0.1150000    0.1150000   2.431434e-04  1.541678e-07
    461    464   2   0.50000     0.1380000    0.0850000   1.172438e-03  2.346713e-06
    461    486   2   0.50000     0.1380000    0.1150000   2.431434e-04  1.541678e-07
    485    464   2   0.50000     0.1150000    0.0850000   2.431434e-04  1.541678e-07
    485    486   2   0.50000     0.1150000    0.1150000   5.042375e-05  1.012808e-08
    462    467   2   0.50000    -0.1150000   -0.1700000   9.038862e-04  9.862632e-07
    486    465   2   0.50000     0.1150000   -0.1150000   2.431434e-04  1.541678e-07
    486    467   2   0.50000     0.1150000   -0.1700000   1.874504e-04  6.479276e-08
    463    487   2   0.50000    -0.1150000    0.1150000   2.431434e-04  1.541678e-07
    467    466   2   0.50000    -0.1700000   -0.1150000   9.038862e-04  9.862632e-07
    467    487   2   0.50000    -0.1700000    0.1150000   1.874504e-04  6.479276e-08
    463    468   2   0.50000    -0.1150000    0.0850000   1.172438e-03  2.346713e-06
    465    468   2   0.50000    -0.1150000    0.0850000   1.172438e-03  2.346713e-06
    464    488   2   0.50000     0.0850000    0.1150000   2.431434e-04  1.541678e-07
    487    461   2   0.50000     0.1150000    0.1380000   2.431434e-04  1.541678e-07
    487    488   2   0.50000     0.1150000    0.1150000   5.042375e-05  1.012808e-08
    464    469   2   0.50000     0.0850000   -0.1150000   1.172438e-03  2.346713e-06
    464    473   2   0.50000     0.0850000   -0.1150000   1.172438e-03  2.346713e-06
    467    470   2   0.50000    -0.1700000   -0.1150000   9.038862e-04  9.862632e-07
    467    489   2   0.50000    -0.1700000    0.1150000   1.874504e-04  6.479276e-08
    473    470   2   0.50000    -0.1150000   -0.1150000   1.172438e-03  2.346713e-06
    473    489   2   0.50000    -0.1150000    0.1150000   2.431434e-04  1.541678e-07
    467    472   2   0.50000    -0.1700000   -0.1150000   9.038862e-04  9.862632e-07
    467    492   2   0.50000    -0.1700000    0.1150000   1.874504e-04  6.479276e-08
    469    472   2   0.50000    -0.1150000   -0.1150000   1.172438e-03  2.346713e-06
    469    492   2   0.50000    -0.1150000    0.1150000   2.431434e-04  1.541678e-07
    468    471   2   0.50000     0.0850000    0.0000000   1.172438e-03  2.346713e-06
    468    490   2   0.50000     0.0850000    0.1150000   2.431434e-04  1.541678e-07
    489    471   2   0.50000     0.1150000    0.0000000   2.431434e-04  1.541678e-07
    489    490   2   0.50000     0.1150000    0.1150000   5.042375e-05  1.012808e-08
    469    474   2   0.50000    -0.1150000    0.0000000   1.172438e-03  2.346713e-06
    490    472   2   0.50000     0.1150000   -0.1150000   2.431434e-04  1.541678e-07
    490    474   2   0.50000     0.1150000    0.0000000   2.431434e-04  1.541678e-07
    470    491   2   0.50000    -0.1150000    0.1150000   2.431434e-04  1.541678e-07
    474    473   2   0.50000     0.0000000   -0.1150000   1.172438e-03  2.346713e-06
    474    491   2   0.50000     0.0000000    0.1150000   2.431434e-04  1.541678e-07
    470    475   2   0.50000    -0.1150000   -0.1150000   1.172438e-03  2.346713e-06
    470    479   2   0.50000    -0.1150000   -0.1150000   1.172438e-03  2.346713e-06
    472    475   2   0.50000    -0.1150000   -0.1150000   1.172438e-03  2.346713e-06
    472    479   2   0.50000    -0.1150000   -0.1150000   1.172438e-03  2.346713e-06
    471    492   2   0.50000     0.0000000    0.1150000   2.431434e-04  1.541678e-07
    491    468   2   0.50000     0.1150000    0.0850000   2.431434e-04  1.541678e-07
    491    492   2   0.50000     0.1150000    0.1150000   5.042375e-05  1.012808e-08
    471    476   2   0.50000     0.0000000   -0.1150000   1.172438e-03  2.346713e-06
    471    493   2   0.50000     0.0000000    0.1150000   2.431434e-04  1.541678e-07
    479    476   2   0.50000    -0.1150000   -0.1150000   1.172438e-03  2.346713e-06
    479    493   2   0.50000    -0.1150000    0.1150000   2.431434e-04  1.541678e-07
    471    478   2   0.50000     0.0000000   -0.1150000   1.172438e-03  2.346713e-06
    471    496   2   0.50000     0.0000000    0.1150000   2.431434e-04  1.541678e-07
    475    478   2   0.50000    -0.1150000   -0.1150000   1.172438e-03  2.346713e-06
    475    496   2   0.50000    -0.1150000    0.1150000   2.431434e-04  1.541678e-07
    474    477   2   0.50000     0.0000000    0.0850000   1.172438e-03  2.346713e-06
    474    494   2   0.50000     0.0000000    0.1150000   2.431434e-04  1.541678e-07
    493    477   2   0.50000     0.1150000    0.0850000   2.431434e-04  1.541678e-07
    493    494   2   0.50000     0.1150000    0.1150000   5.042375e-05  1.012808e-08
    475    480   2   0.50000    -0.1150000   -0.1700000   9.038862e-04  9.862632e-07
    494    478   2   0.50000     0.1150000   -0.1150000   2.431434e-04  1.541678e-07
    494    480   2   0.50000     0.1150000   -0.1700000   1.874504e-04  6.479276e-08
    476    495   2   0.50000    -0.1150000    0.1150000   2.431434e-04  1.541678e-07
    480    479   2   0.50000    -0.1700000   -0.1150000   9.038862e-04  9.862632e-07
    480    495   2   0.50000    -0.1700000    0.1150000   1.874504e-04  6.479276e-08
    476    497   2   0.50000    -0.1150000    0.0850000   1.172438e-03  2.346713e-06
    478    497   2   0.50000    -0.1150000    0.0850000   1.172438e-03  2.346713e-06
    477    496   2   0.50000     0.0850000    0.1150000   2.431434e-04  1.541678e-07
    495    474   2   0.50000     0.1150000    0.0000000   2.431434e-04  1.541678e-07
    495    496   2   0.50000     0.1150000    0.1150000   5.042375e-05  1.012808e-08
    477    498   2   0.50000     0.0850000   -0.1150000   1.172438e-03  2.346713e-06
    477    502   2   0.50000     0.0850000   -0.1150000   1.172438e-03  2.346713e-06
    480    499   2   0.50000    -0.1700000   -0.1150000   9.038862e-04  9.862632e-07
    480    526   2   0.50000    -0.1700000    0.1150000   1.874504e-04  6.479276e-08
    502    499   2   0.50000    -0.1150000   -0.1150000   1.172438e-03  2.346713e-06
    502    526   2   0.50000    -0.1150000    0.1150000   2.431434e-04  1.541678e-07
    480    501   2   0.50000    -0.1700000   -0.1150000   9.038862e-04  9.862632e-07
    480    529   2   0.50000    -0.1700000    0.1150000   1.874504e-04  6.479276e-08
    498    501   2   0.50000    -0.1150000   -0.1150000   1.172438e-03  2.346713e-06
    498    529   2   0.50000    -0.1150000    0.1150000   2.431434e-04  1.541678e-07
    497    500   2   0.50000     0.0850000    0.1380000   1.172438e-03  2.346713e-06
    497    527   2   0.50000     0.0850000    0.1150000   2.431434e-04  1.541678e-07
    526    500   2   0.50000     0.1150000    0.1380000   2.431434e-04  1.541678e-07
    526    527   2   0.50000     0.1150000    0.1150000   5.042375e-05  1.012808e-08
    498    503   2   0.50000    -0.1150000    0.7840000   2.215699e-03  4.434870e-06
    527    501   2   0.50000     0.1150000   -0.1150000   2.431434e-04  1.541678e-07
    527    503   2   0.50000     0.1150000    0.7840000   4.594978e-04  2.913497e-07
    499    528   2   0.50000    -0.1150000    0.1150000   2.431434e-04  1.541678e-07
    503    502   2   0.50000     0.7840000   -0.1150000   2.215699e-03  4.434870e-06
    503    528   2   0.50000     0.7840000    0.1150000   4.594978e-04  2.913497e-07
    499    504   2   0.50000    -0.1150000   -0.5300000   1.059145e-03  1.228897e-06
    499    505   2   0.50000    -0.1150000   -0.5300000   1.059145e-03  1.228897e-06
    499    506   2   0.50000    -0.1150000    0.1380000   1.172438e-03  2.346713e-06
    501    504   2   0.50000    -0.1150000   -0.5300000   1.059145e-03  1.228897e-06
    501    505   2   0.50000    -0.1150000   -0.5300000   1.059145e-03  1.228897e-06
    501    506   2   0.50000    -0.1150000    0.1380000   1.172438e-03  2.346713e-06
    500    529   2   0.50000     0.1380000    0.1150000   2.431434e-04  1.541678e-07
    528    497   2   0.50000     0.1150000    0.0850000   2.431434e-04  1.541678e-07
    528    529   2   0.50000     0.1150000    0.1150000   5.042375e-05  1.012808e-08
    500    507   2   0.50000     0.1380000   -0.1150000   1.172438e-03  2.346713e-06
    500    511   2   0.50000     0.1380000   -0.1150000   1.172438e-03  2.346713e-06
    504    507   2   0.50000    -0.5300000   -0.1150000   1.059145e-03  1.228897e-06
    504    511   2   0.50000    -0.5300000   -0.1150000   1.059145e-03  1.228897e-06
    505    507   2   0.50000    -0.5300000   -0.1150000   1.059145e-03  1.228897e-06
    505    511   2   0.50000    -0.5300000   -0.1150000   1.059145e-03  1.228897e-06
    503    508   2   0.50000     0.7840000   -0.1150000   2.215699e-03  4.434870e-06
    503    530   2   0.50000     0.7840000    0.1150000   4.594978e-04  2.913497e-07
    511    508   2   0.50000    -0.1150000   -0.1150000   1.172438e-03  2.346713e-06
    511    530   2   0.50000    -0.1150000    0.1150000   2.431434e-04  1.541678e-07
    503    510   2   0.50000     0.7840000   -0.1150000   2.215699e-03  4.434870e-06
    503    533   2   0.50000     0.7840000    0.1150000   4.594978e-04  2.913497e-07
    507    510   2   0.50000    -0.1150000   -0.1150000   1.172438e-03  2.346713e-06
    507    533   2   0.50000    -0.1150000    0.1150000   2.431434e-04  1.541678e-07
    506    509   2   0.50000     0.1380000    0.0850000   1.172438e-03  2.346713e-06
    506    531   2   0.50000     0.1380000    0.1150000   2.431434e-04  1.541678e-07
    530    509   2   0.50000     0.1150000    0.0850000   2.431434e-04  1.541678e-07
    530    531   2   0.50000     0.1150000    0.1150000   5.042375e-05  1.012808e-08
    507    512   2   0.50000    -0.1150000   -0.1700000   9.038862e-04  9.862632e-07
    531    510   2   0.50000     0.1150000   -0.1150000   2.431434e-04  1.541678e-07
    531    512   2   0.50000     0.1150000   -0.1700000   1.874504e-04  6.479276e-08
    508    532   2   0.50000    -0.1150000    0.1150000   2.431434e-04  1.541678e-07
    512    511   2   0.50000    -0.1700000   -0.1150000   9.038862e-04  9.862632e-07
    512    532   2   0.50000    -0.1700000    0.1150000   1.874504e-04  6.479276e-08
    508    513   2   0.50000    -0.1150000    0.0850000   1.172438e-03  2.346713e-06
    510    513   2   0.50000    -0.1150000    0.0850000   1.172438e-03  2.346713e-06
    509    533   2   0.50000     0.0850000    0.1150000   2.431434e-04  1.541678e-07
    532    506   2   0.50000     0.1150000    0.1380000   2.431434e-04  1.541678e-07
    532    533   2   0.50000     0.1150000    0.1150000   5.042375e-05  1.012808e-08
    509    514   2   0.50000     0.0850000   -0.1150000   1.172438e-03  2.346713e-06
    509    518   2   0.50000     0.0850000   -0.1150000   1.172438e-03  2.346713e-06
    512    515   2   0.50000    -0.1700000   -0.1150000   9.038862e-04  9.862632e-07
    512    534   2   0.50000    -0.1700000    0.1150000   1.874504e-04  6.479276e-08
    518    515   2   0.50000    -0.1150000   -0.1150000   1.172438e-03  2.346713e-06
    518    534   2   0.50000    -0.1150000    0.1150000   2.431434e-04  1.541678e-07
    512    517   2   0.50000    -0.1700000   -0.1150000   9.038862e-04  9.862632e-07
    512    537   2   0.50000    -0.1700000    0.1150000   1.874504e-04  6.479276e-08
    514    517   2   0.50000    -0.1150000   -0.1150000   1.172438e-03  2.346713e-06
    514    537   2   0.50000    -0.1150000    0.1150000   2.431434e-04  1.541678e-07
    513    516   2   0.50000     0.0850000    0.0000000   1.172438e-03  2.346713e-06
    513    535   2   0.50000     0.0850000    0.1150000   2.431434e-04  1.541678e-07
    534    516   2   0.50000     0.1150000    0.0000000   2.431434e-04  1.541678e-07
    534    535   2   0.50000     0.1150000    0.1150000   5.042375e-05  1.012808e-08
    514    519   2   0.50000    -0.1150000    0.0000000   1.172438e-03  2.346713e-06
    535    517   2   0.50000     0.1150000   -0.1150000   2.431434e-04  1.541678e-07
    535    519   2   0.50000     0.1150000    0.0000000   2.431434e-04  1.541678e-07
    515    536   2   0.50000    -0.1150000    0.1150000   2.431434e-04  1.541678e-07
    519    518   2   0.50000     0.0000000   -0.1150000   1.172438e-03  2.346713e-06
    519    536   2   0.50000     0.0000000    0.1150000   2.431434e-04  1.541678e-07
    515    520   2   0.50000    -0.1150000   -0.1150000   1.172438e-03  2.346713e-06
    515    524   2   0.50000    -0.1150000   -0.1150000   1.172438e-03  2.346713e-06
    517    520   2   0.50000    -0.1150000   -0.1150000   1.172438e-03  2.346713e-06
    517    524   2   0.50000    -0.1150000   -0.1150000   1.172438e-03  2.346713e-06
    516    537   2   0.50000     0.0000000    0.1150000   2.431434e-04  1.541678e-07
    536    513   2   0.50000     0.1150000    0.0850000   2.431434e-04  1.541678e-07
    536    537   2   0.50000     0.1150000    0.1150000   5.042375e-05  1.012808e-08
    516    521   2   0.50000     0.0000000   -0.1150000   1.172438e-03  2.346713e-06
    516    538   2   0.50000     0.0000000    0.1150000   2.431434e-04  1.541678e-07
    524    521   2   0.50000    -0.1150000   -0.1150000   1.172438e-03  2.346713e-06
    524    538   2   0.50000    -0.1150000    0.1150000   2.431434e-04  1.541678e-07
    516    523   2   0.50000     0.0000000   -0.1150000   1.172438e-03  2.346713e-06
    516    541   2   0.50000     0.0000000    0.1150000   2.431434e-04  1.541678e-07
    520    523   2   0.50000    -0.1150000   -0.1150000   1.172438e-03  2.346713e-06
    520    541   2   0.50000    -0.1150000    0.1150000   2.431434e-04  1.541678e-07
    519    522   2   0.50000     0.0000000    0.0850000   1.172438e-03  2.346713e-06
    519    539   2   0.50000     0.0000000    0.1150000   2.431434e-04  1.541678e-07
    538    522   2   0.50000     0.1150000    0.0850000   2.431434e-04  1.541678e-07
    538    539   2   0.50000     0.1150000    0.1150000   5.042375e-05  1.012808e-08
    520    525   2   0.50000    -0.1150000   -0.1700000   9.038862e-04  9.862632e-07
    539    523   2   0.50000     0.1150000   -0.1150000   2.431434e-04  1.541678e-07
    539    525   2   0.50000     0.1150000   -0.1700000   1.874504e-04  6.479276e-08
    521    540   2   0.50000    -0.1150000    0.1150000   2.431434e-04  1.541678e-07
    525    524   2   0.50000    -0.1700000   -0.1150000   9.038862e-04  9.862632e-07
    525    540   2   0.50000    -0.1700000    0.1150000   1.874504e-04  6.479276e-08
    521    542   2   0.50000    -0.1150000    0.0850000   1.172438e-03  2.346713e-06
    523    542   2   0.50000    -0.1150000    0.0850000   1.172438e-03  2.346713e-06
    522    541   2   0.50000     0.0850000    0.1150000   2.431434e-04  1.541678e-07
    540    519   2   0.50000     0.1150000    0.0000000   2.431434e-04  1.541678e-07
    540    541   2   0.50000     0.1150000    0.1150000   5.042375e-05  1.012808e-08
    522    543   2   0.50000     0.0850000   -0.1150000   1.172438e-03  2.346713e-06
    522    547   2   0.50000     0.0850000   -0.1150000   1.172438e-03  2.346713e-06
    525    544   2   0.50000    -0.1700000   -0.1150000   9.038862e-04  9.862632e-07
    525    571   2   0.50000    -0.1700000    0.1150000   1.874504e-04  6.479276e-08
    547    544   2   0.50000    -0.1150000   -0.1150000   1.172438e-03  2.346713e-06
    547    571   2   0.50000    -0.1150000    0.1150000   2.431434e-04  1.541678e-07
    525    546   2   0.50000    -0.1700000   -0.1150000   9.038862e-04  9.862632e-07
    525    574   2   0.50000    -0.1700000    0.1150000   1.874504e-04  6.479276e-08
    543    546   2   0.50000    -0.1150000   -0.1150000   1.172438e-03  2.346713e-06
    543    574   2   0.50000    -0.1150000    0.1150000   2.431434e-04  1.541678e-07
    542    545   2   0.50000     0.0850000    0.1380000   1.172438e-03  2.346713e-06
    542    572   2   0.50000     0.0850000    0.1150000   2.431434e-04  1.541678e-07
    571    545   2   0.50000     0.1150000    0.1380000   2.431434e-04  1.541678e-07
    571    572   2   0.50000     0.1150000    0.1150000   5.042375e-05  1.012808e-08
    543    548   2   0.50000    -0.1150000    0.7840000   2.215699e-03  4.434870e-06
    572    546   2   0.50000     0.1150000   -0.1150000   2.431434e-04  1.541678e-07
    572    548   2   0.50000     0.1150000    0.7840000   4.594978e-04  2.913497e-07
    544    573   2   0.50000    -0.1150000    0.1150000   2.431434e-04  1.541678e-07
    548    547   2   0.50000     0.7840000   -0.1150000   2.215699e-03  4.434870e-06
    548    573   2   0.50000     0.7840000    0.1150000   4.594978e-04  2.913497e-07
    544    549   2   0.50000    -0.1150000   -0.5300000   1.059145e-03  1.228897e-06
    544    550   2   0.50000    -0.1150000   -0.5300000   1.059145e-03  1.228897e-06
    544    551   2   0.50000    -0.1150000    0.1380000   1.172438e-03  2.346713e-06
    546    549   2   0.50000    -0.1150000   -0.5300000   1.059145e-03  1.228897e-06
    546    550   2   0.50000    -0.1150000   -0.5300000   1.059145e-03  1.228897e-06
    546    551   2   0.50000    -0.1150000    0.1380000   1.172438e-03  2.346713e-06
    545    574   2   0.50000     0.1380000    0.1150000   2.431434e-04  1.541678e-07
    573    542   2   0.50000     0.1150000    0.0850000   2.431434e-04  1.541678e-07
    573    574   2   0.50000     0.1150000    0.1150000   5.042375e-05  1.012808e-08
    545    552   2   0.50000     0.1380000   -0.1150000   1.172438e-03  2.346713e-06
    545    556   2   0.50000     0.1380000   -0.1150000   1.172438e-03  2.346713e-06
    549    552   2   0.50000    -0.5300000   -0.1150000   1.059145e-03  1.228897e-06
    549    556   2   0.50000    -0.5300000   -0.1150000   1.059145e-03  1.228897e-06
    550    552   2   0.50000    -0.5300000   -0.1150000   1.059145e-03  1.228897e-06
    550    556   2   0.50000    -0.5300000   -0.1150000   1.059145e-03  1.228897e-06
    548    553   2   0.50000     0.7840000   -0.1150000   2.215699e-03  4.434870e-06
    548    575   2   0.50000     0.7840000    0.1150000   4.594978e-04  2.913497e-07
    556    553   2   0.50000    -0.1150000   -0.1150000   1.172438e-03  2.346713e-06
    556    575   2   0.50000    -0.1150000    0.1150000   2.431434e-04  1.541678e-07
    548    555   2   0.50000     0.7840000   -0.1150000   2.215699e-03  4.434870e-06
    548    578   2   0.50000     0.7840000    0.1150000   4.594978e-04  2.913497e-07
    552    555   2   0.50000    -0.1150000   -0.1150000   1.172438e-03  2.346713e-06
    552    578   2   0.50000    -0.1150000    0.1150000   2.431434e-04  1.541678e-07
    551    554   2   0.50000     0.1380000    0.0850000   1.172438e-03  2.346713e-06
    551    576   2   0.50000     0.1380000    0.1150000   2.431434e-04  1.541678e-07
    575    554   2   0.50000     0.1150000    0.0850000   2.431434e-04  1.541678e-07
    575    576   2   0.50000     0.1150000    0.1150000   5.042375e-05  1.012808e-08
    552    557   2   0.50000    -0.1150000   -0.1700000   9.038862e-04  9.862632e-07
    576    555   2   0.50000     0.1150000   -0.1150000   2.431434e-04  1.541678e-07
    576    557   2   0.50000     0.1150000   -0.1700000   1.874504e-04  6.479276e-08
    553    577   2   0.50000    -0.1150000    0.1150000   2.431434e-04  1.541678e-07
    557    556   2   0.50000    -0.1700000   -0.1150000   9.038862e-04  9.862632e-07
    557    577   2   0.50000    -0.1700000    0.1150000   1.874504e-04  6.479276e-08
    553    558   2   0.50000    -0.1150000    0.0850000   1.172438e-03  2.346713e-06
    555    558   2   0.50000    -0.1150000    0.0850000   1.172438e-03  2.346713e-06
    554    578   2   0.50000     0.0850000    0.1150000   2.431434e-04  1.541678e-07
    577    551   2   0.50000     0.1150000    0.1380000   2.431434e-04  1.541678e-07
    577    578   2   0.50000     0.1150000    0.1150000   5.042375e-05  1.012808e-08
    554    559   2   0.50000     0.0850000   -0.1150000   1.172438e-03  2.346713e-06
    554    563   2   0.50000     0.0850000   -0.1150000   1.172438e-03  2.346713e-06
    557    560   2   0.50000    -0.1700000   -0.1150000   9.038862e-04  9.862632e-07
    557    579   2   0.50000    -0.1700000    0.1150000   1.874504e-04  6.479276e-08
    563    560   2   0.50000    -0.1150000   -0.1150000   1.172438e-03  2.346713e-06
    563    579   2   0.50000    -0.1150000    0.1150000   2.431434e-04  1.541678e-07
    557    562   2   0.50000    -0.1700000   -0.1150000   9.038862e-04  9.862632e-07
    557    582   2   0.50000    -0.1700000    0.1150000   1.874504e-04  6.479276e-08
    559    562   2   0.50000    -0.1150000   -0.1150000   1.172438e-03  2.346713e-06
    559    582   2   0.50000    -0.1150000    0.1150000   2.431434e-04  1.541678e-07
    558    561   2   0.50000     0.0850000    0.0000000   1.172438e-03  2.346713e-06
    558    580   2   0.50000     0.0850000    0.1150000   2.431434e-04  1.541678e-07
    579    561   2   0.50000     0.1150000    0.0000000   2.431434e-04  1.541678e-07
    579    580   2   0.50000     0.1150000    0.1150000   5.042375e-05  1.012808e-08
    559    564   2   0.50000    -0.1150000    0.0000000   1.172438e-03  2.346713e-06
    580    562   2   0.50000     0.1150000   -0.1150000   2.431434e-04  1.541678e-07
    580    564   2   0.50000     0.1150000    0.0000000   2.431434e-04  1.541678e-07
    560    581   2   0.50000    -0.1150000    0.1150000   2.431434e-04  1.541678e-07
    564    563   2   0.50000     0.0000000   -0.1150000   1.172438e-03  2.346713e-06
    564    581   2   0.50000     0.0000000    0.1150000   2.431434e-04  1.541678e-07
    560    565   2   0.50000    -0.1150000   -0.1150000   1.172438e-03  2.346713e-06
    560    569   2   0.50000    -0.1150000   -0.1150000   1.172438e-03  2.346713e-06
    562    565   2   0.50000    -0.1150000   -0.1150000   1.172438e-03  2.346713e-06
    562    569   2   0.50000    -0.1150000   -0.1150000   1.172438e-03  2.346713e-06
    561    582   2   0.50000     0.0000000    0.1150000   2.431434e-04  1.541678e-07
    581    558   2   0.50000     0.1150000    0.0850000   2.431434e-04  1.541678e-07
    581    582   2   0.50000     0.1150000    0.1150000   5.042375e-05  1.012808e-08
    561    566   2   0.50000     0.0000000   -0.1150000   1.172438e-03  2.346713e-06
    561    583   2   0.50000     0.0000000    0.1150000   2.431434e-04  1.541678e-07
    569    566   2   0.50000    -0.1150000   -0.1150000   1.172438e-03  2.346713e-06
    569    583   2   0.50000    -0.1150000    0.1150000   2.431434e-04  1.541678e-07
    561    568   2   0.50000     0.0000000   -0.1150000   1.172438e-03  2.346713e-06
    561    586   2   0.50000     0.0000000    0.1150000   2.431434e-04  1.541678e-07
    565    568   2   0.50000    -0.1150000   -0.1150000   1.172438e-03  2.346713e-06
    565    586   2   0.50000    -0.1150000    0.1150000   2.431434e-04  1.541678e-07
    564    567   2   0.50000     0.0000000    0.0850000   1.172438e-03  2.346713e-06
    564    584   2   0.50000     0.0000000    0.1150000   2.431434e-04  1.541678e-07
    583    567   2   0.50000     0.1150000    0.0850000   2.431434e-04  1.541678e-07
    583    584   2   0.50000     0.1150000    0.1150000   5.042375e-05  1.012808e-08
    565    570   2   0.50000    -0.1150000   -0.1700000   9.038862e-04  9.862632e-07
    584    568   2   0.50000     0.1150000   -0.1150000   2.431434e-04  1.541678e-07
    584    570   2   0.50000     0.1150000   -0.1700000   1.874504e-04  6.479276e-08
    566    585   2   0.50000    -0.1150000    0.1150000   2.431434e-04  1.541678e-07
    570    569   2   0.50000    -0.1700000   -0.1150000   9.038862e-04  9.862632e-07
    570    585   2   0.50000    -0.1700000    0.1150000   1.874504e-04  6.479276e-08
    566    587   2   0.50000    -0.1150000    0.0850000   1.172438e-03  2.346713e-06
    568    587   2   0.50000    -0.1150000    0.0850000   1.172438e-03  2.346713e-06
    567    586   2   0.50000     0.0850000    0.1150000   2.431434e-04  1.541678e-07
    585    564   2   0.50000     0.1150000    0.0000000   2.431434e-04  1.541678e-07
    585    586   2   0.50000     0.1150000    0.1150000   5.042375e-05  1.012808e-08
    567    588   2   0.50000     0.0850000   -0.1150000   1.172438e-03  2.346713e-06
    567    592   2   0.50000     0.0850000   -0.1150000   1.172438e-03  2.346713e-06
    570    589   2   0.50000    -0.1700000   -0.1150000   9.038862e-04  9.862632e-07
    570    616   2   0.50000    -0.1700000    0.1150000   1.874504e-04  6.479276e-08
    592    589   2   0.50000    -0.1150000   -0.1150000   1.172438e-03  2.346713e-06
    592    616   2   0.50000    -0.1150000    0.1150000   2.431434e-04  1.541678e-07
    570    591   2   0.50000    -0.1700000   -0.1150000   9.038862e-04  9.862632e-07
    570    619   2   0.50000    -0.1700000    0.1150000   1.874504e-04  6.479276e-08
    588    591   2   0.50000    -0.1150000   -0.1150000   1.172438e-03  2.346713e-06
    588    619   2   0.50000    -0.1150000    0.1150000   2.431434e-04  1.541678e-07
    587    590   2   0.50000     0.0850000    0.1380000   1.172438e-03  2.346713e-06
    587    617   2   0.50000     0.0850000    0.1150000   2.431434e-04  1.541678e-07
    616    590   2   0.50000     0.1150000    0.1380000   2.431434e-04  1.541678e-07
    616    617   2   0.50000     0.1150000    0.1150000   5.042375e-05  1.012808e-08
    588    593   2   0.50000    -0.1150000    0.7840000   2.215699e-03  4.434870e-06
    617    591   2   0.50000     0.1150000   -0.1150000   2.431434e-04  1.541678e-07
    617    593   2   0.50000     0.1150000    0.7840000   4.594978e-04  2.913497e-07
    589    618   2   0.50000    -0.1150000    0.1150000   2.431434e-04  1.541678e-07
    593    592   2   0.50000     0.7840000   -0.1150000   2.215699e-03  4.434870e-06
    593    618   2   0.50000     0.7840000    0.1150000   4.594978e-04  2.913497e-07
    589    594   2   0.50000    -0.1150000   -0.5300000   1.059145e-03  1.228897e-06
    589    595   2   0.50000    -0.1150000   -0.5300000   1.059145e-03  1.228897e-06
    589    596   2   0.50000    -0.1150000    0.1380000   1.172438e-03  2.346713e-06
    591    594   2   0.50000    -0.1150000   -0.5300000   1.059145e-03  1.228897e-06
    591    595   2   0.50000    -0.1150000   -0.5300000   1.059145e-03  1.228897e-06
    591    596   2   0.50000    -0.1150000    0.1380000   1.172438e-03  2.346713e-06
    590    619   2   0.50000     0.1380000    0.1150000   2.431434e-04  1.541678e-07
    618    587   2   0.50000     0.1150000    0.0850000   2.431434e-04  1.541678e-07
    618    619   2   0.50000     0.1150000    0.1150000   5.042375e-05  1.012808e-08
    590    597   2   0.50000     0.1380000   -0.1150000   1.172438e-03  2.346713e-06
    590    601   2   0.50000     0.1380000   -0.1150000   1.172438e-03  2.346713e-06
    594    597   2   0.50000    -0.5300000   -0.1150000   1.059145e-03  1.228897e-06
    594    601   2   0.50000    -0.5300000   -0.1150000   1.059145e-03  1.228897e-06
    595    597   2   0.50000    -0.5300000   -0.1150000   1.059145e-03  1.228897e-06
    595    601   2   0.50000    -0.5300000   -0.1150000   1.059145e-03  1.228897e-06
    593    598   2   0.50000     0.7840000   -0.1150000   2.215699e-03  4.434870e-06
    593    620   2   0.50000     0.7840000    0.1150000   4.594978e-04  2.913497e-07
    601    598   2   0.50000    -0.1150000   -0.1150000   1.172438e-03  2.346713e-06
    601    620   2   0.50000    -0.1150000    0.1150000   2.431434e-04  1.541678e-07
    593    600   2   0.50000     0.7840000   -0.1150000   2.215699e-03  4.434870e-06
    593    623   2   0.50000     0.7840000    0.1150000   4.594978e-04  2.913497e-07
    597    600   2   0.50000    -0.1150000   -0.1150000   1.172438e-03  2.346713e-06
    597    623   2   0.50000    -0.1150000    0.1150000   2.431434e-04  1.541678e-07
    596    599   2   0.50000     0.1380000    0.0850000   1.172438e-03  2.346713e-06
    596    621   2   0.50000     0.1380000    0.1150000   2.431434e-04  1.541678e-07
    620    599   2   0.50000     0.1150000    0.0850000   2.431434e-04  1.541678e-07
    620    621   2   0.50000     0.1150000    0.1150000   5.042375e-05  1.012808e-08
    597    602   2   0.50000    -0.1150000   -0.1700000   9.038862e-04  9.862632e-07
    621    600   2   0.50000     0.1150000   -0.1150000   2.431434e-04  1.541678e-07
    621    602   2   0.50000     0.1150000   -0.1700000   1.874504e-04  6.479276e-08
    598    622   2   0.50000    -0.1150000    0.1150000   2.431434e-04  1.541678e-07
    602    601   2   0.50000    -0.1700000   -0.1150000   9.038862e-04  9.862632e-07
    602    622   2   0.50000    -0.1700000    0.1150000   1.874504e-04  6.479276e-08
    598    603   2   0.50000    -0.1150000    0.0850000   1.172438e-03  2.346713e-06
    600    603   2   0.50000    -0.1150000    0.0850000   1.172438e-03  2.346713e-06
    599    623   2   0.50000     0.0850000    0.1150000   2.431434e-04  1.541678e-07
    622    596   2   0.50000     0.1150000    0.1380000   2.431434e-04  1.541678e-07
    622    623   2   0.50000     0.1150000    0.1150000   5.042375e-05  1.012808e-08
    599    604   2   0.50000     0.0850000   -0.1150000   1.172438e-03  2.346713e-06
    599    608   2   0.50000     0.0850000   -0.1150000   1.172438e-03  2.346713e-06
    602    605   2   0.50000    -0.1700000   -0.1150000   9.038862e-04  9.862632e-07
    602    624   2   0.50000    -0.1700000    0.1150000   1.874504e-04  6.479276e-08
    608    605   2   0.50000    -0.1150000   -0.1150000   1.172438e-03  2.346713e-06
    608    624   2   0.50000    -0.1150000    0.1150000   2.431434e-04  1.541678e-07
    602    607   2   0.50000    -0.1700000   -0.1150000   9.038862e-04  9.862632e-07
    602    627   2   0.50000    -0.1700000    0.1150000   1.874504e-04  6.479276e-08
    604    607   2   0.50000    -0.1150000   -0.1150000   1.172438e-03  2.346713e-06
    604    627   2   0.50000    -0.1150000    0.1150000   2.431434e-04  1.541678e-07
    603    606   2   0.50000     0.0850000    0.0000000   1.172438e-03  2.346713e-06
    603    625   2   0.50000     0.0850000    0.1150000   2.431434e-04  1.541678e-07
    624    606   2   0.50000     0.1150000    0.0000000   2.431434e-04  1.541678e-07
    624    625   2   0.50000     0.1150000    0.1150000   5.042375e-05  1.012808e-08
    604    609   2   0.50000    -0.1150000    0.0000000   1.172438e-03  2.346713e-06
    625    607   2   0.50000     0.1150000   -0.1150000   2.431434e-04  1.541678e-07
    625    609   2   0.50000     0.1150000    0.0000000   2.431434e-04  1.541678e-07
    605    626   2   0.50000    -0.1150000    0.1150000   2.431434e-04  1.541678e-07
    609    608   2   0.50000     0.0000000   -0.1150000   1.172438e-03  2.346713e-06
    609    626   2   0.50000     0.0000000    0.1150000   2.431434e-04  1.541678e-07
    605    610   2   0.50000    -0.1150000   -0.1150000   1.172438e-03  2.346713e-06
    605    614   2   0.50000    -0.1150000   -0.1150000   1.172438e-03  2.346713e-06
    607    610   2   0.50000    -0.1150000   -0.1150000   1.172438e-03  2.346713e-06
    607    614   2   0.50000    -0.1150000   -0.1150000   1.172438e-03  2.346713e-06
    606    627   2   0.50000     0.0000000    0.1150000   2.431434e-04  1.541678e-07
    626    603   2   0.50000     0.1150000    0.0850000   2.431434e-04  1.541678e-07
    626    627   2   0.50000     0.1150000    0.1150000   5.042375e-05  1.012808e-08
    606    611   2   0.50000     0.0000000   -0.1150000   1.172438e-03  2.346713e-06
    606    628   2   0.50000     0.0000000    0.1150000   2.431434e-04  1.541678e-07
    614    611   2   0.50000    -0.1150000   -0.1150000   1.172438e-03  2.346713e-06
    614    628   2   0.50000    -0.1150000    0.1150000   2.431434e-04  1.541678e-07
    606    613   2   0.50000     0.0000000   -0.1150000   1.172438e-03  2.346713e-06
    606    631   2   0.50000     0.0000000    0.1150000   2.431434e-04  1.541678e-07
    610    613   2   0.50000    -0.1150000   -0.1150000   1.172438e-03  2.346713e-06
    610    631   2   0.50000    -0.1150000    0.1150000   2.431434e-04  1.541678e-07
    609    612   2   0.50000     0.0000000    0.0850000   1.172438e-03  2.346713e-06
    609    629   2   0.50000     0.0000000    0.1150000   2.431434e-04  1.541678e-07
    628    612   2   0.50000     0.1150000    0.0850000   2.431434e-04  1.541678e-07
    628    629   2   0.50000     0.1150000    0.1150000   5.042375e-05  1.012808e-08
    610    615   2   0.50000    -0.1150000   -0.1700000   9.038862e-04  9.862632e-07
    629    613   2   0.50000     0.1150000   -0.1150000   2.431434e-04  1.541678e-07
    629    615   2   0.50000     0.1150000   -0.1700000   1.874504e-04  6.479276e-08
    611    630   2   0.50000    -0.1150000    0.1150000   2.431434e-04  1.541678e-07
    615    614   2   0.50000    -0.1700000   -0.1150000   9.038862e-04  9.862632e-07
    615    630   2   0.50000    -0.1700000    0.1150000   1.874504e-04  6.479276e-08
    611    632   2   0.50000    -0.1150000    0.0850000   1.172438e-03  2.346713e-06
    613    632   2   0.50000    -0.1150000    0.0850000   1.172438e-03  2.346713e-06
    612    631   2   0.50000     0.0850000    0.1150000   2.431434e-04  1.541678e-07
    630    609   2   0.50000     0.1150000    0.0000000   2.431434e-04  1.541678e-07
    630    631   2   0.50000     0.1150000    0.1150000   5.042375e-05  1.012808e-08
    612    633   2   0.50000     0.0850000   -0.1150000   1.172438e-03  2.346713e-06
    612    637   2   0.50000     0.0850000   -0.1150000   1.172438e-03  2.346713e-06
    615    634   2   0.50000    -0.1700000   -0.1150000   9.038862e-04  9.862632e-07
    615    661   2   0.50000    -0.1700000    0.1150000   1.874504e-04  6.479276e-08
    637    634   2   0.50000    -0.1150000   -0.1150000   1.172438e-03  2.346713e-06
    637    661   2   0.50000    -0.1150000    0.1150000   2.431434e-04  1.541678e-07
    615    636   2   0.50000    -0.1700000   -0.1150000   9.038862e-04  9.862632e-07
    615    664   2   0.50000    -0.1700000    0.1150000   1.874504e-04  6.479276e-08
    633    636   2   0.50000    -0.1150000   -0.1150000   1.172438e-03  2.346713e-06
    633    664   2   0.50000    -0.1150000    0.1150000   2.431434e-04  1.541678e-07
    632    635   2   0.50000     0.0850000    0.1380000   1.172438e-03  2.346713e-06
    632    662   2   0.50000     0.0850000    0.1150000   2.431434e-04  1.541678e-07
    661    635   2   0.50000     0.1150000    0.1380000   2.431434e-04  1.541678e-07
    661    662   2   0.50000     0.1150000    0.1150000   5.042375e-05  1.012808e-08
    633    638   2   0.50000    -0.1150000    0.7840000   2.215699e-03  4.434870e-06
    662    636   2   0.50000     0.1150000   -0.1150000   2.431434e-04  1.541678e-07
    662    638   2   0.50000     0.1150000    0.7840000   4.594978e-04  2.913497e-07
    634    663   2   0.50000    -0.1150000    0.1150000   2.431434e-04  1.541678e-07
    638    637   2   0.50000     0.7840000   -0.1150000   2.215699e-03  4.434870e-06
    638    663   2   0.50000     0.7840000    0.1150000   4.594978e-04  2.913497e-07
    634    639   2   0.50000    -0.1150000   -0.5300000   1.059145e-03  1.228897e-06
    634    640   2   0.50000    -0.1150000   -0.5300000   1.059145e-03  1.228897e-06
    634    641   2   0.50000    -0.1150000    0.1380000   1.172438e-03  2.346713e-06
    636    639   2   0.50000    -0.1150000   -0.5300000   1.059145e-03  1.228897e-06
    636    640   2   0.50000    -0.1150000   -0.5300000   1.059145e-03  1.228897e-06
    636    641   2   0.50000    -0.1150000    0.1380000   1.172438e-03  2.346713e-06
    635    664   2   0.50000     0.1380000    0.1150000   2.431434e-04  1.541678e-07
    663    632   2   0.50000     0.1150000    0.0850000   2.431434e-04  1.541678e-07
    663    664   2   0.50000     0.1150000    0.1150000   5.042375e-05  1.012808e-08
    635    642   2   0.50000     0.1380000   -0.1150000   1.172438e-03  2.346713e-06
    635    646   2   0.50000     0.1380000   -0.1150000   1.172438e-03  2.346713e-06
    639    642   2   0.50000    -0.5300000   -0.1150000   1.059145e-03  1.228897e-06
    639    646   2   0.50000    -0.5300000   -0.1150000   1.059145e-03  1.228897e-06
    640    642   2   0.50000    -0.5300000   -0.1150000   1.059145e-03  1.228897e-06
    640    646   2   0.50000    -0.5300000   -0.1150000   1.059145e-03  1.228897e-06
    638    643   2   0.50000     0.7840000   -0.1150000   2.215699e-03  4.434870e-06
    638    665   2   0.50000     0.7840000    0.1150000   4.594978e-04  2.913497e-07
    646    643   2   0.50000    -0.1150000   -0.1150000   1.172438e-03  2.346713e-06
    646    665   2   0.50000    -0.1150000    0.1150000   2.431434e-04  1.541678e-07
    638    645   2   0.50000     0.7840000   -0.1150000   2.215699e-03  4.434870e-06
    638    668   2   0.50000     0.7840000    0.1150000   4.594978e-04  2.913497e-07
    642    645   2   0.50000    -0.1150000   -0.1150000   1.172438e-03  2.346713e-06
    642    668   2   0.50000    -0.1150000    0.1150000   2.431434e-04  1.541678e-07
    641    644   2   0.50000     0.1380000    0.0850000   1.172438e-03  2.346713e-06
    641    666   2   0.50000     0.1380000    0.1150000   2.431434e-04  1.541678e-07
    665    644   2   0.50000     0.1150000    0.0850000   2.431434e-04  1.541678e-07
    665    666   2   0.50000     0.1150000    0.1150000   5.042375e-05  1.012808e-08
    642    647   2   0.50000    -0.1150000   -0.1700000   9.038862e-04  9.862632e-07
    666    645   2   0.50000     0.1150000   -0.1150000   2.431434e-04  1.541678e-07
    666    647   2   0.50000     0.1150000   -0.1700000   1.874504e-04  6.479276e-08
    643    667   2   0.50000    -0.1150000    0.1150000   2.431434e-04  1.541678e-07
    647    646   2   0.50000    -0.1700000   -0.1150000   9.038862e-04  9.862632e-07
    647    667   2   0.50000    -0.1700000    0.1150000   1.874504e-04  6.479276e-08
    643    648   2   0.50000    -0.1150000    0.0850000   1.172438e-03  2.346713e-06
    645    648   2   0.50000    -0.1150000    0.0850000   1.172438e-03  2.346713e-06
    644    668   2   0.50000     0.0850000    0.1150000   2.431434e-04  1.541678e-07
    667    641   2   0.50000     0.1150000    0.1380000   2.431434e-04  1.541678e-07
    667    668   2   0.50000     0.1150000    0.1150000   5.042375e-05  1.012808e-08
    644    649   2   0.50000     0.0850000   -0.1150000   1.172438e-03  2.346713e-06
    644    653   2   0.50000     0.0850000   -0.1150000   1.172438e-03  2.346713e-06
    647    650   2   0.50000    -0.1700000   -0.1150000   9.038862e-04  9.862632e-07
    647    669   2   0.50000    -0.1700000    0.1150000   1.874504e-04  6.479276e-08
    653    650   2   0.50000    -0.1150000   -0.1150000   1.172438e-03  2.346713e-06
    653    669   2   0.50000    -0.1150000    0.1150000   2.431434e-04  1.541678e-07
    647    652   2   0.50000    -0.1700000   -0.1150000   9.038862e-04  9.862632e-07
    647    672   2   0.50000    -0.1700000    0.1150000   1.874504e-04  6.479276e-08
    649    652   2   0.50000    -0.1150000   -0.1150000   1.172438e-03  2.346713e-06
    649    672   2   0.50000    -0.1150000    0.1150000   2.431434e-04  1.541678e-07
    648    651   2   0.50000     0.0850000    0.0000000   1.172438e-03  2.346713e-06
    648    670   2   0.50000     0.0850000    0.1150000   2.431434e-04  1.541678e-07
    669    651   2   0.50000     0.1150000    0.0000000   2.431434e-04  1.541678e-07
    669    670   2   0.50000     0.1150000    0.1150000   5.042375e-05  1.012808e-08
    649    654   2   0.50000    -0.1150000    0.0000000   1.172438e-03  2.346713e-06
    670    652   2   0.50000     0.1150000   -0.1150000   2.431434e-04  1.541678e-07
    670    654   2   0.50000     0.1150000    0.0000000   2.431434e-04  1.541678e-07
    650    671   2   0.50000    -0.1150000    0.1150000   2.431434e-04  1.541678e-07
    654    653   2   0.50000     0.0000000   -0.1150000   1.172438e-03  2.346713e-06
    654    671   2   0.50000     0.0000000    0.1150000   2.431434e-04  1.541678e-07
    650    655   2   0.50000    -0.1150000   -0.1150000   1.172438e-03  2.346713e-06
    650    659   2   0.50000    -0.1150000   -0.1150000   1.172438e-03  2.346713e-06
    652    655   2   0.50000    -0.1150000   -0.1150000   1.172438e-03  2.346713e-06
    652    659   2   0.50000    -0.1150000   -0.1150000   1.172438e-03  2.346713e-06
    651    672   2   0.50000     0.0000000    0.1150000   2.431434e-04  1.541678e-07
    671    648   2   0.50000     0.1150000    0.0850000   2.431434e-04  1.541678e-07
    671    672   2   0.50000     0.1150000    0.1150000   5.042375e-05  1.012808e-08
    651    656   2   0.50000     0.0000000   -0.1150000   1.172438e-03  2.346713e-06
    651    673   2   0.50000     0.0000000    0.1150000   2.431434e-04  1.541678e-07
    659    656   2   0.50000    -0.1150000   -0.1150000   1.172438e-03  2.346713e-06
    659    673   2   0.50000    -0.1150000    0.1150000   2.431434e-04  1.541678e-07
    651    658   2   0.50000     0.0000000   -0.1150000   1.172438e-03  2.346713e-06
    651    676   2   0.50000     0.0000000    0.1150000   2.431434e-04  1.541678e-07
    655    658   2   0.50000    -0.1150000   -0.1150000   1.172438e-03  2.346713e-06
    655    676   2   0.50000    -0.1150000    0.1150000   2.431434e-04  1.541678e-07
    654    657   2   0.50000     0.0000000    0.0850000   1.172438e-03  2.346713e-06
    654    674   2   0.50000     0.0000000    0.1150000   2.431434e-04  1.541678e-07
    673    657   2   0.50000     0.1150000    0.0850000   2.431434e-04  1.541678e-07
    673    674   2   0.50000     0.1150000    0.1150000   5.042375e-05  1.012808e-08
    655    660   2   0.50000    -0.1150000   -0.1700000   9.038862e-04  9.862632e-07
    674    658   2   0.50000     0.1150000   -0.1150000   2.431434e-04  1.541678e-07
    674    660   2   0.50000     0.1150000   -0.1700000   1.874504e-04  6.479276e-08
    656    675   2   0.50000    -0.1150000    0.1150000   2.431434e-04  1.541678e-07
    660    659   2   0.50000    -0.1700000   -0.1150000   9.038862e-04  9.862632e-07
    660    675   2   0.50000    -0.1700000    0.1150000   1.874504e-04  6.479276e-08
    656    677   2   0.50000    -0.1150000    0.0850000   1.172438e-03  2.346713e-06
    658    677   2   0.50000    -0.1150000    0.0850000   1.172438e-03  2.346713e-06
    657    676   2   0.50000     0.0850000    0.1150000   2.431434e-04  1.541678e-07
    675    654   2   0.50000     0.1150000    0.0000000   2.431434e-04  1.541678e-07
    675    676   2   0.50000     0.1150000    0.1150000   5.042375e-05  1.012808e-08
    657    678   2   0.50000     0.0850000   -0.1150000   1.172438e-03  2.346713e-06
    657    682   2   0.50000     0.0850000   -0.1150000   1.172438e-03  2.346713e-06
    660    679   2   0.50000    -0.1700000   -0.1150000   9.038862e-04  9.862632e-07
    660    706   2   0.50000    -0.1700000    0.1150000   1.874504e-04  6.479276e-08
    682    679   2   0.50000    -0.1150000   -0.1150000   1.172438e-03  2.346713e-06
    682    706   2   0.50000    -0.1150000    0.1150000   2.431434e-04  1.541678e-07
    660    681   2   0.50000    -0.1700000   -0.1150000   9.038862e-04  9.862632e-07
    660    709   2   0.50000    -0.1700000    0.1150000   1.874504e-04  6.479276e-08
    678    681   2   0.50000    -0.1150000   -0.1150000   1.172438e-03  2.346713e-06
    678    709   2   0.50000    -0.1150000    0.1150000   2.431434e-04  1.541678e-07
    677    680   2   0.50000     0.0850000    0.1380000   1.172438e-03  2.346713e-06
    677    707   2   0.50000     0.0850000    0.1150000   2.431434e-04  1.541678e-07
    706    680   2   0.50000     0.1150000    0.1380000   2.431434e-04  1.541678e-07
    706    707   2   0.50000     0.1150000    0.1150000   5.042375e-05  1.012808e-08
    678    683   2   0.50000    -0.1150000    0.7840000   2.215699e-03  4.434870e-06
    707    681   2   0.50000     0.1150000   -0.1150000   2.431434e-04  1.541678e-07
    707    683   2   0.50000     0.1150000    0.7840000   4.594978e-04  2.913497e-07
    679    708   2   0.50000    -0.1150000    0.1150000   2.431434e-04  1.541678e-07
    683    682   2   0.50000     0.7840000   -0.1150000   2.215699e-03  4.434870e-06
    683    708   2   0.50000     0.7840000    0.1150000   4.594978e-04  2.913497e-07
    679    684   2   0.50000    -0.1150000   -0.5300000   1.059145e-03  1.228897e-06
    679    685   2   0.50000    -0.1150000   -0.5300000   1.059145e-03  1.228897e-06
    679    686   2   0.50000    -0.1150000    0.1380000   1.172438e-03  2.346713e-06
    681    684   2   0.50000    -0.1150000   -0.5300000   1.059145e-03  1.228897e-06
    681    685   2   0.50000    -0.1150000   -0.5300000   1.059145e-03  1.228897e-06
    681    686   2   0.50000    -0.1150000    0.1380000   1.172438e-03  2.346713e-06
    680    709   2   0.50000     0.1380000    0.1150000   2.431434e-04  1.541678e-07
    708    677   2   0.50000     0.1150000    0.0850000   2.431434e-04  1.541678e-07
    708    709   2   0.50000     0.1150000    0.1150000   5.042375e-05  1.012808e-08
    680    687   2   0.50000     0.1380000   -0.1150000   1.172438e-03  2.346713e-06
    680    691   2   0.50000     0.1380000   -0.1150000   1.172438e-03  2.346713e-06
    684    687   2   0.50000    -0.5300000   -0.1150000   1.059145e-03  1.228897e-06
    684    691   2   0.50000    -0.5300000   -0.1150000   1.059145e-03  1.228897e-06
    685    687   2   0.50000    -0.5300000   -0.1150000   1.059145e-03  1.228897e-06
    685    691   2   0.50000    -0.5300000   -0.1150000   1.059145e-03  1.228897e-06
    683    688   2   0.50000     0.7840000   -0.1150000   2.215699e-03  4.434870e-06
    683    710   2   0.50000     0.7840000    0.1150000   4.594978e-04  2.913497e-07
    691    688   2   0.50000    -0.1150000   -0.1150000   1.172438e-03  2.346713e-06
    691    710   2   0.50000    -0.1150000    0.1150000   2.431434e-04  1.541678e-07
    683    690   2   0.50000     0.7840000   -0.1150000   2.215699e-03  4.434870e-06
    683    713   2   0.50000     0.7840000    0.1150000   4.594978e-04  2.913497e-07
    687    690   2   0.50000    -0.1150000   -0.1150000   1.172438e-03  2.346713e-06
    687    713   2   0.50000    -0.1150000    0.1150000   2.431434e-04  1.541678e-07
    686    689   2   0.50000     0.1380000    0.0850000   1.172438e-03  2.346713e-06
    686    711   2   0.50000     0.1380000    0.1150000   2.431434e-04  1.541678e-07
    710    689   2   0.50000     0.1150000    0.0850000   2.431434e-04  1.541678e-07
    710    711   2   0.50000     0.1150000    0.1150000   5.042375e-05  1.012808e-08
    687    692   2   0.50000    -0.1150000   -0.1700000   9.038862e-04  9.862632e-07
    711    690   2   0.50000     0.1150000   -0.1150000   2.431434e-04  1.541678e-07
    711    692   2   0.50000     0.1150000   -0.1700000   1.874504e-04  6.479276e-08
    688    712   2   0.50000    -0.1150000    0.1150000   2.431434e-04  1.541678e-07
    692    691   2   0.50000    -0.1700000   -0.1150000   9.038862e-04  9.862632e-07
    692    712   2   0.50000    -0.1700000    0.1150000   1.874504e-04  6.479276e-08
    688    693   2   0.50000    -0.1150000    0.0850000   1.172438e-03  2.346713e-06
    690    693   2   0.50000    -0.1150000    0.0850000   1.172438e-03  2.346713e-06
    689    713   2   0.50000     0.0850000    0.1150000   2.431434e-04  1.541678e-07
    712    686   2   0.50000     0.1150000    0.1380000   2.431434e-04  1.541678e-07
    712    713   2   0.50000     0.1150000    0.1150000   5.042375e-05  1.012808e-08
    689    694   2   0.50000     0.0850000   -0.1150000   1.172438e-03  2.346713e-06
    689    698   2   0.50000     0.0850000   -0.1150000   1.172438e-03  2.346713e-06
    692    695   2   0.50000    -0.1700000   -0.1150000   9.038862e-04  9.862632e-07
    692    714   2   0.50000    -0.1700000    0.1150000   1.874504e-04  6.479276e-08
    698    695   2   0.50000    -0.1150000   -0.1150000   1.172438e-03  2.346713e-06
    698    714   2   0.50000    -0.1150000    0.1150000   2.431434e-04  1.541678e-07
    692    697   2   0.50000    -0.1700000   -0.1150000   9.038862e-04  9.862632e-07
    692    717   2   0.50000    -0.1700000    0.1150000   1.874504e-04  6.479276e-08
    694    697   2   0.50000    -0.1150000   -0.1150000   1.172438e-03  2.346713e-06
    694    717   2   0.50000    -0.1150000    0.1150000   2.431434e-04  1.541678e-07
    693    696   2   0.50000     0.0850000    0.0000000   1.172438e-03  2.346713e-06
    693    715   2   0.50000     0.0850000    0.1150000   2.431434e-04  1.541678e-07
    714    696   2   0.50000     0.1150000    0.0000000   2.431434e-04  1.541678e-07
    714    715   2   0.50000     0.1150000    0.1150000   5.042375e-05  1.012808e-08
    694    699   2   0.50000    -0.1150000    0.0000000   1.172438e-03  2.346713e-06
    715    697   2   0.50000     0.1150000   -0.1150000   2.431434e-04  1.541678e-07
    715    699   2   0.50000     0.1150000    0.0000000   2.431434e-04  1.541678e-07
    695    716   2   0.50000    -0.1150000    0.1150000   2.431434e-04  1.541678e-07
    699    698   2   0.50000     0.0000000   -0.1150000   1.172438e-03  2.346713e-06
    699    716   2   0.50000     0.0000000    0.1150000   2.431434e-04  1.541678e-07
    695    700   2   0.50000    -0.1150000   -0.1150000   1.172438e-03  2.346713e-06
    695    704   2   0.50000    -0.1150000   -0.1150000   1.172438e-03  2.346713e-06
    697    700   2   0.50000    -0.1150000   -0.1150000   1.172438e-03  2.346713e-06
    697    704   2   0.50000    -0.1150000   -0.1150000   1.172438e-03  2.346713e-06
    696    717   2   0.50000     0.0000000    0.1150000   2.431434e-04  1.541678e-07
    716    693   2   0.50000     0.1150000    0.0850000   2.431434e-04  1.541678e-07
    716    717   2   0.50000     0.1150000    0.1150000   5.042375e-05  1.012808e-08
    696    701   2   0.50000     0.0000000   -0.1150000   1.172438e-03  2.346713e-06
    696    718   2   0.50000     0.0000000    0.1150000   2.431434e-04  1.541678e-07
    704    701   2   0.50000    -0.1150000   -0.1150000   1.172438e-03  2.346713e-06
    704    718   2   0.50000    -0.1150000    0.1150000   2.431434e-04  1.541678e-07
    696    703   2   0.50000     0.0000000   -0.1150000   1.172438e-03  2.346713e-06
    696    721   2   0.50000     0.0000000    0.1150000   2.431434e-04  1.541678e-07
    700    703   2   0.50000    -0.1150000   -0.1150000   1.172438e-03  2.346713e-06
    700    721   2   0.50000    -0.1150000    0.1150000   2.431434e-04  1.541678e-07
    699    702   2   0.50000     0.0000000    0.0850000   1.172438e-03  2.346713e-06
    699    719   2   0.50000     0.0000000    0.1150000   2.431434e-04  1.541678e-07
    718    702   2   0.50000     0.1150000    0.0850000   2.431434e-04  1.541678e-07
    718    719   2   0.50000     0.1150000    0.1150000   5.042375e-05  1.012808e-08
    700    705   2   0.50000    -0.1150000   -0.1700000   9.038862e-04  9.862632e-07
    719    703   2   0.50000     0.1150000   -0.1150000   2.431434e-04  1.541678e-07
    719    705   2   0.50000     0.1150000   -0.1700000   1.874504e-04  6.479276e-08
    701    720   2   0.50000    -0.1150000    0.1150000   2.431434e-04  1.541678e-07
    705    704   2   0.50000    -0.1700000   -0.1150000   9.038862e-04  9.862632e-07
    705    720   2   0.50000    -0.1700000    0.1150000   1.874504e-04  6.479276e-08
    701    722   2   0.50000    -0.1150000    0.0850000   1.172438e-03  2.346713e-06
    703    722   2   0.50000    -0.1150000    0.0850000   1.172438e-03  2.346713e-06
    702    721   2   0.50000     0.0850000    0.1150000   2.431434e-04  1.541678e-07
    720    699   2   0.50000     0.1150000    0.0000000   2.431434e-04  1.541678e-07
    720    721   2   0.50000     0.1150000    0.1150000   5.042375e-05  1.012808e-08
    702    723   2   0.50000     0.0850000   -0.1150000   1.172438e-03  2.346713e-06
    702    727   2   0.50000     0.0850000   -0.1150000   1.172438e-03  2.346713e-06
    705    724   2   0.50000    -0.1700000   -0.1150000   9.038862e-04  9.862632e-07
    705    751   2   0.50000    -0.1700000    0.1150000   1.874504e-04  6.479276e-08
    727    724   2   0.50000    -0.1150000   -0.1150000   1.172438e-03  2.346713e-06
    727    751   2   0.50000    -0.1150000    0.1150000   2.431434e-04  1.541678e-07
    705    726   2   0.50000    -0.1700000   -0.1150000   9.038862e-04  9.862632e-07
    705    754   2   0.50000    -0.1700000    0.1150000   1.874504e-04  6.479276e-08
    723    726   2   0.50000    -0.1150000   -0.1150000   1.172438e-03  2.346713e-06
    723    754   2   0.50000    -0.1150000    0.1150000   2.431434e-04  1.541678e-07
    722    725   2   0.50000     0.0850000    0.1380000   1.172438e-03  2.346713e-06
    722    752   2   0.50000     0.0850000    0.1150000   2.431434e-04  1.541678e-07
    751    725   2   0.50000     0.1150000    0.1380000   2.431434e-04  1.541678e-07
    751    752   2   0.50000     0.1150000    0.1150000   5.042375e-05  1.012808e-08
    723    728   2   0.50000    -0.1150000    0.7840000   2.215699e-03  4.434870e-06
    752    726   2   0.50000     0.1150000   -0.1150000   2.431434e-04  1.541678e-07
    752    728   2   0.50000     0.1150000    0.7840000   4.594978e-04  2.913497e-07
    724    753   2   0.50000    -0.1150000    0.1150000   2.431434e-04  1.541678e-07
    728    727   2   0.50000     0.7840000   -0.1150000   2.215699e-03  4.434870e-06
    728    753   2   0.50000     0.7840000    0.1150000   4.594978e-04  2.913497e-07
    724    729   2   0.50000    -0.1150000   -0.5300000   1.059145e-03  1.228897e-06
    724    730   2   0.50000    -0.1150000   -0.5300000   1.059145e-03  1.228897e-06
    724    731   2   0.50000    -0.1150000    0.1380000   1.172438e-03  2.346713e-06
    726    729   2   0.50000    -0.1150000   -0.5300000   1.059145e-03  1.228897e-06
    726    730   2   0.50000    -0.1150000   -0.5300000   1.059145e-03  1.228897e-06
    726    731   2   0.50000    -0.1150000    0.1380000   1.172438e-03  2.346713e-06
    725    754   2   0.50000     0.1380000    0.1150000   2.431434e-04  1.541678e-07
    753    722   2   0.50000     0.1150000    0.0850000   2.431434e-04  1.541678e-07
    753    754   2   0.50000     0.1150000    0.1150000   5.042375e-05  1.012808e-08
    725    732   2   0.50000     0.1380000   -0.1150000   1.172438e-03  2.346713e-06
    725    736   2   0.50000     0.1380000   -0.1150000   1.172438e-03  2.346713e-06
    729    732   2   0.50000    -0.5300000   -0.1150000   1.059145e-03  1.228897e-06
    729    736   2   0.50000    -0.5300000   -0.1150000   1.059145e-03  1.228897e-06
    730    732   2   0.50000    -0.5300000   -0.1150000   1.059145e-03  1.228897e-06
    730    736   2   0.50000    -0.5300000   -0.1150000   1.059145e-03  1.228897e-06
    728    733   2   0.50000     0.7840000   -0.1150000   2.215699e-03  4.434870e-06
    728    755   2   0.50000     0.7840000    0.1150000   4.594978e-04  2.913497e-07
    736    733   2   0.50000    -0.1150000   -0.1150000   1.172438e-03  2.346713e-06
    736    755   2   0.50000    -0.1150000    0.1150000   2.431434e-04  1.541678e-07
    728    735   2   0.50000     0.7840000   -0.1150000   2.215699e-03  4.434870e-06
    728    758   2   0.50000     0.7840000    0.1150000   4.594978e-04  2.913497e-07
    732    735   2   0.50000    -0.1150000   -0.1150000   1.172438e-03  2.346713e-06
    732    758   2   0.50000    -0.1150000    0.1150000   2.431434e-04  1.541678e-07
    731    734   2   0.50000     0.1380000    0.0850000   1.172438e-03  2.346713e-06
    731    756   2   0.50000     0.1380000    0.1150000   2.431434e-04  1.541678e-07
    755    734   2   0.50000     0.1150000    0.0850000   2.431434e-04  1.541678e-07
    755    756   2   0.50000     0.1150000    0.1150000   5.042375e-05  1.012808e-08
    732    737   2   0.50000    -0.1150000   -0.1700000   9.038862e-04  9.862632e-07
    756    735   2   0.50000     0.1150000   -0.1150000   2.431434e-04  1.541678e-07
    756    737   2   0.50000     0.1150000   -0.1700000   1.874504e-04  6.479276e-08
    733    757   2   0.50000    -0.1150000    0.1150000   2.431434e-04  1.541678e-07
    737    736   2   0.50000    -0.1700000   -0.1150000   9.038862e-04  9.862632e-07
    737    757   2   0.50000    -0.1700000    0.1150000   1.874504e-04  6.479276e-08
    733    738   2   0.50000    -0.1150000    0.0850000   1.172438e-03  2.346713e-06
    735    738   2   0.50000    -0.1150000    0.0850000   1.172438e-03  2.346713e-06
    734    758   2   0.50000     0.0850000    0.1150000   2.431434e-04  1.541678e-07
    757    731   2   0.50000     0.1150000    0.1380000   2.431434e-04  1.541678e-07
    757    758   2   0.50000     0.1150000    0.1150000   5.042375e-05  1.012808e-08
    734    739   2   0.50000     0.0850000   -0.1150000   1.172438e-03  2.346713e-06
    734    743   2   0.50000     0.0850000   -0.1150000   1.172438e-03  2.346713e-06
    737    740   2   0.50000    -0.1700000   -0.1150000   9.038862e-04  9.862632e-07
    737    759   2   0.50000    -0.1700000    0.1150000   1.874504e-04  6.479276e-08
    743    740   2   0.50000    -0.1150000   -0.1150000   1.172438e-03  2.346713e-06
    743    759   2   0.50000    -0.1150000    0.1150000   2.431434e-04  1.541678e-07
    737    742   2   0.50000    -0.1700000   -0.1150000   9.038862e-04  9.862632e-07
    737    762   2   0.50000    -0.1700000    0.1150000   1.874504e-04  6.479276e-08
    739    742   2   0.50000    -0.1150000   -0.1150000   1.172438e-03  2.346713e-06
    739    762   2   0.50000    -0.1150000    0.1150000   2.431434e-04  1.541678e-07
    738    741   2   0.50000     0.0850000    0.0000000   1.172438e-03  2.346713e-06
    738    760   2   0.50000     0.0850000    0.1150000   2.431434e-04  1.541678e-07
    759    741   2   0.50000     0.1150000    0.0000000   2.431434e-04  1.541678e-07
    759    760   2   0.50000     0.1150000    0.1150000   5.042375e-05  1.012808e-08
    739    744   2   0.50000    -0.1150000    0.0000000   1.172438e-03  2.346713e-06
    760    742   2   0.50000     0.1150000   -0.1150000   2.431434e-04  1.541678e-07
    760    744   2   0.50000     0.1150000    0.0000000   2.431434e-04  1.541678e-07
    740    761   2   0.50000    -0.1150000    0.1150000   2.431434e-04  1.541678e-07
    744    743   2   0.50000     0.0000000   -0.1150000   1.172438e-03  2.346713e-06
    744    761   2   0.50000     0.0000000    0.1150000   2.431434e-04  1.541678e-07
    740    745   2   0.50000    -0.1150000   -0.1150000   1.172438e-03  2.346713e-06
    740    749   2   0.50000    -0.1150000   -0.1150000   1.172438e-03  2.346713e-06
    742    745   2   0.50000    -0.1150000   -0.1150000   1.172438e-03  2.346713e-06
    742    749   2   0.50000    -0.1150000   -0.1150000   1.172438e-03  2.346713e-06
    741    762   2   0.50000     0.0000000    0.1150000   2.431434e-04  1.541678e-07
    761    738   2   0.50000     0.1150000    0.0850000   2.431434e-04  1.541678e-07
    761    762   2   0.50000     0.1150000    0.1150000   5.042375e-05  1.012808e-08
    741    746   2   0.50000     0.0000000   -0.1150000   1.172438e-03  2.346713e-06
    741    763   2   0.50000     0.0000000    0.1150000   2.431434e-04  1.541678e-07
    749    746   2   0.50000    -0.1150000   -0.1150000   1.172438e-03  2.346713e-06
    749    763   2   0.50000    -0.1150000    0.1150000   2.431434e-04  1.541678e-07
    741    748   2   0.50000     0.0000000   -0.1150000   1.172438e-03  2.346713e-06
    741    766   2   0.50000     0.0000000    0.1150000   2.431434e-04  1.541678e-07
    745    748   2   0.50000    -0.1150000   -0.1150000   1.172438e-03  2.346713e-06
    745    766   2   0.50000    -0.1150000    0.1150000   2.431434e-04  1.541678e-07
    744    747   2   0.50000     0.0000000    0.0850000   1.172438e-03  2.346713e-06
    744    764   2   0.50000     0.0000000    0.1150000   2.431434e-04  1.541678e-07
    763    747   2   0.50000     0.1150000    0.0850000   2.431434e-04  1.541678e-07
    763    764   2   0.50000     0.1150000    0.1150000   5.042375e-05  1.012808e-08
    745    750   2   0.50000    -0.1150000   -0.1700000   9.038862e-04  9.862632e-07
    764    748   2   0.50000     0.1150000   -0.1150000   2.431434e-04  1.541678e-07
    764    750   2   0.50000     0.1150000   -0.1700000   1.874504e-04  6.479276e-08
    746    765   2   0.50000    -0.1150000    0.1150000   2.431434e-04  1.541678e-07
    750    749   2   0.50000    -0.1700000   -0.1150000   9.038862e-04  9.862632e-07
    750    765   2   0.50000    -0.1700000    0.1150000   1.874504e-04  6.479276e-08
    746    767   2   0.50000    -0.1150000    0.0850000   1.172438e-03  2.346713e-06
    748    767   2   0.50000    -0.1150000    0.0850000   1.172438e-03  2.346713e-06
    747    766   2   0.50000     0.0850000    0.1150000   2.431434e-04  1.541678e-07
    765    744   2   0.50000     0.1150000    0.0000000   2.431434e-04  1.541678e-07
    765    766   2   0.50000     0.1150000    0.1150000   5.042375e-05  1.012808e-08
    747    768   2   0.50000     0.0850000   -0.1150000   1.172438e-03  2.346713e-06
    747    772   2   0.50000     0.0850000   -0.1150000   1.172438e-03  2.346713e-06
    750    769   2   0.50000    -0.1700000   -0.1150000   9.038862e-04  9.862632e-07
    750    796   2   0.50000    -0.1700000    0.1150000   1.874504e-04  6.479276e-08
    772    769   2   0.50000    -0.1150000   -0.1150000   1.172438e-03  2.346713e-06
    772    796   2   0.50000    -0.1150000    0.1150000   2.431434e-04  1.541678e-07
    750    771   2   0.50000    -0.1700000   -0.1150000   9.038862e-04  9.862632e-07
    750    799   2   0.50000    -0.1700000    0.1150000   1.874504e-04  6.479276e-08
    768    771   2   0.50000    -0.1150000   -0.1150000   1.172438e-03  2.346713e-06
    768    799   2   0.50000    -0.1150000    0.1150000   2.431434e-04  1.541678e-07
    767    770   2   0.50000     0.0850000    0.1380000   1.172438e-03  2.346713e-06
    767    797   2   0.50000     0.0850000    0.1150000   2.431434e-04  1.541678e-07
    796    770   2   0.50000     0.1150000    0.1380000   2.431434e-04  1.541678e-07
    796    797   2   0.50000     0.1150000    0.1150000   5.042375e-05  1.012808e-08
    768    773   2   0.50000    -0.1150000    0.7840000   2.215699e-03  4.434870e-06
    797    771   2   0.50000     0.1150000   -0.1150000   2.431434e-04  1.541678e-07
    797    773   2   0.50000     0.1150000    0.7840000   4.594978e-04  2.913497e-07
    769    798   2   0.50000    -0.1150000    0.1150000   2.431434e-04  1.541678e-07
    773    772   2   0.50000     0.7840000   -0.1150000   2.215699e-03  4.434870e-06
    773    798   2   0.50000     0.7840000    0.1150000   4.594978e-04  2.913497e-07
    769    774   2   0.50000    -0.1150000   -0.5300000   1.059145e-03  1.228897e-06
    769    775   2   0.50000    -0.1150000   -0.5300000   1.059145e-03  1.228897e-06
    769    776   2   0.50000    -0.1150000    0.1380000   1.172438e-03  2.346713e-06
    771    774   2   0.50000    -0.1150000   -0.5300000   1.059145e-03  1.228897e-06
    771    775   2   0.50000    -0.1150000   -0.5300000   1.059145e-03  1.228897e-06
    771    776   2   0.50000    -0.1150000    0.1380000   1.172438e-03  2.346713e-06
    770    799   2   0.50000     0.1380000    0.1150000   2.431434e-04  1.541678e-07
    798    767   2   0.50000     0.1150000    0.0850000   2.431434e-04  1.541678e-07
    798    799   2   0.50000     0.1150000    0.1150000   5.042375e-05  1.012808e-08
    770    777   2   0.50000     0.1380000   -0.1150000   1.172438e-03  2.346713e-06
    770    781   2   0.50000     0.1380000   -0.1150000   1.172438e-03  2.346713e-06
    774    777   2   0.50000    -0.5300000   -0.1150000   1.059145e-03  1.228897e-06
    774    781   2   0.50000    -0.5300000   -0.1150000   1.059145e-03  1.228897e-06
    775    777   2   0.50000    -0.5300000   -0.1150000   1.059145e-03  1.228897e-06
    775    781   2   0.50000    -0.5300000   -0.1150000   1.059145e-03  1.228897e-06
    773    778   2   0.50000     0.7840000   -0.1150000   2.215699e-03  4.434870e-06
    773    800   2   0.50000     0.7840000    0.1150000   4.594978e-04  2.913497e-07
    781    778   2   0.50000    -0.1150000   -0.1150000   1.172438e-03  2.346713e-06
    781    800   2   0.50000    -0.1150000    0.1150000   2.431434e-04  1.541678e-07
    773    780   2   0.50000     0.7840000   -0.1150000   2.215699e-03  4.434870e-06
    773    803   2   0.50000     0.7840000    0.1150000   4.594978e-04  2.913497e-07
    777    780   2   0.50000    -0.1150000   -0.1150000   1.172438e-03  2.346713e-06
    777    803   2   0.50000    -0.1150000    0.1150000   2.431434e-04  1.541678e-07
    776    779   2   0.50000     0.1380000    0.0850000   1.172438e-03  2.346713e-06
    776    801   2   0.50000     0.1380000    0.1150000   2.431434e-04  1.541678e-07
    800    779   2   0.50000     0.1150000    0.0850000   2.431434e-04  1.541678e-07
    800    801   2   0.50000     0.1150000    0.1150000   5.042375e-05  1.012808e-08
    777    782   2   0.50000    -0.1150000   -0.1700000   9.038862e-04  9.862632e-07
    801    780   2   0.50000     0.1150000   -0.1150000   2.431434e-04  1.541678e-07
    801    782   2   0.50000     0.1150000   -0.1700000   1.874504e-04  6.479276e-08
    778    802   2   0.50000    -0.1150000    0.1150000   2.431434e-04  1.541678e-07
    782    781   2   0.50000    -0.1700000   -0.1150000   9.038862e-04  9.862632e-07
    782    802   2   0.50000    -0.1700000    0.1150000   1.874504e-04  6.479276e-08
    778    783   2   0.50000    -0.1150000    0.0850000   1.172438e-03  2.346713e-06
    780    783   2   0.50000    -0.1150000    0.0850000   1.172438e-03  2.346713e-06
    779    803   2   0.50000     0.0850000    0.1150000   2.431434e-04  1.541678e-07
    802    776   2   0.50000     0.1150000    0.1380000   2.431434e-04  1.541678e-07
    802    803   2   0.50000     0.1150000    0.1150000   5.042375e-05  1.012808e-08
    779    784   2   0.50000     0.0850000   -0.1150000   1.172438e-03  2.346713e-06
    779    788   2   0.50000     0.0850000   -0.1150000   1.172438e-03  2.346713e-06
    782    785   2   0.50000    -0.1700000   -0.1150000   9.038862e-04  9.862632e-07
    782    804   2   0.50000    -0.1700000    0.1150000   1.874504e-04  6.479276e-08
    788    785   2   0.50000    -0.1150000   -0.1150000   1.172438e-03  2.346713e-06
    788    804   2   0.50000    -0.1150000    0.1150000   2.431434e-04  1.541678e-07
    782    787   2   0.50000    -0.1700000   -0.1150000   9.038862e-04  9.862632e-07
    782    807   2   0.50000    -0.1700000    0.1150000   1.874504e-04  6.479276e-08
    784    787   2   0.50000    -0.1150000   -0.1150000   1.172438e-03  2.346713e-06
    784    807   2   0.50000    -0.1150000    0.1150000   2.431434e-04  1.541678e-07
    783    786   2   0.50000     0.0850000    0.0000000   1.172438e-03  2.346713e-06
    783    805   2   0.50000     0.0850000    0.1150000   2.431434e-04  1.541678e-07
    804    786   2   0.50000     0.1150000    0.0000000   2.431434e-04  1.541678e-07
    804    805   2   0.50000     0.1150000    0.1150000   5.042375e-05  1.012808e-08
    784    789   2   0.50000    -0.1150000    0.0000000   1.172438e-03  2.346713e-06
    805    787   2   0.50000     0.1150000   -0.1150000   2.431434e-04  1.541678e-07
    805    789   2   0.50000     0.1150000    0.0000000   2.431434e-04  1.541678e-07
    785    806   2   0.50000    -0.1150000    0.1150000   2.431434e-04  1.541678e-07
    789    788   2   0.50000     0.0000000   -0.1150000   1.172438e-03  2.346713e-06
    789    806   2   0.50000     0.0000000    0.1150000   2.431434e-04  1.541678e-07
    785    790   2   0.50000    -0.1150000   -0.1150000   1.172438e-03  2.346713e-06
    785    794   2   0.50000    -0.1150000   -0.1150000   1.172438e-03  2.346713e-06
    787    790   2   0.50000    -0.1150000   -0.1150000   1.172438e-03  2.346713e-06
    787    794   2   0.50000    -0.1150000   -0.1150000   1.172438e-03  2.346713e-06
    786    807   2   0.50000     0.0000000    0.1150000   2.431434e-04  1.541678e-07
    806    783   2   0.50000     0.1150000    0.0850000   2.431434e-04  1.541678e-07
    806    807   2   0.50000     0.1150000    0.1150000   5.042375e-05  1.012808e-08
    786    791   2   0.50000     0.0000000   -0.1150000   1.172438e-03  2.346713e-06
    786    808   2   0.50000     0.0000000    0.1150000   2.431434e-04  1.541678e-07
    794    791   2   0.50000    -0.1150000   -0.1150000   1.172438e-03  2.346713e-06
    794    808   2   0.50000    -0.1150000    0.1150000   2.431434e-04  1.541678e-07
    786    793   2   0.50000     0.0000000   -0.1150000   1.172438e-03  2.346713e-06
    786    811   2   0.50000     0.0000000    0.1150000   2.431434e-04  1.541678e-07
    790    793   2   0.50000    -0.1150000   -0.1150000   1.172438e-03  2.346713e-06
    790    811   2   0.50000    -0.1150000    0.1150000   2.431434e-04  1.541678e-07
    789    792   2   0.50000     0.0000000    0.0850000   1.172438e-03  2.346713e-06
    789    809   2   0.50000     0.0000000    0.1150000   2.431434e-04  1.541678e-07
    808    792   2   0.50000     0.1150000    0.0850000   2.431434e-04  1.541678e-07
    808    809   2   0.50000     0.1150000    0.1150000   5.042375e-05  1.012808e-08
    790    795   2   0.50000    -0.1150000   -0.1700000   9.038862e-04  9.862632e-07
    809    793   2   0.50000     0.1150000   -0.1150000   2.431434e-04  1.541678e-07
    809    795   2   0.50000     0.1150000   -0.1700000   1.874504e-04  6.479276e-08
    791    810   2   0.50000    -0.1150000    0.1150000   2.431434e-04  1.541678e-07
    795    794   2   0.50000    -0.1700000   -0.1150000   9.038862e-04  9.862632e-07
    795    810   2   0.50000    -0.1700000    0.1150000   1.874504e-04  6.479276e-08
    791    812   2   0.50000    -0.1150000    0.0850000   1.172438e-03  2.346713e-06
    793    812   2   0.50000    -0.1150000    0.0850000   1.172438e-03  2.346713e-06
    792    811   2   0.50000     0.0850000    0.1150000   2.431434e-04  1.541678e-07
    810    789   2   0.50000     0.1150000    0.0000000   2.431434e-04  1.541678e-07
    810    811   2   0.50000     0.1150000    0.1150000   5.042375e-05  1.012808e-08
    792    813   2   0.50000     0.0850000   -0.1150000   1.172438e-03  2.346713e-06
    792    817   2   0.50000     0.0850000   -0.1150000   1.172438e-03  2.346713e-06
    795    814   2   0.50000    -0.1700000   -0.1150000   9.038862e-04  9.862632e-07
    795    841   2   0.50000    -0.1700000    0.1150000   1.874504e-04  6.479276e-08
    817    814   2   0.50000    -0.1150000   -0.1150000   1.172438e-03  2.346713e-06
    817    841   2   0.50000    -0.1150000    0.1150000   2.431434e-04  1.541678e-07
    795    816   2   0.50000    -0.1700000   -0.1150000   9.038862e-04  9.862632e-07
    795    844   2   0.50000    -0.1700000    0.1150000   1.874504e-04  6.479276e-08
    813    816   2   0.50000    -0.1150000   -0.1150000   1.172438e-03  2.346713e-06
    813    844   2   0.50000    -0.1150000    0.1150000   2.431434e-04  1.541678e-07
    812    815   2   0.50000     0.0850000    0.1380000   1.172438e-03  2.346713e-06
    812    842   2   0.50000     0.0850000    0.1150000   2.431434e-04  1.541678e-07
    841    815   2   0.50000     0.1150000    0.1380000   2.431434e-04  1.541678e-07
    841    842   2   0.50000     0.1150000    0.1150000   5.042375e-05  1.012808e-08
    813    818   2   0.50000    -0.1150000    0.7840000   2.215699e-03  4.434870e-06
    842    816   2   0.50000     0.1150000   -0.1150000   2.431434e-04  1.541678e-07
    842    818   2   0.50000     0.1150000    0.7840000   4.594978e-04  2.913497e-07
    814    843   2   0.50000    -0.1150000    0.1150000   2.431434e-04  1.541678e-07
    818    817   2   0.50000     0.7840000   -0.1150000   2.215699e-03  4.434870e-06
    818    843   2   0.50000     0.7840000    0.1150000   4.594978e-04  2.913497e-07
    814    819   2   0.50000    -0.1150000   -0.5300000   1.059145e-03  1.228897e-06
    814    820   2   0.50000    -0.1150000   -0.5300000   1.059145e-03  1.228897e-06
    814    821   2   0.50000    -0.1150000    0.1380000   1.172438e-03  2.346713e-06
    816    819   2   0.50000    -0.1150000   -0.5300000   1.059145e-03  1.228897e-06
    816    820   2   0.50000    -0.1150000   -0.5300000   1.059145e-03  1.228897e-06
    816    821   2   0.50000    -0.1150000    0.1380000   1.172438e-03  2.346713e-06
    815    844   2   0.50000     0.1380000    0.1150000   2.431434e-04  1.541678e-07
    843    812   2   0.50000     0.1150000    0.0850000   2.431434e-04  1.541678e-07
    843    844   2   0.50000     0.1150000    0.1150000   5.042375e-05  1.012808e-08
    815    822   2   0.50000     0.1380000   -0.1150000   1.172438e-03  2.346713e-06
    815    826   2   0.50000     0.1380000   -0.1150000   1.172438e-03  2.346713e-06
    819    822   2   0.50000    -0.5300000   -0.1150000   1.059145e-03  1.228897e-06
    819    826   2   0.50000    -0.5300000   -0.1150000   1.059145e-03  1.228897e-06
    820    822   2   0.50000    -0.5300000   -0.1150000   1.059145e-03  1.228897e-06
    820    826   2   0.50000    -0.5300000   -0.1150000   1.059145e-03  1.228897e-06
    818    823   2   0.50000     0.7840000   -0.1150000   2.215699e-03  4.434870e-06
    818    845   2   0.50000     0.7840000    0.1150000   4.594978e-04  2.913497e-07
    826    823   2   0.50000    -0.1150000   -0.1150000   1.172438e-03  2.346713e-06
    826    845   2   0.50000    -0.1150000    0.1150000   2.431434e-04  1.541678e-07
    818    825   2   0.50000     0.7840000   -0.1150000   2.215699e-03  4.434870e-06
    818    848   2   0.50000     0.7840000    0.1150000   4.594978e-04  2.913497e-07
    822    825   2   0.50000    -0.1150000   -0.1150000   1.172438e-03  2.346713e-06
    822    848   2   0.50000    -0.1150000    0.1150000   2.431434e-04  1.541678e-07
    821    824   2   0.50000     0.1380000    0.0850000   1.172438e-03  2.346713e-06
    821    846   2   0.50000     0.1380000    0.1150000   2.431434e-04  1.541678e-07
    845    824   2   0.50000     0.1150000    0.0850000   2.431434e-04  1.541678e-07
    845    846   2   0.50000     0.1150000    0.1150000   5.042375e-05  1.012808e-08
    822    827   2   0.50000    -0.1150000   -0.1700000   9.038862e-04  9.862632e-07
    846    825   2   0.50000     0.1150000   -0.1150000   2.431434e-04  1.541678e-07
    846    827   2   0.50000     0.1150000   -0.1700000   1.874504e-04  6.479276e-08
    823    847   2   0.50000    -0.1150000    0.1150000   2.431434e-04  1.541678e-07
    827    826   2   0.50000    -0.1700000   -0.1150000   9.038862e-04  9.862632e-07
    827    847   2   0.50000    -0.1700000    0.1150000   1.874504e-04  6.479276e-08
    823    828   2   0.50000    -0.1150000    0.0850000   1.172438e-03  2.346713e-06
    825    828   2   0.50000    -0.1150000    0.0850000   1.172438e-03  2.346713e-06
    824    848   2   0.50000     0.0850000    0.1150000   2.431434e-04  1.541678e-07
    847    821   2   0.50000     0.1150000    0.1380000   2.431434e-04  1.541678e-07
    847    848   2   0.50000     0.1150000    0.1150000   5.042375e-05  1.012808e-08
    824    829   2   0.50000     0.0850000   -0.1150000   1.172438e-03  2.346713e-06
    824    833   2   0.50000     0.0850000   -0.1150000   1.172438e-03  2.346713e-06
    827    830   2   0.50000    -0.1700000   -0.1150000   9.038862e-04  9.862632e-07
    827    849   2   0.50000    -0.1700000    0.1150000   1.874504e-04  6.479276e-08
    833    830   2   0.50000    -0.1150000   -0.1150000   1.172438e-03  2.346713e-06
    833    849   2   0.50000    -0.1150000    0.1150000   2.431434e-04  1.541678e-07
    827    832   2   0.50000    -0.1700000   -0.1150000   9.038862e-04  9.862632e-07
    827    852   2   0.50000    -0.1700000    0.1150000   1.874504e-04  6.479276e-08
    829    832   2   0.50000    -0.1150000   -0.1150000   1.172438e-03  2.346713e-06
    829    852   2   0.50000    -0.1150000    0.1150000   2.431434e-04  1.541678e-07
    828    831   2   0.50000     0.0850000    0.0000000   1.172438e-03  2.346713e-06
    828    850   2   0.50000     0.0850000    0.1150000   2.431434e-04  1.541678e-07
    849    831   2   0.50000     0.1150000    0.0000000   2.431434e-04  1.541678e-07
    849    850   2   0.50000     0.1150000    0.1150000   5.042375e-05  1.012808e-08
    829    834   2   0.50000    -0.1150000    0.0000000   1.172438e-03  2.346713e-06
    850    832   2   0.50000     0.1150000   -0.1150000   2.431434e-04  1.541678e-07
    850    834   2   0.50000     0.1150000    0.0000000   2.431434e-04  1.541678e-07
    830    851   2   0.50000    -0.1150000    0.1150000   2.431434e-04  1.541678e-07
    834    833   2   0.50000     0.0000000   -0.1150000   1.172438e-03  2.346713e-06
    834    851   2   0.50000     0.0000000    0.1150000   2.431434e-04  1.541678e-07
    830    835   2   0.50000    -0.1150000   -0.1150000   1.172438e-03  2.346713e-06
    830    839   2   0.50000    -0.1150000   -0.1150000   1.172438e-03  2.346713e-06
    832    835   2   0.50000    -0.1150000   -0.1150000   1.172438e-03  2.346713e-06
    832    839   2   0.50000    -0.1150000   -0.1150000   1.172438e-03  2.346713e-06
    831    852   2   0.50000     0.0000000    0.1150000   2.431434e-04  1.541678e-07
    851    828   2   0.50000     0.1150000    0.0850000   2.431434e-04  1.541678e-07
    851    852   2   0.50000     0.1150000    0.1150000   5.042375e-05  1.012808e-08
    831    836   2   0.50000     0.0000000   -0.1150000   1.172438e-03  2.346713e-06
    831    853   2   0.50000     0.0000000    0.1150000   2.431434e-04  1.541678e-07
    839    836   2   0.50000    -0.1150000   -0.1150000   1.172438e-03  2.346713e-06
    839    853   2   0.50000    -0.1150000    0.1150000   2.431434e-04  1.541678e-07
    831    838   2   0.50000     0.0000000   -0.1150000   1.172438e-03  2.346713e-06
    831    856   2   0.50000     0.0000000    0.1150000   2.431434e-04  1.541678e-07
    835    838   2   0.50000    -0.1150000   -0.1150000   1.172438e-03  2.346713e-06
    835    856   2   0.50000    -0.1150000    0.1150000   2.431434e-04  1.541678e-07
    834    837   2   0.50000     0.0000000    0.0850000   1.172438e-03  2.346713e-06
    834    854   2   0.50000     0.0000000    0.1150000   2.431434e-04  1.541678e-07
    853    837   2   0.50000     0.1150000    0.0850000   2.431434e-04  1.541678e-07
    853    854   2   0.50000     0.1150000    0.1150000   5.042375e-05  1.012808e-08
    835    840   2   0.50000    -0.1150000   -0.1700000   9.038862e-04  9.862632e-07
    854    838   2   0.50000     0.1150000   -0.1150000   2.431434e-04  1.541678e-07
    854    840   2   0.50000     0.1150000   -0.1700000   1.874504e-04  6.479276e-08
    836    855   2   0.50000    -0.1150000    0.1150000   2.431434e-04  1.541678e-07
    840    839   2   0.50000    -0.1700000   -0.1150000   9.038862e-04  9.862632e-07
    840    855   2   0.50000    -0.1700000    0.1150000   1.874504e-04  6.479276e-08
    836    857   2   0.50000    -0.1150000    0.0850000   1.172438e-03  2.346713e-06
    838    857   2   0.50000    -0.1150000    0.0850000   1.172438e-03  2.346713e-06
    837    856   2   0.50000     0.0850000    0.1150000   2.431434e-04  1.541678e-07
    855    834   2   0.50000     0.1150000    0.0000000   2.431434e-04  1.541678e-07
    855    856   2   0.50000     0.1150000    0.1150000   5.042375e-05  1.012808e-08
    837    858   2   0.50000     0.0850000   -0.1150000   1.172438e-03  2.346713e-06
    837    862   2   0.50000     0.0850000   -0.1150000   1.172438e-03  2.346713e-06
    840    859   2   0.50000    -0.1700000   -0.1150000   9.038862e-04  9.862632e-07
    840    886   2   0.50000    -0.1700000    0.1150000   1.874504e-04  6.479276e-08
    862    859   2   0.50000    -0.1150000   -0.1150000   1.172438e-03  2.346713e-06
    862    886   2   0.50000    -0.1150000    0.1150000   2.431434e-04  1.541678e-07
    840    861   2   0.50000    -0.1700000   -0.1150000   9.038862e-04  9.862632e-07
    840    889   2   0.50000    -0.1700000    0.1150000   1.874504e-04  6.479276e-08
    858    861   2   0.50000    -0.1150000   -0.1150000   1.172438e-03  2.346713e-06
    858    889   2   0.50000    -0.1150000    0.1150000   2.431434e-04  1.541678e-07
    857    860   2   0.50000     0.0850000    0.1380000   1.172438e-03  2.346713e-06
    857    887   2   0.50000     0.0850000    0.1150000   2.431434e-04  1.541678e-07
    886    860   2   0.50000     0.1150000    0.1380000   2.431434e-04  1.541678e-07
    886    887   2   0.50000     0.1150000    0.1150000   5.042375e-05  1.012808e-08
    858    863   2   0.50000    -0.1150000    0.7840000   2.215699e-03  4.434870e-06
    887    861   2   0.50000     0.1150000   -0.1150000   2.431434e-04  1.541678e-07
    887    863   2   0.50000     0.1150000    0.7840000   4.594978e-04  2.913497e-07
    859    888   2   0.50000    -0.1150000    0.1150000   2.431434e-04  1.541678e-07
    863    862   2   0.50000     0.7840000   -0.1150000   2.215699e-03  4.434870e-06
    863    888   2   0.50000     0.7840000    0.1150000   4.594978e-04  2.913497e-07
    859    864   2   0.50000    -0.1150000   -0.5300000   1.059145e-03  1.228897e-06
    859    865   2   0.50000    -0.1150000   -0.5300000   1.059145e-03  1.228897e-06
    859    866   2   0.50000    -0.1150000    0.1380000   1.172438e-03  2.346713e-06
    861    864   2   0.50000    -0.1150000   -0.5300000   1.059145e-03  1.228897e-06
    861    865   2   0.50000    -0.1150000   -0.5300000   1.059145e-03  1.228897e-06
    861    866   2   0.50000    -0.1150000    0.1380000   1.172438e-03  2.346713e-06
    860    889   2   0.50000     0.1380000    0.1150000   2.431434e-04  1.541678e-07
    888    857   2   0.50000     0.1150000    0.0850000   2.431434e-04  1.541678e-07
    888    889   2   0.50000     0.1150000    0.1150000   5.042375e-05  1.012808e-08
    860    867   2   0.50000     0.1380000   -0.1150000   1.172438e-03  2.346713e-06
    860    871   2   0.50000     0.1380000   -0.1150000   1.172438e-03  2.346713e-06
    864    867   2   0.50000    -0.5300000   -0.1150000   1.059145e-03  1.228897e-06
    864    871   2   0.50000    -0.5300000   -0.1150000   1.059145e-03  1.228897e-06
    865    867   2   0.50000    -0.5300000   -0.1150000   1.059145e-03  1.228897e-06
    865    871   2   0.50000    -0.5300000   -0.1150000   1.059145e-03  1.228897e-06
    863    868   2   0.50000     0.7840000   -0.1150000   2.215699e-03  4.434870e-06
    863    890   2   0.50000     0.7840000    0.1150000   4.594978e-04  2.913497e-07
    871    868   2   0.50000    -0.1150000   -0.1150000   1.172438e-03  2.346713e-06
    871    890   2   0.50000    -0.1150000    0.1150000   2.431434e-04  1.541678e-07
    863    870   2   0.50000     0.7840000   -0.1150000   2.215699e-03  4.434870e-06
    863    893   2   0.50000     0.7840000    0.1150000   4.594978e-04  2.913497e-07
    867    870   2   0.50000    -0.1150000   -0.1150000   1.172438e-03  2.346713e-06
    867    893   2   0.50000    -0.1150000    0.1150000   2.431434e-04  1.541678e-07
    866    869   2   0.50000     0.1380000    0.0850000   1.172438e-03  2.346713e-06
    866    891   2   0.50000     0.1380000    0.1150000   2.431434e-04  1.541678e-07
    890    869   2   0.50000     0.1150000    0.0850000   2.431434e-04  1.541678e-07
    890    891   2   0.50000     0.1150000    0.1150000   5.042375e-05  1.012808e-08
    867    872   2   0.50000    -0.1150000   -0.1700000   9.038862e-04  9.862632e-07
    891    870   2   0.50000     0.1150000   -0.1150000   2.431434e-04  1.541678e-07
    891    872   2   0.50000     0.1150000   -0.1700000   1.874504e-04  6.479276e-08
    868    892   2   0.50000    -0.1150000    0.1150000   2.431434e-04  1.541678e-07
    872    871   2   0.50000    -0.1700000   -0.1150000   9.038862e-04  9.862632e-07
    872    892   2   0.50000    -0.1700000    0.1150000   1.874504e-04  6.479276e-08
    868    873   2   0.50000    -0.1150000    0.0850000   1.172438e-03  2.346713e-06
    870    873   2   0.50000    -0.1150000    0.0850000   1.172438e-03  2.346713e-06
    869    893   2   0.50000     0.0850000    0.1150000   2.431434e-04  1.541678e-07
    892    866   2   0.50000     0.1150000    0.1380000   2.431434e-04  1.541678e-07
    892    893   2   0.50000     0.1150000    0.1150000   5.042375e-05  1.012808e-08
    869    874   2   0.50000     0.0850000   -0.1150000   1.172438e-03  2.346713e-06
    869    878   2   0.50000     0.0850000   -0.1150000   1.172438e-03  2.346713e-06
    872    875   2   0.50000    -0.1700000   -0.1150000   9.038862e-04  9.862632e-07
    872    894   2   0.50000    -0.1700000    0.1150000   1.874504e-04  6.479276e-08
    878    875   2   0.50000    -0.1150000   -0.1150000   1.172438e-03  2.346713e-06
    878    894   2   0.50000    -0.1150000    0.1150000   2.431434e-04  1.541678e-07
    872    877   2   0.50000    -0.1700000   -0.1150000   9.038862e-04  9.862632e-07
    872    897   2   0.50000    -0.1700000    0.1150000   1.874504e-04  6.479276e-08
    874    877   2   0.50000    -0.1150000   -0.1150000   1.172438e-03  2.346713e-06
    874    897   2   0.50000    -0.1150000    0.1150000   2.431434e-04  1.541678e-07
    873    876   2   0.50000     0.0850000    0.0000000   1.172438e-03  2.346713e-06
    873    895   2   0.50000     0.0850000    0.1150000   2.431434e-04  1.541678e-07
    894    876   2   0.50000     0.1150000    0.0000000   2.431434e-04  1.541678e-07
    894    895   2   0.50000     0.1150000    0.1150000   5.042375e-05  1.012808e-08
    874    879   2   0.50000    -0.1150000    0.0000000   1.172438e-03  2.346713e-06
    895    877   2   0.50000     0.1150000   -0.1150000   2.431434e-04  1.541678e-07
    895    879   2   0.50000     0.1150000    0.0000000   2.431434e-04  1.541678e-07
    875    896   2   0.50000    -0.1150000    0.1150000   2.431434e-04  1.541678e-07
    879    878   2   0.50000     0.0000000   -0.1150000   1.172438e-03  2.346713e-06
    879    896   2   0.50000     0.0000000    0.1150000   2.431434e-04  1.541678e-07
    875    880   2   0.50000    -0.1150000   -0.1150000   1.172438e-03  2.346713e-06
    875    884   2   0.50000    -0.1150000   -0.1150000   1.172438e-03  2.346713e-06
    877    880   2   0.50000    -0.1150000   -0.1150000   1.172438e-03  2.346713e-06
    877    884   2   0.50000    -0.1150000   -0.1150000   1.172438e-03  2.346713e-06
    876    897   2   0.50000     0.0000000    0.1150000   2.431434e-04  1.541678e-07
    896    873   2   0.50000     0.1150000    0.0850000   2.431434e-04  1.541678e-07
    896    897   2   0.50000     0.1150000    0.1150000   5.042375e-05  1.012808e-08
    876    881   2   0.50000     0.0000000   -0.1150000   1.172438e-03  2.346713e-06
    876    898   2   0.50000     0.0000000    0.1150000   2.431434e-04  1.541678e-07
    884    881   2   0.50000    -0.1150000   -0.1150000   1.172438e-03  2.346713e-06
    884    898   2   0.50000    -0.1150000    0.1150000   2.431434e-04  1.541678e-07
    876    883   2   0.50000     0.0000000   -0.1150000   1.172438e-03  2.346713e-06
    876    901   2   0.50000     0.0000000    0.1150000   2.431434e-04  1.541678e-07
    880    883   2   0.50000    -0.1150000   -0.1150000   1.172438e-03  2.346713e-06
    880    901   2   0.50000    -0.1150000    0.1150000   2.431434e-04  1.541678e-07
    879    882   2   0.50000     0.0000000    0.1500000   1.172438e-03  2.346713e-06
    879    899   2   0.50000     0.0000000    0.1150000   2.431434e-04  1.541678e-07
    898    882   2   0.50000     0.1150000    0.1500000   2.431434e-04  1.541678e-07
    898    899   2   0.50000     0.1150000    0.1150000   5.042375e-05  1.012808e-08
    880    885   2   0.50000    -0.1150000   -0.5850000   1.181668e-03  1.529662e-06
    899    883   2   0.50000     0.1150000   -0.1150000   2.431434e-04  1.541678e-07
    899    885   2   0.50000     0.1150000   -0.5850000   2.450575e-04  1.004915e-07
    881    900   2   0.50000    -0.1150000    0.1150000   2.431434e-04  1.541678e-07
    885    884   2   0.50000    -0.5850000   -0.1150000   1.181668e-03  1.529662e-06
    885    900   2   0.50000    -0.5850000    0.1150000   2.450575e-04  1.004915e-07
    881    902   2   0.50000    -0.1150000    0.4350000   2.144502e-06  1.199282e-11
    883    902   2   0.50000    -0.1150000    0.4350000   2.144502e-06  1.199282e-11
    882    901   2   0.50000     0.1500000    0.1150000   2.431434e-04  1.541678e-07
    900    879   2   0.50000     0.1150000    0.0000000   2.431434e-04  1.541678e-07
    900    901   2   0.50000     0.1150000    0.1150000   5.042375e-05  1.012808e-08

[ angles ]
; ai  aj  ak
      2      1      6   1    120.0000    527.1840
      2      1     46   1    120.0000    292.8800
      6      1     46   1    120.0000    292.8800
      1      2      3   1    120.0000    527.1840
      1      2     30   1    120.0000    292.8800
      3      2     30   1    120.0000    292.8800
      2      3      4   1    120.0000    527.1840
      2      3     31   1    120.0000    292.8800
      4      3     31   1    120.0000    292.8800
      3      4      5   1    120.0000    527.1840
      3      4      7   1    117.0670    543.9200
      5      4      7   1    117.0670    543.9200
      4      5      6   1    120.0000    527.1840
      4      5     32   1    120.0000    292.8800
      6      5     32   1    120.0000    292.8800
      1      6      5   1    120.0000    527.1840
      1      6     33   1    120.0000    292.8800
      5      6     33   1    120.0000    292.8800
      4      7      8   1    107.6710    836.8000
      4      7      9   1    107.6710    836.8000
      4      7     10   1    104.3600    658.3106
      8      7      9   1    120.1720    962.3200
      8      7     10   1    107.6710    836.8000
      9      7     10   1    107.6710    836.8000
      7     10     11   1    117.0670    543.9200
      7     10     15   1    117.0670    543.9200
     11     10     15   1    120.0000    527.1840
     10     11     12   1    120.0000    527.1840
     10     11     34   1    120.0000    292.8800
     12     11     34   1    120.0000    292.8800
     11     12     13   1    120.0000    527.1840
     11     12     35   1    120.0000    292.8800
     13     12     35   1    120.0000    292.8800
     12     13     14   1    120.0000    527.1840
     12     13     16   1    120.0000    585.7600
     14     13     16   1    120.0000    585.7600
     13     14     15   1    120.0000    527.1840
     13     14     36   1    120.0000    292.8800
     15     14     36   1    120.0000    292.8800
     10     15     14   1    120.0000    527.1840
     10     15     37   1    120.0000    292.8800
     14     15     37   1    120.0000    292.8800
     13     16     17   1    114.7000    711.2800
     16     17     18   1    120.0000    585.7600
     16     17     22   1    120.0000    585.7600
     18     17     22   1    120.0000    527.1840
     17     18     19   1    120.0000    527.1840
     17     18     38   1    120.0000    292.8800
     19     18     38   1    120.0000    292.8800
     18     19     20   1    120.0000    527.1840
     18     19     39   1    120.0000    292.8800
     20     19     39   1    120.0000    292.8800
     19     20     21   1    120.0000    527.1840
     19     20     23   1    122.7600    502.0800
     21     20     23   1    122.7600    502.0800
     20     21     22   1    120.0000    527.1840
     20     21     40   1    120.0000    292.8800
     22     21     40   1    120.0000    292.8800
     17     22     21   1    120.0000    527.1840
     17     22     41   1    120.0000    292.8800
     21     22     41   1    120.0000    292.8800
     20     23     24   1    122.7600    502.0800
     20     23     28   1    122.7600    502.0800
     24     23     28   1    120.0000    527.1840
     23     24     25   1    120.0000    527.1840
     23     24     42   1    120.0000    292.8800
     25     24     42   1    120.0000    292.8800
     24     25     26   1    120.0000    527.1840
     24     25     43   1    120.0000    292.8800
     26     25     43   1    120.0000    292.8800
     25     26     27   1    120.0000    527.1840
     25     26     29   1    120.0000    585.7600
     27     26     29   1    120.0000    585.7600
     26     27     28   1    120.0000    527.1840
     26     27     44   1    120.0000    292.8800
     28     27     44   1    120.0000    292.8800
     23     28     27   1    120.0000    527.1840
     23     28     45   1    120.0000    292.8800
     27     28     45   1    120.0000    292.8800
     26     29     47   1    114.7000    711.2800
     29     47     48   1    120.0000    585.7600
     29     47     52   1    120.0000    585.7600
     48     47     52   1    120.0000    527.1840
     47     48     49   1    120.0000    527.1840
     47     48     76   1    120.0000    292.8800
     49     48     76   1    120.0000    292.8800
     48     49     50   1    120.0000    527.1840
     48     49     77   1    120.0000    292.8800
     50     49     77   1    120.0000    292.8800
     49     50     51   1    120.0000    527.1840
     49     50     53   1    117.0670    543.9200
     51     50     53   1    117.0670    543.9200
     50     51     52   1    120.0000    527.1840
     50     51     78   1    120.0000    292.8800
     52     51     78   1    120.0000    292.8800
     47     52     51   1    120.0000    527.1840
     47     52     79   1    120.0000    292.8800
     51     52     79   1    120.0000    292.8800
     50     53     54   1    107.6710    836.8000
     50     53     55   1    107.6710    836.8000
     50     53     56   1    104.3600    658.3106
     54     53     55   1    120.1720    962.3200
     54     53     56   1    107.6710    836.8000
     55     53     56   1    107.6710    836.8000
     53     56     57   1    117.0670    543.9200
     53     56     61   1    117.0670    543.9200
     57     56     61   1    120.0000    527.1840
     56     57     58   1    120.0000    527.1840
     56     57     80   1    120.0000    292.8800
     58     57     80   1    120.0000    292.8800
     57     58     59   1    120.0000    527.1840
     57     58     81   1    120.0000    292.8800
     59     58     81   1    120.0000    292.8800
     58     59     60   1    120.0000    527.1840
     58     59     62   1    120.0000    585.7600
     60     59     62   1    120.0000    585.7600
     59     60     61   1    120.0000    527.1840
     59     60     82   1    120.0000    292.8800
     61     60     82   1    120.0000    292.8800
     56     61     60   1    120.0000    527.1840
     56     61     83   1    120.0000    292.8800
     60     61     83   1    120.0000    292.8800
     59     62     63   1    114.7000    711.2800
     62     63     64   1    120.0000    585.7600
     62     63     68   1    120.0000    585.7600
     64     63     68   1    120.0000    527.1840
     63     64     65   1    120.0000    527.1840
     63     64     84   1    120.0000    292.8800
     65     64     84   1    120.0000    292.8800
     64     65     66   1    120.0000    527.1840
     64     65     85   1    120.0000    292.8800
     66     65     85   1    120.0000    292.8800
     65     66     67   1    120.0000    527.1840
     65     66     69   1    122.7600    502.0800
     67     66     69   1    122.7600    502.0800
     66     67     68   1    120.0000    527.1840
     66     67     86   1    120.0000    292.8800
     68     67     86   1    120.0000    292.8800
     63     68     67   1    120.0000    527.1840
     63     68     87   1    120.0000    292.8800
     67     68     87   1    120.0000    292.8800
     66     69     70   1    122.7600    502.0800
     66     69     74   1    122.7600    502.0800
     70     69     74   1    120.0000    527.1840
     69     70     71   1    120.0000    527.1840
     69     70     88   1    120.0000    292.8800
     71     70     88   1    120.0000    292.8800
     70     71     72   1    120.0000    527.1840
     70     71     89   1    120.0000    292.8800
     72     71     89   1    120.0000    292.8800
     71     72     73   1    120.0000    527.1840
     71     72     75   1    120.0000    585.7600
     73     72     75   1    120.0000    585.7600
     72     73     74   1    120.0000    527.1840
     72     73     90   1    120.0000    292.8800
     74     73     90   1    120.0000    292.8800
     69     74     73   1    120.0000    527.1840
     69     74     91   1    120.0000    292.8800
     73     74     91   1    120.0000    292.8800
     72     75     92   1    114.7000    711.2800
     75     92     93   1    120.0000    585.7600
     75     92     97   1    120.0000    585.7600
     93     92     97   1    120.0000    527.1840
     92     93     94   1    120.0000    527.1840
     92     93    121   1    120.0000    292.8800
     94     93    121   1    120.0000    292.8800
     93     94     95   1    120.0000    527.1840
     93     94    122   1    120.0000    292.8800
     95     94    122   1    120.0000    292.8800
     94     95     96   1    120.0000    527.1840
     94     95     98   1    117.0670    543.9200
     96     95     98   1    117.0670    543.9200
     95     96     97   1    120.0000    527.1840
     95     96    123   1    120.0000    292.8800
     97     96    123   1    120.0000    292.8800
     92     97     96   1    120.0000    527.1840
     92     97    124   1    120.0000    292.8800
     96     97    124   1    120.0000    292.8800
     95     98     99   1    107.6710    836.8000
     95     98    100   1    107.6710    836.8000
     95     98    101   1    104.3600    658.3106
     99     98    100   1    120.1720    962.3200
     99     98    101   1    107.6710    836.8000
    100     98    101   1    107.6710    836.8000
     98    101    102   1    117.0670    543.9200
     98    101    106   1    117.0670    543.9200
    102    101    106   1    120.0000    527.1840
    101    102    103   1    120.0000    527.1840
    101    102    125   1    120.0000    292.8800
    103    102    125   1    120.0000    292.8800
    102    103    104   1    120.0000    527.1840
    102    103    126   1    120.0000    292.8800
    104    103    126   1    120.0000    292.8800
    103    104    105   1    120.0000    527.1840
    103    104    107   1    120.0000    585.7600
    105    104    107   1    120.0000    585.7600
    104    105    106   1    120.0000    527.1840
    104    105    127   1    120.0000    292.8800
    106    105    127   1    120.0000    292.8800
    101    106    105   1    120.0000    527.1840
    101    106    128   1    120.0000    292.8800
    105    106    128   1    120.0000    292.8800
    104    107    108   1    114.7000    711.2800
    107    108    109   1    120.0000    585.7600
    107    108    113   1    120.0000    585.7600
    109    108    113   1    120.0000    527.1840
    108    109    110   1    120.0000    527.1840
    108    109    129   1    120.0000    292.8800
    110    109    129   1    120.0000    292.8800
    109    110    111   1    120.0000    527.1840
    109    110    130   1    120.0000    292.8800
    111    110    130   1    120.0000    292.8800
    110    111    112   1    120.0000    527.1840
    110    111    114   1    122.7600    502.0800
    112    111    114   1    122.7600    502.0800
    111    112    113   1    120.0000    527.1840
    111    112    131   1    120.0000    292.8800
    113    112    131   1    120.0000    292.8800
    108    113    112   1    120.0000    527.1840
    108    113    132   1    120.0000    292.8800
    112    113    132   1    120.0000    292.8800
    111    114    115   1    122.7600    502.0800
    111    114    119   1    122.7600    502.0800
    115    114    119   1    120.0000    527.1840
    114    115    116   1    120.0000    527.1840
    114    115    133   1    120.0000    292.8800
    116    115    133   1    120.0000    292.8800
    115    116    117   1    120.0000    527.1840
    115    116    134   1    120.0000    292.8800
    117    116    134   1    120.0000    292.8800
    116    117    118   1    120.0000    527.1840
    116    117    120   1    120.0000    585.7600
    118    117    120   1    120.0000    585.7600
    117    118    119   1    120.0000    527.1840
    117    118    135   1    120.0000    292.8800
    119    118    135   1    120.0000    292.8800
    114    119    118   1    120.0000    527.1840
    114    119    136   1    120.0000    292.8800
    118    119    136   1    120.0000    292.8800
    117    120    137   1    114.7000    711.2800
    120    137    138   1    120.0000    585.7600
    120    137    142   1    120.0000    585.7600
    138    137    142   1    120.0000    527.1840
    137    138    139   1    120.0000    527.1840
    137    138    166   1    120.0000    292.8800
    139    138    166   1    120.0000    292.8800
    138    139    140   1    120.0000    527.1840
    138    139    167   1    120.0000    292.8800
    140    139    167   1    120.0000    292.8800
    139    140    141   1    120.0000    527.1840
    139    140    143   1    117.0670    543.9200
    141    140    143   1    117.0670    543.9200
    140    141    142   1    120.0000    527.1840
    140    141    168   1    120.0000    292.8800
    142    141    168   1    120.0000    292.8800
    137    142    141   1    120.0000    527.1840
    137    142    169   1    120.0000    292.8800
    141    142    169   1    120.0000    292.8800
    140    143    144   1    107.6710    836.8000
    140    143    145   1    107.6710    836.8000
    140    143    146   1    104.3600    658.3106
    144    143    145   1    120.1720    962.3200
    144    143    146   1    107.6710    836.8000
    145    143    146   1    107.6710    836.8000
    143    146    147   1    117.0670    543.9200
    143    146    151   1    117.0670    543.9200
    147    146    151   1    120.0000    527.1840
    146    147    148   1    120.0000    527.1840
    146    147    170   1    120.0000    292.8800
    148    147    170   1    120.0000    292.8800
    147    148    149   1    120.0000    527.1840
    147    148    171   1    120.0000    292.8800
    149    148    171   1    120.0000    292.8800
    148    149    150   1    120.0000    527.1840
    148    149    152   1    120.0000    585.7600
    150    149    152   1    120.0000    585.7600
    149    150    151   1    120.0000    527.1840
    149    150    172   1    120.0000    292.8800
    151    150    172   1    120.0000    292.8800
    146    151    150   1    120.0000    527.1840
    146    151    173   1    120.0000    292.8800
    150    151    173   1    120.0000    292.8800
    149    152    153   1    114.7000    711.2800
    152    153    154   1    120.0000    585.7600
    152    153    158   1    120.0000    585.7600
    154    153    158   1    120.0000    527.1840
    153    154    155   1    120.0000    527.1840
    153    154    174   1    120.0000    292.8800
    155    154    174   1    120.0000    292.8800
    154    155    156   1    120.0000    527.1840
    154    155    175   1    120.0000    292.8800
    156    155    175   1    120.0000    292.8800
    155    156    157   1    120.0000    527.1840
    155    156    159   1    122.7600    502.0800
    157    156    159   1    122.7600    502.0800
    156    157    158   1    120.0000    527.1840
    156    157    176   1    120.0000    292.8800
    158    157    176   1    120.0000    292.8800
    153    158    157   1    120.0000    527.1840
    153    158    177   1    120.0000    292.8800
    157    158    177   1    120.0000    292.8800
    156    159    160   1    122.7600    502.0800
    156    159    164   1    122.7600    502.0800
    160    159    164   1    120.0000    527.1840
    159    160    161   1    120.0000    527.1840
    159    160    178   1    120.0000    292.8800
    161    160    178   1    120.0000    292.8800
    160    161    162   1    120.0000    527.1840
    160    161    179   1    120.0000    292.8800
    162    161    179   1    120.0000    292.8800
    161    162    163   1    120.0000    527.1840
    161    162    165   1    120.0000    585.7600
    163    162    165   1    120.0000    585.7600
    162    163    164   1    120.0000    527.1840
    162    163    180   1    120.0000    292.8800
    164    163    180   1    120.0000    292.8800
    159    164    163   1    120.0000    527.1840
    159    164    181   1    120.0000    292.8800
    163    164    181   1    120.0000    292.8800
    162    165    182   1    114.7000    711.2800
    165    182    183   1    120.0000    585.7600
    165    182    187   1    120.0000    585.7600
    183    182    187   1    120.0000    527.1840
    182    183    184   1    120.0000    527.1840
    182    183    211   1    120.0000    292.8800
    184    183    211   1    120.0000    292.8800
    183    184    185   1    120.0000    527.1840
    183    184    212   1    120.0000    292.8800
    185    184    212   1    120.0000    292.8800
    184    185    186   1    120.0000    527.1840
    184    185    188   1    117.0670    543.9200
    186    185    188   1    117.0670    543.9200
    185    186    187   1    120.0000    527.1840
    185    186    213   1    120.0000    292.8800
    187    186    213   1    120.0000    292.8800
    182    187    186   1    120.0000    527.1840
    182    187    214   1    120.0000    292.8800
    186    187    214   1    120.0000    292.8800
    185    188    189   1    107.6710    836.8000
    185    188    190   1    107.6710    836.8000
    185    188    191   1    104.3600    658.3106
    189    188    190   1    120.1720    962.3200
    189    188    191   1    107.6710    836.8000
    190    188    191   1    107.6710    836.8000
    188    191    192   1    117.0670    543.9200
    188    191    196   1    117.0670    543.9200
    192    191    196   1    120.0000    527.1840
    191    192    193   1    120.0000    527.1840
    191    192    215   1    120.0000    292.8800
    193    192    215   1    120.0000    292.8800
    192    193    194   1    120.0000    527.1840
    192    193    216   1    120.0000    292.8800
    194    193    216   1    120.0000    292.8800
    193    194    195   1    120.0000    527.1840
    193    194    197   1    120.0000    585.7600
    195    194    197   1    120.0000    585.7600
    194    195    196   1    120.0000    527.1840
    194    195    217   1    120.0000    292.8800
    196    195    217   1    120.0000    292.8800
    191    196    195   1    120.0000    527.1840
    191    196    218   1    120.0000    292.8800
    195    196    218   1    120.0000    292.8800
    194    197    198   1    114.7000    711.2800
    197    198    199   1    120.0000    585.7600
    197    198    203   1    120.0000    585.7600
    199    198    203   1    120.0000    527.1840
    198    199    200   1    120.0000    527.1840
    198    199    219   1    120.0000    292.8800
    200    199    219   1    120.0000    292.8800
    199    200    201   1    120.0000    527.1840
    199    200    220   1    120.0000    292.8800
    201    200    220   1    120.0000    292.8800
    200    201    202   1    120.0000    527.1840
    200    201    204   1    122.7600    502.0800
    202    201    204   1    122.7600    502.0800
    201    202    203   1    120.0000    527.1840
    201    202    221   1    120.0000    292.8800
    203    202    221   1    120.0000    292.8800
    198    203    202   1    120.0000    527.1840
    198    203    222   1    120.0000    292.8800
    202    203    222   1    120.0000    292.8800
    201    204    205   1    122.7600    502.0800
    201    204    209   1    122.7600    502.0800
    205    204    209   1    120.0000    527.1840
    204    205    206   1    120.0000    527.1840
    204    205    223   1    120.0000    292.8800
    206    205    223   1    120.0000    292.8800
    205    206    207   1    120.0000    527.1840
    205    206    224   1    120.0000    292.8800
    207    206    224   1    120.0000    292.8800
    206    207    208   1    120.0000    527.1840
    206    207    210   1    120.0000    585.7600
    208    207    210   1    120.0000    585.7600
    207    208    209   1    120.0000    527.1840
    207    208    225   1    120.0000    292.8800
    209    208    225   1    120.0000    292.8800
    204    209    208   1    120.0000    527.1840
    204    209    226   1    120.0000    292.8800
    208    209    226   1    120.0000    292.8800
    207    210    227   1    114.7000    711.2800
    210    227    228   1    120.0000    585.7600
    210    227    232   1    120.0000    585.7600
    228    227    232   1    120.0000    527.1840
    227    228    229   1    120.0000    527.1840
    227    228    256   1    120.0000    292.8800
    229    228    256   1    120.0000    292.8800
    228    229    230   1    120.0000    527.1840
    228    229    257   1    120.0000    292.8800
    230    229    257   1    120.0000    292.8800
    229    230    231   1    120.0000    527.1840
    229    230    233   1    117.0670    543.9200
    231    230    233   1    117.0670    543.9200
    230    231    232   1    120.0000    527.1840
    230    231    258   1    120.0000    292.8800
    232    231    258   1    120.0000    292.8800
    227    232    231   1    120.0000    527.1840
    227    232    259   1    120.0000    292.8800
    231    232    259   1    120.0000    292.8800
    230    233    234   1    107.6710    836.8000
    230    233    235   1    107.6710    836.8000
    230    233    236   1    104.3600    658.3106
    234    233    235   1    120.1720    962.3200
    234    233    236   1    107.6710    836.8000
    235    233    236   1    107.6710    836.8000
    233    236    237   1    117.0670    543.9200
    233    236    241   1    117.0670    543.9200
    237    236    241   1    120.0000    527.1840
    236    237    238   1    120.0000    527.1840
    236    237    260   1    120.0000    292.8800
    238    237    260   1    120.0000    292.8800
    237    238    239   1    120.0000    527.1840
    237    238    261   1    120.0000    292.8800
    239    238    261   1    120.0000    292.8800
    238    239    240   1    120.0000    527.1840
    238    239    242   1    120.0000    585.7600
    240    239    242   1    120.0000    585.7600
    239    240    241   1    120.0000    527.1840
    239    240    262   1    120.0000    292.8800
    241    240    262   1    120.0000    292.8800
    236    241    240   1    120.0000    527.1840
    236    241    263   1    120.0000    292.8800
    240    241    263   1    120.0000    292.8800
    239    242    243   1    114.7000    711.2800
    242    243    244   1    120.0000    585.7600
    242    243    248   1    120.0000    585.7600
    244    243    248   1    120.0000    527.1840
    243    244    245   1    120.0000    527.1840
    243    244    264   1    120.0000    292.8800
    245    244    264   1    120.0000    292.8800
    244    245    246   1    120.0000    527.1840
    244    245    265   1    120.0000    292.8800
    246    245    265   1    120.0000    292.8800
    245    246    247   1    120.0000    527.1840
    245    246    249   1    122.7600    502.0800
    247    246    249   1    122.7600    502.0800
    246    247    248   1    120.0000    527.1840
    246    247    266   1    120.0000    292.8800
    248    247    266   1    120.0000    292.8800
    243    248    247   1    120.0000    527.1840
    243    248    267   1    120.0000    292.8800
    247    248    267   1    120.0000    292.8800
    246    249    250   1    122.7600    502.0800
    246    249    254   1    122.7600    502.0800
    250    249    254   1    120.0000    527.1840
    249    250    251   1    120.0000    527.1840
    249    250    268   1    120.0000    292.8800
    251    250    268   1    120.0000    292.8800
    250    251    252   1    120.0000    527.1840
    250    251    269   1    120.0000    292.8800
    252    251    269   1    120.0000    292.8800
    251    252    253   1    120.0000    527.1840
    251    252    255   1    120.0000    585.7600
    253    252    255   1    120.0000    585.7600
    252    253    254   1    120.0000    527.1840
    252    253    270   1    120.0000    292.8800
    254    253    270   1    120.0000    292.8800
    249    254    253   1    120.0000    527.1840
    249    254    271   1    120.0000    292.8800
    253    254    271   1    120.0000    292.8800
    252    255    272   1    114.7000    711.2800
    255    272    273   1    120.0000    585.7600
    255    272    277   1    120.0000    585.7600
    273    272    277   1    120.0000    527.1840
    272    273    274   1    120.0000    527.1840
    272    273    301   1    120.0000    292.8800
    274    273    301   1    120.0000    292.8800
    273    274    275   1    120.0000    527.1840
    273    274    302   1    120.0000    292.8800
    275    274    302   1    120.0000    292.8800
    274    275    276   1    120.0000    527.1840
    274    275    278   1    117.0670    543.9200
    276    275    278   1    117.0670    543.9200
    275    276    277   1    120.0000    527.1840
    275    276    303   1    120.0000    292.8800
    277    276    303   1    120.0000    292.8800
    272    277    276   1    120.0000    527.1840
    272    277    304   1    120.0000    292.8800
    276    277    304   1    120.0000    292.8800
    275    278    279   1    107.6710    836.8000
    275    278    280   1    107.6710    836.8000
    275    278    281   1    104.3600    658.3106
    279    278    280   1    120.1720    962.3200
    279    278    281   1    107.6710    836.8000
    280    278    281   1    107.6710    836.8000
    278    281    282   1    117.0670    543.9200
    278    281    286   1    117.0670    543.9200
    282    281    286   1    120.0000    527.1840
    281    282    283   1    120.0000    527.1840
    281    282    305   1    120.0000    292.8800
    283    282    305   1    120.0000    292.8800
    282    283    284   1    120.0000    527.1840
    282    283    306   1    120.0000    292.8800
    284    283    306   1    120.0000    292.8800
    283    284    285   1    120.0000    527.1840
    283    284    287   1    120.0000    585.7600
    285    284    287   1    120.0000    585.7600
    284    285    286   1    120.0000    527.1840
    284    285    307   1    120.0000    292.8800
    286    285    307   1    120.0000    292.8800
    281    286    285   1    120.0000    527.1840
    281    286    308   1    120.0000    292.8800
    285    286    308   1    120.0000    292.8800
    284    287    288   1    114.7000    711.2800
    287    288    289   1    120.0000    585.7600
    287    288    293   1    120.0000    585.7600
    289    288    293   1    120.0000    527.1840
    288    289    290   1    120.0000    527.1840
    288    289    309   1    120.0000    292.8800
    290    289    309   1    120.0000    292.8800
    289    290    291   1    120.0000    527.1840
    289    290    310   1    120.0000    292.8800
    291    290    310   1    120.0000    292.8800
    290    291    292   1    120.0000    527.1840
    290    291    294   1    122.7600    502.0800
    292    291    294   1    122.7600    502.0800
    291    292    293   1    120.0000    527.1840
    291    292    311   1    120.0000    292.8800
    293    292    311   1    120.0000    292.8800
    288    293    292   1    120.0000    527.1840
    288    293    312   1    120.0000    292.8800
    292    293    312   1    120.0000    292.8800
    291    294    295   1    122.7600    502.0800
    291    294    299   1    122.7600    502.0800
    295    294    299   1    120.0000    527.1840
    294    295    296   1    120.0000    527.1840
    294    295    313   1    120.0000    292.8800
    296    295    313   1    120.0000    292.8800
    295    296    297   1    120.0000    527.1840
    295    296    314   1    120.0000    292.8800
    297    296    314   1    120.0000    292.8800
    296    297    298   1    120.0000    527.1840
    296    297    300   1    120.0000    585.7600
    298    297    300   1    120.0000    585.7600
    297    298    299   1    120.0000    527.1840
    297    298    315   1    120.0000    292.8800
    299    298    315   1    120.0000    292.8800
    294    299    298   1    120.0000    527.1840
    294    299    316   1    120.0000    292.8800
    298    299    316   1    120.0000    292.8800
    297    300    317   1    114.7000    711.2800
    300    317    318   1    120.0000    585.7600
    300    317    322   1    120.0000    585.7600
    318    317    322   1    120.0000    527.1840
    317    318    319   1    120.0000    527.1840
    317    318    346   1    120.0000    292.8800
    319    318    346   1    120.0000    292.8800
    318    319    320   1    120.0000    527.1840
    318    319    347   1    120.0000    292.8800
    320    319    347   1    120.0000    292.8800
    319    320    321   1    120.0000    527.1840
    319    320    323   1    117.0670    543.9200
    321    320    323   1    117.0670    543.9200
    320    321    322   1    120.0000    527.1840
    320    321    348   1    120.0000    292.8800
    322    321    348   1    120.0000    292.8800
    317    322    321   1    120.0000    527.1840
    317    322    349   1    120.0000    292.8800
    321    322    349   1    120.0000    292.8800
    320    323    324   1    107.6710    836.8000
    320    323    325   1    107.6710    836.8000
    320    323    326   1    104.3600    658.3106
    324    323    325   1    120.1720    962.3200
    324    323    326   1    107.6710    836.8000
    325    323    326   1    107.6710    836.8000
    323    326    327   1    117.0670    543.9200
    323    326    331   1    117.0670    543.9200
    327    326    331   1    120.0000    527.1840
    326    327    328   1    120.0000    527.1840
    326    327    350   1    120.0000    292.8800
    328    327    350   1    120.0000    292.8800
    327    328    329   1    120.0000    527.1840
    327    328    351   1    120.0000    292.8800
    329    328    351   1    120.0000    292.8800
    328    329    330   1    120.0000    527.1840
    328    329    332   1    120.0000    585.7600
    330    329    332   1    120.0000    585.7600
    329    330    331   1    120.0000    527.1840
    329    330    352   1    120.0000    292.8800
    331    330    352   1    120.0000    292.8800
    326    331    330   1    120.0000    527.1840
    326    331    353   1    120.0000    292.8800
    330    331    353   1    120.0000    292.8800
    329    332    333   1    114.7000    711.2800
    332    333    334   1    120.0000    585.7600
    332    333    338   1    120.0000    585.7600
    334    333    338   1    120.0000    527.1840
    333    334    335   1    120.0000    527.1840
    333    334    354   1    120.0000    292.8800
    335    334    354   1    120.0000    292.8800
    334    335    336   1    120.0000    527.1840
    334    335    355   1    120.0000    292.8800
    336    335    355   1    120.0000    292.8800
    335    336    337   1    120.0000    527.1840
    335    336    339   1    122.7600    502.0800
    337    336    339   1    122.7600    502.0800
    336    337    338   1    120.0000    527.1840
    336    337    356   1    120.0000    292.8800
    338    337    356   1    120.0000    292.8800
    333    338    337   1    120.0000    527.1840
    333    338    357   1    120.0000    292.8800
    337    338    357   1    120.0000    292.8800
    336    339    340   1    122.7600    502.0800
    336    339    344   1    122.7600    502.0800
    340    339    344   1    120.0000    527.1840
    339    340    341   1    120.0000    527.1840
    339    340    358   1    120.0000    292.8800
    341    340    358   1    120.0000    292.8800
    340    341    342   1    120.0000    527.1840
    340    341    359   1    120.0000    292.8800
    342    341    359   1    120.0000    292.8800
    341    342    343   1    120.0000    527.1840
    341    342    345   1    120.0000    585.7600
    343    342    345   1    120.0000    585.7600
    342    343    344   1    120.0000    527.1840
    342    343    360   1    120.0000    292.8800
    344    343    360   1    120.0000    292.8800
    339    344    343   1    120.0000    527.1840
    339    344    361   1    120.0000    292.8800
    343    344    361   1    120.0000    292.8800
    342    345    362   1    114.7000    711.2800
    345    362    363   1    120.0000    585.7600
    345    362    367   1    120.0000    585.7600
    363    362    367   1    120.0000    527.1840
    362    363    364   1    120.0000    527.1840
    362    363    391   1    120.0000    292.8800
    364    363    391   1    120.0000    292.8800
    363    364    365   1    120.0000    527.1840
    363    364    392   1    120.0000    292.8800
    365    364    392   1    120.0000    292.8800
    364    365    366   1    120.0000    527.1840
    364    365    368   1    117.0670    543.9200
    366    365    368   1    117.0670    543.9200
    365    366    367   1    120.0000    527.1840
    365    366    393   1    120.0000    292.8800
    367    366    393   1    120.0000    292.8800
    362    367    366   1    120.0000    527.1840
    362    367    394   1    120.0000    292.8800
    366    367    394   1    120.0000    292.8800
    365    368    369   1    107.6710    836.8000
    365    368    370   1    107.6710    836.8000
    365    368    371   1    104.3600    658.3106
    369    368    370   1    120.1720    962.3200
    369    368    371   1    107.6710    836.8000
    370    368    371   1    107.6710    836.8000
    368    371    372   1    117.0670    543.9200
    368    371    376   1    117.0670    543.9200
    372    371    376   1    120.0000    527.1840
    371    372    373   1    120.0000    527.1840
    371    372    395   1    120.0000    292.8800
    373    372    395   1    120.0000    292.8800
    372    373    374   1    120.0000    527.1840
    372    373    396   1    120.0000    292.8800
    374    373    396   1    120.0000    292.8800
    373    374    375   1    120.0000    527.1840
    373    374    377   1    120.0000    585.7600
    375    374    377   1    120.0000    585.7600
    374    375    376   1    120.0000    527.1840
    374    375    397   1    120.0000    292.8800
    376    375    397   1    120.0000    292.8800
    371    376    375   1    120.0000    527.1840
    371    376    398   1    120.0000    292.8800
    375    376    398   1    120.0000    292.8800
    374    377    378   1    114.7000    711.2800
    377    378    379   1    120.0000    585.7600
    377    378    383   1    120.0000    585.7600
    379    378    383   1    120.0000    527.1840
    378    379    380   1    120.0000    527.1840
    378    379    399   1    120.0000    292.8800
    380    379    399   1    120.0000    292.8800
    379    380    381   1    120.0000    527.1840
    379    380    400   1    120.0000    292.8800
    381    380    400   1    120.0000    292.8800
    380    381    382   1    120.0000    527.1840
    380    381    384   1    122.7600    502.0800
    382    381    384   1    122.7600    502.0800
    381    382    383   1    120.0000    527.1840
    381    382    401   1    120.0000    292.8800
    383    382    401   1    120.0000    292.8800
    378    383    382   1    120.0000    527.1840
    378    383    402   1    120.0000    292.8800
    382    383    402   1    120.0000    292.8800
    381    384    385   1    122.7600    502.0800
    381    384    389   1    122.7600    502.0800
    385    384    389   1    120.0000    527.1840
    384    385    386   1    120.0000    527.1840
    384    385    403   1    120.0000    292.8800
    386    385    403   1    120.0000    292.8800
    385    386    387   1    120.0000    527.1840
    385    386    404   1    120.0000    292.8800
    387    386    404   1    120.0000    292.8800
    386    387    388   1    120.0000    527.1840
    386    387    390   1    120.0000    585.7600
    388    387    390   1    120.0000    585.7600
    387    388    389   1    120.0000    527.1840
    387    388    405   1    120.0000    292.8800
    389    388    405   1    120.0000    292.8800
    384    389    388   1    120.0000    527.1840
    384    389    406   1    120.0000    292.8800
    388    389    406   1    120.0000    292.8800
    387    390    407   1    114.7000    711.2800
    390    407    408   1    120.0000    585.7600
    390    407    412   1    120.0000    585.7600
    408    407    412   1    120.0000    527.1840
    407    408    409   1    120.0000    527.1840
    407    408    436   1    120.0000    292.8800
    409    408    436   1    120.0000    292.8800
    408    409    410   1    120.0000    527.1840
    408    409    437   1    120.0000    292.8800
    410    409    437   1    120.0000    292.8800
    409    410    411   1    120.0000    527.1840
    409    410    413   1    117.0670    543.9200
    411    410    413   1    117.0670    543.9200
    410    411    412   1    120.0000    527.1840
    410    411    438   1    120.0000    292.8800
    412    411    438   1    120.0000    292.8800
    407    412    411   1    120.0000    527.1840
    407    412    439   1    120.0000    292.8800
    411    412    439   1    120.0000    292.8800
    410    413    414   1    107.6710    836.8000
    410    413    415   1    107.6710    836.8000
    410    413    416   1    104.3600    658.3106
    414    413    415   1    120.1720    962.3200
    414    413    416   1    107.6710    836.8000
    415    413    416   1    107.6710    836.8000
    413    416    417   1    117.0670    543.9200
    413    416    421   1    117.0670    543.9200
    417    416    421   1    120.0000    527.1840
    416    417    418   1    120.0000    527.1840
    416    417    440   1    120.0000    292.8800
    418    417    440   1    120.0000    292.8800
    417    418    419   1    120.0000    527.1840
    417    418    441   1    120.0000    292.8800
    419    418    441   1    120.0000    292.8800
    418    419    420   1    120.0000    527.1840
    418    419    422   1    120.0000    585.7600
    420    419    422   1    120.0000    585.7600
    419    420    421   1    120.0000    527.1840
    419    420    442   1    120.0000    292.8800
    421    420    442   1    120.0000    292.8800
    416    421    420   1    120.0000    527.1840
    416    421    443   1    120.0000    292.8800
    420    421    443   1    120.0000    292.8800
    419    422    423   1    114.7000    711.2800
    422    423    424   1    120.0000    585.7600
    422    423    428   1    120.0000    585.7600
    424    423    428   1    120.0000    527.1840
    423    424    425   1    120.0000    527.1840
    423    424    444   1    120.0000    292.8800
    425    424    444   1    120.0000    292.8800
    424    425    426   1    120.0000    527.1840
    424    425    445   1    120.0000    292.8800
    426    425    445   1    120.0000    292.8800
    425    426    427   1    120.0000    527.1840
    425    426    429   1    122.7600    502.0800
    427    426    429   1    122.7600    502.0800
    426    427    428   1    120.0000    527.1840
    426    427    446   1    120.0000    292.8800
    428    427    446   1    120.0000    292.8800
    423    428    427   1    120.0000    527.1840
    423    428    447   1    120.0000    292.8800
    427    428    447   1    120.0000    292.8800
    426    429    430   1    122.7600    502.0800
    426    429    434   1    122.7600    502.0800
    430    429    434   1    120.0000    527.1840
    429    430    431   1    120.0000    527.1840
    429    430    448   1    120.0000    292.8800
    431    430    448   1    120.0000    292.8800
    430    431    432   1    120.0000    527.1840
    430    431    449   1    120.0000    292.8800
    432    431    449   1    120.0000    292.8800
    431    432    433   1    120.0000    527.1840
    431    432    435   1    120.0000    585.7600
    433    432    435   1    120.0000    585.7600
    432    433    434   1    120.0000    527.1840
    432    433    450   1    120.0000    292.8800
    434    433    450   1    120.0000    292.8800
    429    434    433   1    120.0000    527.1840
    429    434    451   1    120.0000    292.8800
    433    434    451   1    120.0000    292.8800
    432    435    452   1    114.7000    711.2800
    435    452    453   1    120.0000    585.7600
    435    452    457   1    120.0000    585.7600
    453    452    457   1    120.0000    527.1840
    452    453    454   1    120.0000    527.1840
    452    453    481   1    120.0000    292.8800
    454    453    481   1    120.0000    292.8800
    453    454    455   1    120.0000    527.1840
    453    454    482   1    120.0000    292.8800
    455    454    482   1    120.0000    292.8800
    454    455    456   1    120.0000    527.1840
    454    455    458   1    117.0670    543.9200
    456    455    458   1    117.0670    543.9200
    455    456    457   1    120.0000    527.1840
    455    456    483   1    120.0000    292.8800
    457    456    483   1    120.0000    292.8800
    452    457    456   1    120.0000    527.1840
    452    457    484   1    120.0000    292.8800
    456    457    484   1    120.0000    292.8800
    455    458    459   1    107.6710    836.8000
    455    458    460   1    107.6710    836.8000
    455    458    461   1    104.3600    658.3106
    459    458    460   1    120.1720    962.3200
    459    458    461   1    107.6710    836.8000
    460    458    461   1    107.6710    836.8000
    458    461    462   1    117.0670    543.9200
    458    461    466   1    117.0670    543.9200
    462    461    466   1    120.0000    527.1840
    461    462    463   1    120.0000    527.1840
    461    462    485   1    120.0000    292.8800
    463    462    485   1    120.0000    292.8800
    462    463    464   1    120.0000    527.1840
    462    463    486   1    120.0000    292.8800
    464    463    486   1    120.0000    292.8800
    463    464    465   1    120.0000    527.1840
    463    464    467   1    120.0000    585.7600
    465    464    467   1    120.0000    585.7600
    464    465    466   1    120.0000    527.1840
    464    465    487   1    120.0000    292.8800
    466    465    487   1    120.0000    292.8800
    461    466    465   1    120.0000    527.1840
    461    466    488   1    120.0000    292.8800
    465    466    488   1    120.0000    292.8800
    464    467    468   1    114.7000    711.2800
    467    468    469   1    120.0000    585.7600
    467    468    473   1    120.0000    585.7600
    469    468    473   1    120.0000    527.1840
    468    469    470   1    120.0000    527.1840
    468    469    489   1    120.0000    292.8800
    470    469    489   1    120.0000    292.8800
    469    470    471   1    120.0000    527.1840
    469    470    490   1    120.0000    292.8800
    471    470    490   1    120.0000    292.8800
    470    471    472   1    120.0000    527.1840
    470    471    474   1    122.7600    502.0800
    472    471    474   1    122.7600    502.0800
    471    472    473   1    120.0000    527.1840
    471    472    491   1    120.0000    292.8800
    473    472    491   1    120.0000    292.8800
    468    473    472   1    120.0000    527.1840
    468    473    492   1    120.0000    292.8800
    472    473    492   1    120.0000    292.8800
    471    474    475   1    122.7600    502.0800
    471    474    479   1    122.7600    502.0800
    475    474    479   1    120.0000    527.1840
    474    475    476   1    120.0000    527.1840
    474    475    493   1    120.0000    292.8800
    476    475    493   1    120.0000    292.8800
    475    476    477   1    120.0000    527.1840
    475    476    494   1    120.0000    292.8800
    477    476    494   1    120.0000    292.8800
    476    477    478   1    120.0000    527.1840
    476    477    480   1    120.0000    585.7600
    478    477    480   1    120.0000    585.7600
    477    478    479   1    120.0000    527.1840
    477    478    495   1    120.0000    292.8800
    479    478    495   1    120.0000    292.8800
    474    479    478   1    120.0000    527.1840
    474    479    496   1    120.0000    292.8800
    478    479    496   1    120.0000    292.8800
    477    480    497   1    114.7000    711.2800
    480    497    498   1    120.0000    585.7600
    480    497    502   1    120.0000    585.7600
    498    497    502   1    120.0000    527.1840
    497    498    499   1    120.0000    527.1840
    497    498    526   1    120.0000    292.8800
    499    498    526   1    120.0000    292.8800
    498    499    500   1    120.0000    527.1840
    498    499    527   1    120.0000    292.8800
    500    499    527   1    120.0000    292.8800
    499    500    501   1    120.0000    527.1840
    499    500    503   1    117.0670    543.9200
    501    500    503   1    117.0670    543.9200
    500    501    502   1    120.0000    527.1840
    500    501    528   1    120.0000    292.8800
    502    501    528   1    120.0000    292.8800
    497    502    501   1    120.0000    527.1840
    497    502    529   1    120.0000    292.8800
    501    502    529   1    120.0000    292.8800
    500    503    504   1    107.6710    836.8000
    500    503    505   1    107.6710    836.8000
    500    503    506   1    104.3600    658.3106
    504    503    505   1    120.1720    962.3200
    504    503    506   1    107.6710    836.8000
    505    503    506   1    107.6710    836.8000
    503    506    507   1    117.0670    543.9200
    503    506    511   1    117.0670    543.9200
    507    506    511   1    120.0000    527.1840
    506    507    508   1    120.0000    527.1840
    506    507    530   1    120.0000    292.8800
    508    507    530   1    120.0000    292.8800
    507    508    509   1    120.0000    527.1840
    507    508    531   1    120.0000    292.8800
    509    508    531   1    120.0000    292.8800
    508    509    510   1    120.0000    527.1840
    508    509    512   1    120.0000    585.7600
    510    509    512   1    120.0000    585.7600
    509    510    511   1    120.0000    527.1840
    509    510    532   1    120.0000    292.8800
    511    510    532   1    120.0000    292.8800
    506    511    510   1    120.0000    527.1840
    506    511    533   1    120.0000    292.8800
    510    511    533   1    120.0000    292.8800
    509    512    513   1    114.7000    711.2800
    512    513    514   1    120.0000    585.7600
    512    513    518   1    120.0000    585.7600
    514    513    518   1    120.0000    527.1840
    513    514    515   1    120.0000    527.1840
    513    514    534   1    120.0000    292.8800
    515    514    534   1    120.0000    292.8800
    514    515    516   1    120.0000    527.1840
    514    515    535   1    120.0000    292.8800
    516    515    535   1    120.0000    292.8800
    515    516    517   1    120.0000    527.1840
    515    516    519   1    122.7600    502.0800
    517    516    519   1    122.7600    502.0800
    516    517    518   1    120.0000    527.1840
    516    517    536   1    120.0000    292.8800
    518    517    536   1    120.0000    292.8800
    513    518    517   1    120.0000    527.1840
    513    518    537   1    120.0000    292.8800
    517    518    537   1    120.0000    292.8800
    516    519    520   1    122.7600    502.0800
    516    519    524   1    122.7600    502.0800
    520    519    524   1    120.0000    527.1840
    519    520    521   1    120.0000    527.1840
    519    520    538   1    120.0000    292.8800
    521    520    538   1    120.0000    292.8800
    520    521    522   1    120.0000    527.1840
    520    521    539   1    120.0000    292.8800
    522    521    539   1    120.0000    292.8800
    521    522    523   1    120.0000    527.1840
    521    522    525   1    120.0000    585.7600
    523    522    525   1    120.0000    585.7600
    522    523    524   1    120.0000    527.1840
    522    523    540   1    120.0000    292.8800
    524    523    540   1    120.0000    292.8800
    519    524    523   1    120.0000    527.1840
    519    524    541   1    120.0000    292.8800
    523    524    541   1    120.0000    292.8800
    522    525    542   1    114.7000    711.2800
    525    542    543   1    120.0000    585.7600
    525    542    547   1    120.0000    585.7600
    543    542    547   1    120.0000    527.1840
    542    543    544   1    120.0000    527.1840
    542    543    571   1    120.0000    292.8800
    544    543    571   1    120.0000    292.8800
    543    544    545   1    120.0000    527.1840
    543    544    572   1    120.0000    292.8800
    545    544    572   1    120.0000    292.8800
    544    545    546   1    120.0000    527.1840
    544    545    548   1    117.0670    543.9200
    546    545    548   1    117.0670    543.9200
    545    546    547   1    120.0000    527.1840
    545    546    573   1    120.0000    292.8800
    547    546    573   1    120.0000    292.8800
    542    547    546   1    120.0000    527.1840
    542    547    574   1    120.0000    292.8800
    546    547    574   1    120.0000    292.8800
    545    548    549   1    107.6710    836.8000
    545    548    550   1    107.6710    836.8000
    545    548    551   1    104.3600    658.3106
    549    548    550   1    120.1720    962.3200
    549    548    551   1    107.6710    836.8000
    550    548    551   1    107.6710    836.8000
    548    551    552   1    117.0670    543.9200
    548    551    556   1    117.0670    543.9200
    552    551    556   1    120.0000    527.1840
    551    552    553   1    120.0000    527.1840
    551    552    575   1    120.0000    292.8800
    553    552    575   1    120.0000    292.8800
    552    553    554   1    120.0000    527.1840
    552    553    576   1    120.0000    292.8800
    554    553    576   1    120.0000    292.8800
    553    554    555   1    120.0000    527.1840
    553    554    557   1    120.0000    585.7600
    555    554    557   1    120.0000    585.7600
    554    555    556   1    120.0000    527.1840
    554    555    577   1    120.0000    292.8800
    556    555    577   1    120.0000    292.8800
    551    556    555   1    120.0000    527.1840
    551    556    578   1    120.0000    292.8800
    555    556    578   1    120.0000    292.8800
    554    557    558   1    114.7000    711.2800
    557    558    559   1    120.0000    585.7600
    557    558    563   1    120.0000    585.7600
    559    558    563   1    120.0000    527.1840
    558    559    560   1    120.0000    527.1840
    558    559    579   1    120.0000    292.8800
    560    559    579   1    120.0000    292.8800
    559    560    561   1    120.0000    527.1840
    559    560    580   1    120.0000    292.8800
    561    560    580   1    120.0000    292.8800
    560    561    562   1    120.0000    527.1840
    560    561    564   1    122.7600    502.0800
    562    561    564   1    122.7600    502.0800
    561    562    563   1    120.0000    527.1840
    561    562    581   1    120.0000    292.8800
    563    562    581   1    120.0000    292.8800
    558    563    562   1    120.0000    527.1840
    558    563    582   1    120.0000    292.8800
    562    563    582   1    120.0000    292.8800
    561    564    565   1    122.7600    502.0800
    561    564    569   1    122.7600    502.0800
    565    564    569   1    120.0000    527.1840
    564    565    566   1    120.0000    527.1840
    564    565    583   1    120.0000    292.8800
    566    565    583   1    120.0000    292.8800
    565    566    567   1    120.0000    527.1840
    565    566    584   1    120.0000    292.8800
    567    566    584   1    120.0000    292.8800
    566    567    568   1    120.0000    527.1840
    566    567    570   1    120.0000    585.7600
    568    567    570   1    120.0000    585.7600
    567    568    569   1    120.0000    527.1840
    567    568    585   1    120.0000    292.8800
    569    568    585   1    120.0000    292.8800
    564    569    568   1    120.0000    527.1840
    564    569    586   1    120.0000    292.8800
    568    569    586   1    120.0000    292.8800
    567    570    587   1    114.7000    711.2800
    570    587    588   1    120.0000    585.7600
    570    587    592   1    120.0000    585.7600
    588    587    592   1    120.0000    527.1840
    587    588    589   1    120.0000    527.1840
    587    588    616   1    120.0000    292.8800
    589    588    616   1    120.0000    292.8800
    588    589    590   1    120.0000    527.1840
    588    589    617   1    120.0000    292.8800
    590    589    617   1    120.0000    292.8800
    589    590    591   1    120.0000    527.1840
    589    590    593   1    117.0670    543.9200
    591    590    593   1    117.0670    543.9200
    590    591    592   1    120.0000    527.1840
    590    591    618   1    120.0000    292.8800
    592    591    618   1    120.0000    292.8800
    587    592    591   1    120.0000    527.1840
    587    592    619   1    120.0000    292.8800
    591    592    619   1    120.0000    292.8800
    590    593    594   1    107.6710    836.8000
    590    593    595   1    107.6710    836.8000
    590    593    596   1    104.3600    658.3106
    594    593    595   1    120.1720    962.3200
    594    593    596   1    107.6710    836.8000
    595    593    596   1    107.6710    836.8000
    593    596    597   1    117.0670    543.9200
    593    596    601   1    117.0670    543.9200
    597    596    601   1    120.0000    527.1840
    596    597    598   1    120.0000    527.1840
    596    597    620   1    120.0000    292.8800
    598    597    620   1    120.0000    292.8800
    597    598    599   1    120.0000    527.1840
    597    598    621   1    120.0000    292.8800
    599    598    621   1    120.0000    292.8800
    598    599    600   1    120.0000    527.1840
    598    599    602   1    120.0000    585.7600
    600    599    602   1    120.0000    585.7600
    599    600    601   1    120.0000    527.1840
    599    600    622   1    120.0000    292.8800
    601    600    622   1    120.0000    292.8800
    596    601    600   1    120.0000    527.1840
    596    601    623   1    120.0000    292.8800
    600    601    623   1    120.0000    292.8800
    599    602    603   1    114.7000    711.2800
    602    603    604   1    120.0000    585.7600
    602    603    608   1    120.0000    585.7600
    604    603    608   1    120.0000    527.1840
    603    604    605   1    120.0000    527.1840
    603    604    624   1    120.0000    292.8800
    605    604    624   1    120.0000    292.8800
    604    605    606   1    120.0000    527.1840
    604    605    625   1    120.0000    292.8800
    606    605    625   1    120.0000    292.8800
    605    606    607   1    120.0000    527.1840
    605    606    609   1    122.7600    502.0800
    607    606    609   1    122.7600    502.0800
    606    607    608   1    120.0000    527.1840
    606    607    626   1    120.0000    292.8800
    608    607    626   1    120.0000    292.8800
    603    608    607   1    120.0000    527.1840
    603    608    627   1    120.0000    292.8800
    607    608    627   1    120.0000    292.8800
    606    609    610   1    122.7600    502.0800
    606    609    614   1    122.7600    502.0800
    610    609    614   1    120.0000    527.1840
    609    610    611   1    120.0000    527.1840
    609    610    628   1    120.0000    292.8800
    611    610    628   1    120.0000    292.8800
    610    611    612   1    120.0000    527.1840
    610    611    629   1    120.0000    292.8800
    612    611    629   1    120.0000    292.8800
    611    612    613   1    120.0000    527.1840
    611    612    615   1    120.0000    585.7600
    613    612    615   1    120.0000    585.7600
    612    613    614   1    120.0000    527.1840
    612    613    630   1    120.0000    292.8800
    614    613    630   1    120.0000    292.8800
    609    614    613   1    120.0000    527.1840
    609    614    631   1    120.0000    292.8800
    613    614    631   1    120.0000    292.8800
    612    615    632   1    114.7000    711.2800
    615    632    633   1    120.0000    585.7600
    615    632    637   1    120.0000    585.7600
    633    632    637   1    120.0000    527.1840
    632    633    634   1    120.0000    527.1840
    632    633    661   1    120.0000    292.8800
    634    633    661   1    120.0000    292.8800
    633    634    635   1    120.0000    527.1840
    633    634    662   1    120.0000    292.8800
    635    634    662   1    120.0000    292.8800
    634    635    636   1    120.0000    527.1840
    634    635    638   1    117.0670    543.9200
    636    635    638   1    117.0670    543.9200
    635    636    637   1    120.0000    527.1840
    635    636    663   1    120.0000    292.8800
    637    636    663   1    120.0000    292.8800
    632    637    636   1    120.0000    527.1840
    632    637    664   1    120.0000    292.8800
    636    637    664   1    120.0000    292.8800
    635    638    639   1    107.6710    836.8000
    635    638    640   1    107.6710    836.8000
    635    638    641   1    104.3600    658.3106
    639    638    640   1    120.1720    962.3200
    639    638    641   1    107.6710    836.8000
    640    638    641   1    107.6710    836.8000
    638    641    642   1    117.0670    543.9200
    638    641    646   1    117.0670    543.9200
    642    641    646   1    120.0000    527.1840
    641    642    643   1    120.0000    527.1840
    641    642    665   1    120.0000    292.8800
    643    642    665   1    120.0000    292.8800
    642    643    644   1    120.0000    527.1840
    642    643    666   1    120.0000    292.8800
    644    643    666   1    120.0000    292.8800
    643    644    645   1    120.0000    527.1840
    643    644    647   1    120.0000    585.7600
    645    644    647   1    120.0000    585.7600
    644    645    646   1    120.0000    527.1840
    644    645    667   1    120.0000    292.8800
    646    645    667   1    120.0000    292.8800
    641    646    645   1    120.0000    527.1840
    641    646    668   1    120.0000    292.8800
    645    646    668   1    120.0000    292.8800
    644    647    648   1    114.7000    711.2800
    647    648    649   1    120.0000    585.7600
    647    648    653   1    120.0000    585.7600
    649    648    653   1    120.0000    527.1840
    648    649    650   1    120.0000    527.1840
    648    649    669   1    120.0000    292.8800
    650    649    669   1    120.0000    292.8800
    649    650    651   1    120.0000    527.1840
    649    650    670   1    120.0000    292.8800
    651    650    670   1    120.0000    292.8800
    650    651    652   1    120.0000    527.1840
    650    651    654   1    122.7600    502.0800
    652    651    654   1    122.7600    502.0800
    651    652    653   1    120.0000    527.1840
    651    652    671   1    120.0000    292.8800
    653    652    671   1    120.0000    292.8800
    648    653    652   1    120.0000    527.1840
    648    653    672   1    120.0000    292.8800
    652    653    672   1    120.0000    292.8800
    651    654    655   1    122.7600    502.0800
    651    654    659   1    122.7600    502.0800
    655    654    659   1    120.0000    527.1840
    654    655    656   1    120.0000    527.1840
    654    655    673   1    120.0000    292.8800
    656    655    673   1    120.0000    292.8800
    655    656    657   1    120.0000    527.1840
    655    656    674   1    120.0000    292.8800
    657    656    674   1    120.0000    292.8800
    656    657    658   1    120.0000    527.1840
    656    657    660   1    120.0000    585.7600
    658    657    660   1    120.0000    585.7600
    657    658    659   1    120.0000    527.1840
    657    658    675   1    120.0000    292.8800
    659    658    675   1    120.0000    292.8800
    654    659    658   1    120.0000    527.1840
    654    659    676   1    120.0000    292.8800
    658    659    676   1    120.0000    292.8800
    657    660    677   1    114.7000    711.2800
    660    677    678   1    120.0000    585.7600
    660    677    682   1    120.0000    585.7600
    678    677    682   1    120.0000    527.1840
    677    678    679   1    120.0000    527.1840
    677    678    706   1    120.0000    292.8800
    679    678    706   1    120.0000    292.8800
    678    679    680   1    120.0000    527.1840
    678    679    707   1    120.0000    292.8800
    680    679    707   1    120.0000    292.8800
    679    680    681   1    120.0000    527.1840
    679    680    683   1    117.0670    543.9200
    681    680    683   1    117.0670    543.9200
    680    681    682   1    120.0000    527.1840
    680    681    708   1    120.0000    292.8800
    682    681    708   1    120.0000    292.8800
    677    682    681   1    120.0000    527.1840
    677    682    709   1    120.0000    292.8800
    681    682    709   1    120.0000    292.8800
    680    683    684   1    107.6710    836.8000
    680    683    685   1    107.6710    836.8000
    680    683    686   1    104.3600    658.3106
    684    683    685   1    120.1720    962.3200
    684    683    686   1    107.6710    836.8000
    685    683    686   1    107.6710    836.8000
    683    686    687   1    117.0670    543.9200
    683    686    691   1    117.0670    543.9200
    687    686    691   1    120.0000    527.1840
    686    687    688   1    120.0000    527.1840
    686    687    710   1    120.0000    292.8800
    688    687    710   1    120.0000    292.8800
    687    688    689   1    120.0000    527.1840
    687    688    711   1    120.0000    292.8800
    689    688    711   1    120.0000    292.8800
    688    689    690   1    120.0000    527.1840
    688    689    692   1    120.0000    585.7600
    690    689    692   1    120.0000    585.7600
    689    690    691   1    120.0000    527.1840
    689    690    712   1    120.0000    292.8800
    691    690    712   1    120.0000    292.8800
    686    691    690   1    120.0000    527.1840
    686    691    713   1    120.0000    292.8800
    690    691    713   1    120.0000    292.8800
    689    692    693   1    114.7000    711.2800
    692    693    694   1    120.0000    585.7600
    692    693    698   1    120.0000    585.7600
    694    693    698   1    120.0000    527.1840
    693    694    695   1    120.0000    527.1840
    693    694    714   1    120.0000    292.8800
    695    694    714   1    120.0000    292.8800
    694    695    696   1    120.0000    527.1840
    694    695    715   1    120.0000    292.8800
    696    695    715   1    120.0000    292.8800
    695    696    697   1    120.0000    527.1840
    695    696    699   1    122.7600    502.0800
    697    696    699   1    122.7600    502.0800
    696    697    698   1    120.0000    527.1840
    696    697    716   1    120.0000    292.8800
    698    697    716   1    120.0000    292.8800
    693    698    697   1    120.0000    527.1840
    693    698    717   1    120.0000    292.8800
    697    698    717   1    120.0000    292.8800
    696    699    700   1    122.7600    502.0800
    696    699    704   1    122.7600    502.0800
    700    699    704   1    120.0000    527.1840
    699    700    701   1    120.0000    527.1840
    699    700    718   1    120.0000    292.8800
    701    700    718   1    120.0000    292.8800
    700    701    702   1    120.0000    527.1840
    700    701    719   1    120.0000    292.8800
    702    701    719   1    120.0000    292.8800
    701    702    703   1    120.0000    527.1840
    701    702    705   1    120.0000    585.7600
    703    702    705   1    120.0000    585.7600
    702    703    704   1    120.0000    527.1840
    702    703    720   1    120.0000    292.8800
    704    703    720   1    120.0000    292.8800
    699    704    703   1    120.0000    527.1840
    699    704    721   1    120.0000    292.8800
    703    704    721   1    120.0000    292.8800
    702    705    722   1    114.7000    711.2800
    705    722    723   1    120.0000    585.7600
    705    722    727   1    120.0000    585.7600
    723    722    727   1    120.0000    527.1840
    722    723    724   1    120.0000    527.1840
    722    723    751   1    120.0000    292.8800
    724    723    751   1    120.0000    292.8800
    723    724    725   1    120.0000    527.1840
    723    724    752   1    120.0000    292.8800
    725    724    752   1    120.0000    292.8800
    724    725    726   1    120.0000    527.1840
    724    725    728   1    117.0670    543.9200
    726    725    728   1    117.0670    543.9200
    725    726    727   1    120.0000    527.1840
    725    726    753   1    120.0000    292.8800
    727    726    753   1    120.0000    292.8800
    722    727    726   1    120.0000    527.1840
    722    727    754   1    120.0000    292.8800
    726    727    754   1    120.0000    292.8800
    725    728    729   1    107.6710    836.8000
    725    728    730   1    107.6710    836.8000
    725    728    731   1    104.3600    658.3106
    729    728    730   1    120.1720    962.3200
    729    728    731   1    107.6710    836.8000
    730    728    731   1    107.6710    836.8000
    728    731    732   1    117.0670    543.9200
    728    731    736   1    117.0670    543.9200
    732    731    736   1    120.0000    527.1840
    731    732    733   1    120.0000    527.1840
    731    732    755   1    120.0000    292.8800
    733    732    755   1    120.0000    292.8800
    732    733    734   1    120.0000    527.1840
    732    733    756   1    120.0000    292.8800
    734    733    756   1    120.0000    292.8800
    733    734    735   1    120.0000    527.1840
    733    734    737   1    120.0000    585.7600
    735    734    737   1    120.0000    585.7600
    734    735    736   1    120.0000    527.1840
    734    735    757   1    120.0000    292.8800
    736    735    757   1    120.0000    292.8800
    731    736    735   1    120.0000    527.1840
    731    736    758   1    120.0000    292.8800
    735    736    758   1    120.0000    292.8800
    734    737    738   1    114.7000    711.2800
    737    738    739   1    120.0000    585.7600
    737    738    743   1    120.0000    585.7600
    739    738    743   1    120.0000    527.1840
    738    739    740   1    120.0000    527.1840
    738    739    759   1    120.0000    292.8800
    740    739    759   1    120.0000    292.8800
    739    740    741   1    120.0000    527.1840
    739    740    760   1    120.0000    292.8800
    741    740    760   1    120.0000    292.8800
    740    741    742   1    120.0000    527.1840
    740    741    744   1    122.7600    502.0800
    742    741    744   1    122.7600    502.0800
    741    742    743   1    120.0000    527.1840
    741    742    761   1    120.0000    292.8800
    743    742    761   1    120.0000    292.8800
    738    743    742   1    120.0000    527.1840
    738    743    762   1    120.0000    292.8800
    742    743    762   1    120.0000    292.8800
    741    744    745   1    122.7600    502.0800
    741    744    749   1    122.7600    502.0800
    745    744    749   1    120.0000    527.1840
    744    745    746   1    120.0000    527.1840
    744    745    763   1    120.0000    292.8800
    746    745    763   1    120.0000    292.8800
    745    746    747   1    120.0000    527.1840
    745    746    764   1    120.0000    292.8800
    747    746    764   1    120.0000    292.8800
    746    747    748   1    120.0000    527.1840
    746    747    750   1    120.0000    585.7600
    748    747    750   1    120.0000    585.7600
    747    748    749   1    120.0000    527.1840
    747    748    765   1    120.0000    292.8800
    749    748    765   1    120.0000    292.8800
    744    749    748   1    120.0000    527.1840
    744    749    766   1    120.0000    292.8800
    748    749    766   1    120.0000    292.8800
    747    750    767   1    114.7000    711.2800
    750    767    768   1    120.0000    585.7600
    750    767    772   1    120.0000    585.7600
    768    767    772   1    120.0000    527.1840
    767    768    769   1    120.0000    527.1840
    767    768    796   1    120.0000    292.8800
    769    768    796   1    120.0000    292.8800
    768    769    770   1    120.0000    527.1840
    768    769    797   1    120.0000    292.8800
    770    769    797   1    120.0000    292.8800
    769    770    771   1    120.0000    527.1840
    769    770    773   1    117.0670    543.9200
    771    770    773   1    117.0670    543.9200
    770    771    772   1    120.0000    527.1840
    770    771    798   1    120.0000    292.8800
    772    771    798   1    120.0000    292.8800
    767    772    771   1    120.0000    527.1840
    767    772    799   1    120.0000    292.8800
    771    772    799   1    120.0000    292.8800
    770    773    774   1    107.6710    836.8000
    770    773    775   1    107.6710    836.8000
    770    773    776   1    104.3600    658.3106
    774    773    775   1    120.1720    962.3200
    774    773    776   1    107.6710    836.8000
    775    773    776   1    107.6710    836.8000
    773    776    777   1    117.0670    543.9200
    773    776    781   1    117.0670    543.9200
    777    776    781   1    120.0000    527.1840
    776    777    778   1    120.0000    527.1840
    776    777    800   1    120.0000    292.8800
    778    777    800   1    120.0000    292.8800
    777    778    779   1    120.0000    527.1840
    777    778    801   1    120.0000    292.8800
    779    778    801   1    120.0000    292.8800
    778    779    780   1    120.0000    527.1840
    778    779    782   1    120.0000    585.7600
    780    779    782   1    120.0000    585.7600
    779    780    781   1    120.0000    527.1840
    779    780    802   1    120.0000    292.8800
    781    780    802   1    120.0000    292.8800
    776    781    780   1    120.0000    527.1840
    776    781    803   1    120.0000    292.8800
    780    781    803   1    120.0000    292.8800
    779    782    783   1    114.7000    711.2800
    782    783    784   1    120.0000    585.7600
    782    783    788   1    120.0000    585.7600
    784    783    788   1    120.0000    527.1840
    783    784    785   1    120.0000    527.1840
    783    784    804   1    120.0000    292.8800
    785    784    804   1    120.0000    292.8800
    784    785    786   1    120.0000    527.1840
    784    785    805   1    120.0000    292.8800
    786    785    805   1    120.0000    292.8800
    785    786    787   1    120.0000    527.1840
    785    786    789   1    122.7600    502.0800
    787    786    789   1    122.7600    502.0800
    786    787    788   1    120.0000    527.1840
    786    787    806   1    120.0000    292.8800
    788    787    806   1    120.0000    292.8800
    783    788    787   1    120.0000    527.1840
    783    788    807   1    120.0000    292.8800
    787    788    807   1    120.0000    292.8800
    786    789    790   1    122.7600    502.0800
    786    789    794   1    122.7600    502.0800
    790    789    794   1    120.0000    527.1840
    789    790    791   1    120.0000    527.1840
    789    790    808   1    120.0000    292.8800
    791    790    808   1    120.0000    292.8800
    790    791    792   1    120.0000    527.1840
    790    791    809   1    120.0000    292.8800
    792    791    809   1    120.0000    292.8800
    791    792    793   1    120.0000    527.1840
    791    792    795   1    120.0000    585.7600
    793    792    795   1    120.0000    585.7600
    792    793    794   1    120.0000    527.1840
    792    793    810   1    120.0000    292.8800
    794    793    810   1    120.0000    292.8800
    789    794    793   1    120.0000    527.1840
    789    794    811   1    120.0000    292.8800
    793    794    811   1    120.0000    292.8800
    792    795    812   1    114.7000    711.2800
    795    812    813   1    120.0000    585.7600
    795    812    817   1    120.0000    585.7600
    813    812    817   1    120.0000    527.1840
    812    813    814   1    120.0000    527.1840
    812    813    841   1    120.0000    292.8800
    814    813    841   1    120.0000    292.8800
    813    814    815   1    120.0000    527.1840
    813    814    842   1    120.0000    292.8800
    815    814    842   1    120.0000    292.8800
    814    815    816   1    120.0000    527.1840
    814    815    818   1    117.0670    543.9200
    816    815    818   1    117.0670    543.9200
    815    816    817   1    120.0000    527.1840
    815    816    843   1    120.0000    292.8800
    817    816    843   1    120.0000    292.8800
    812    817    816   1    120.0000    527.1840
    812    817    844   1    120.0000    292.8800
    816    817    844   1    120.0000    292.8800
    815    818    819   1    107.6710    836.8000
    815    818    820   1    107.6710    836.8000
    815    818    821   1    104.3600    658.3106
    819    818    820   1    120.1720    962.3200
    819    818    821   1    107.6710    836.8000
    820    818    821   1    107.6710    836.8000
    818    821    822   1    117.0670    543.9200
    818    821    826   1    117.0670    543.9200
    822    821    826   1    120.0000    527.1840
    821    822    823   1    120.0000    527.1840
    821    822    845   1    120.0000    292.8800
    823    822    845   1    120.0000    292.8800
    822    823    824   1    120.0000    527.1840
    822    823    846   1    120.0000    292.8800
    824    823    846   1    120.0000    292.8800
    823    824    825   1    120.0000    527.1840
    823    824    827   1    120.0000    585.7600
    825    824    827   1    120.0000    585.7600
    824    825    826   1    120.0000    527.1840
    824    825    847   1    120.0000    292.8800
    826    825    847   1    120.0000    292.8800
    821    826    825   1    120.0000    527.1840
    821    826    848   1    120.0000    292.8800
    825    826    848   1    120.0000    292.8800
    824    827    828   1    114.7000    711.2800
    827    828    829   1    120.0000    585.7600
    827    828    833   1    120.0000    585.7600
    829    828    833   1    120.0000    527.1840
    828    829    830   1    120.0000    527.1840
    828    829    849   1    120.0000    292.8800
    830    829    849   1    120.0000    292.8800
    829    830    831   1    120.0000    527.1840
    829    830    850   1    120.0000    292.8800
    831    830    850   1    120.0000    292.8800
    830    831    832   1    120.0000    527.1840
    830    831    834   1    122.7600    502.0800
    832    831    834   1    122.7600    502.0800
    831    832    833   1    120.0000    527.1840
    831    832    851   1    120.0000    292.8800
    833    832    851   1    120.0000    292.8800
    828    833    832   1    120.0000    527.1840
    828    833    852   1    120.0000    292.8800
    832    833    852   1    120.0000    292.8800
    831    834    835   1    122.7600    502.0800
    831    834    839   1    122.7600    502.0800
    835    834    839   1    120.0000    527.1840
    834    835    836   1    120.0000    527.1840
    834    835    853   1    120.0000    292.8800
    836    835    853   1    120.0000    292.8800
    835    836    837   1    120.0000    527.1840
    835    836    854   1    120.0000    292.8800
    837    836    854   1    120.0000    292.8800
    836    837    838   1    120.0000    527.1840
    836    837    840   1    120.0000    585.7600
    838    837    840   1    120.0000    585.7600
    837    838    839   1    120.0000    527.1840
    837    838    855   1    120.0000    292.8800
    839    838    855   1    120.0000    292.8800
    834    839    838   1    120.0000    527.1840
    834    839    856   1    120.0000    292.8800
    838    839    856   1    120.0000    292.8800
    837    840    857   1    114.7000    711.2800
    840    857    858   1    120.0000    585.7600
    840    857    862   1    120.0000    585.7600
    858    857    862   1    120.0000    527.1840
    857    858    859   1    120.0000    527.1840
    857    858    886   1    120.0000    292.8800
    859    858    886   1    120.0000    292.8800
    858    859    860   1    120.0000    527.1840
    858    859    887   1    120.0000    292.8800
    860    859    887   1    120.0000    292.8800
    859    860    861   1    120.0000    527.1840
    859    860    863   1    117.0670    543.9200
    861    860    863   1    117.0670    543.9200
    860    861    862   1    120.0000    527.1840
    860    861    888   1    120.0000    292.8800
    862    861    888   1    120.0000    292.8800
    857    862    861   1    120.0000    527.1840
    857    862    889   1    120.0000    292.8800
    861    862    889   1    120.0000    292.8800
    860    863    864   1    107.6710    836.8000
    860    863    865   1    107.6710    836.8000
    860    863    866   1    104.3600    658.3106
    864    863    865   1    120.1720    962.3200
    864    863    866   1    107.6710    836.8000
    865    863    866   1    107.6710    836.8000
    863    866    867   1    117.0670    543.9200
    863    866    871   1    117.0670    543.9200
    867    866    871   1    120.0000    527.1840
    866    867    868   1    120.0000    527.1840
    866    867    890   1    120.0000    292.8800
    868    867    890   1    120.0000    292.8800
    867    868    869   1    120.0000    527.1840
    867    868    891   1    120.0000    292.8800
    869    868    891   1    120.0000    292.8800
    868    869    870   1    120.0000    527.1840
    868    869    872   1    120.0000    585.7600
    870    869    872   1    120.0000    585.7600
    869    870    871   1    120.0000    527.1840
    869    870    892   1    120.0000    292.8800
    871    870    892   1    120.0000    292.8800
    866    871    870   1    120.0000    527.1840
    866    871    893   1    120.0000    292.8800
    870    871    893   1    120.0000    292.8800
    869    872    873   1    114.7000    711.2800
    872    873    874   1    120.0000    585.7600
    872    873    878   1    120.0000    585.7600
    874    873    878   1    120.0000    527.1840
    873    874    875   1    120.0000    527.1840
    873    874    894   1    120.0000    292.8800
    875    874    894   1    120.0000    292.8800
    874    875    876   1    120.0000    527.1840
    874    875    895   1    120.0000    292.8800
    876    875    895   1    120.0000    292.8800
    875    876    877   1    120.0000    527.1840
    875    876    879   1    122.7600    502.0800
    877    876    879   1    122.7600    502.0800
    876    877    878   1    120.0000    527.1840
    876    877    896   1    120.0000    292.8800
    878    877    896   1    120.0000    292.8800
    873    878    877   1    120.0000    527.1840
    873    878    897   1    120.0000    292.8800
    877    878    897   1    120.0000    292.8800
    876    879    880   1    122.7600    502.0800
    876    879    884   1    122.7600    502.0800
    880    879    884   1    120.0000    527.1840
    879    880    881   1    120.0000    527.1840
    879    880    898   1    120.0000    292.8800
    881    880    898   1    120.0000    292.8800
    880    881    882   1    120.0000    527.1840
    880    881    899   1    120.0000    292.8800
    882    881    899   1    120.0000    292.8800
    881    882    883   1    120.0000    527.1840
    881    882    885   1    120.0000    585.7600
    883    882    885   1    120.0000    585.7600
    882    883    884   1    120.0000    527.1840
    882    883    900   1    120.0000    292.8800
    884    883    900   1    120.0000    292.8800
    879    884    883   1    120.0000    527.1840
    879    884    901   1    120.0000    292.8800
    883    884    901   1    120.0000    292.8800
    882    885    902   1    113.0000    292.8800

[ dihedrals ]
; Proper dihedrals
      6      1      2      3   5     0.00000    30.33400     0.00000  0.0
      6      1      2     30   5     0.00000    30.33400     0.00000  0.0
     46      1      2      3   5     0.00000    30.33400     0.00000  0.0
     46      1      2     30   5     0.00000    30.33400     0.00000  0.0
      2      1      6      5   5     0.00000    30.33400     0.00000  0.0
      2      1      6     33   5     0.00000    30.33400     0.00000  0.0
     46      1      6      5   5     0.00000    30.33400     0.00000  0.0
     46      1      6     33   5     0.00000    30.33400     0.00000  0.0
      1      2      3      4   5     0.00000    30.33400     0.00000  0.0
      1      2      3     31   5     0.00000    30.33400     0.00000  0.0
     30      2      3      4   5     0.00000    30.33400     0.00000  0.0
     30      2      3     31   5     0.00000    30.33400     0.00000  0.0
      2      3      4      5   5     0.00000    30.33400     0.00000  0.0
      2      3      4      7   5     0.00000    30.33400     0.00000  0.0
     31      3      4      5   5     0.00000    30.33400     0.00000  0.0
     31      3      4      7   5     0.00000    30.33400     0.00000  0.0
      3      4      5      6   5     0.00000    30.33400     0.00000  0.0
      3      4      5     32   5     0.00000    30.33400     0.00000  0.0
      7      4      5      6   5     0.00000    30.33400     0.00000  0.0
      7      4      5     32   5     0.00000    30.33400     0.00000  0.0
      3      4      7      8   5     1.63176     1.00416     0.00000  0.0
      3      4      7      9   5     1.63176     1.00416     0.00000  0.0
      3      4      7     10   5     0.00000     3.76560     0.00000  0.0
      5      4      7      8   5     1.63176     1.00416     0.00000  0.0
      5      4      7      9   5     1.63176     1.00416     0.00000  0.0
      5      4      7     10   5     0.00000     3.76560     0.00000  0.0
      4      5      6      1   5     0.00000    30.33400     0.00000  0.0
      4      5      6     33   5     0.00000    30.33400     0.00000  0.0
     32      5      6      1   5     0.00000    30.33400     0.00000  0.0
     32      5      6     33   5     0.00000    30.33400     0.00000  0.0
      4      7     10     11   5     0.00000     3.76560     0.00000  0.0
      4      7     10     15   5     0.00000     3.76560     0.00000  0.0
      8      7     10     11   5     1.63176     1.00416     0.00000  0.0
      8      7     10     15   5     1.63176     1.00416     0.00000  0.0
      9      7     10     11   5     1.63176     1.00416     0.00000  0.0
      9      7     10     15   5     1.63176     1.00416     0.00000  0.0
      7     10     11     12   5     0.00000    30.33400     0.00000  0.0
      7     10     11     34   5     0.00000    30.33400     0.00000  0.0
     15     10     11     12   5     0.00000    30.33400     0.00000  0.0
     15     10     11     34   5     0.00000    30.33400     0.00000  0.0
      7     10     15     14   5     0.00000    30.33400     0.00000  0.0
      7     10     15     37   5     0.00000    30.33400     0.00000  0.0
     11     10     15     14   5     0.00000    30.33400     0.00000  0.0
     11     10     15     37   5     0.00000    30.33400     0.00000  0.0
     10     11     12     13   5     0.00000    30.33400     0.00000  0.0
     10     11     12     35   5     0.00000    30.33400     0.00000  0.0
     34     11     12     13   5     0.00000    30.33400     0.00000  0.0
     34     11     12     35   5     0.00000    30.33400     0.00000  0.0
     11     12     13     14   5     0.00000    30.33400     0.00000  0.0
     11     12     13     16   5     0.00000    30.33400     0.00000  0.0
     35     12     13     14   5     0.00000    30.33400     0.00000  0.0
     35     12     13     16   5     0.00000    30.33400     0.00000  0.0
     12     13     14     15   5     0.00000    30.33400     0.00000  0.0
     12     13     14     36   5     0.00000    30.33400     0.00000  0.0
     16     13     14     15   5     0.00000    30.33400     0.00000  0.0
     16     13     14     36   5     0.00000    30.33400     0.00000  0.0
     12     13     16     17   5     0.00000     3.94551     0.00000  0.0
     14     13     16     17   5     0.00000     3.94551     0.00000  0.0
     13     14     15     10   5     0.00000    30.33400     0.00000  0.0
     13     14     15     37   5     0.00000    30.33400     0.00000  0.0
     36     14     15     10   5     0.00000    30.33400     0.00000  0.0
     36     14     15     37   5     0.00000    30.33400     0.00000  0.0
     13     16     17     18   5     0.00000     3.94551     0.00000  0.0
     13     16     17     22   5     0.00000     3.94551     0.00000  0.0
     16     17     18     19   5     0.00000    30.33400     0.00000  0.0
     16     17     18     38   5     0.00000    30.33400     0.00000  0.0
     22     17     18     19   5     0.00000    30.33400     0.00000  0.0
     22     17     18     38   5     0.00000    30.33400     0.00000  0.0
     16     17     22     21   5     0.00000    30.33400     0.00000  0.0
     16     17     22     41   5     0.00000    30.33400     0.00000  0.0
     18     17     22     21   5     0.00000    30.33400     0.00000  0.0
     18     17     22     41   5     0.00000    30.33400     0.00000  0.0
     17     18     19     20   5     0.00000    30.33400     0.00000  0.0
     17     18     19     39   5     0.00000    30.33400     0.00000  0.0
     38     18     19     20   5     0.00000    30.33400     0.00000  0.0
     38     18     19     39   5     0.00000    30.33400     0.00000  0.0
     18     19     20     21   5     0.00000    30.33400     0.00000  0.0
     18     19     20     23   5     0.00000    30.33400     0.00000  0.0
     39     19     20     21   5     0.00000    30.33400     0.00000  0.0
     39     19     20     23   5     0.00000    30.33400     0.00000  0.0
     19     20     21     22   5     0.00000    30.33400     0.00000  0.0
     19     20     21     40   5     0.00000    30.33400     0.00000  0.0
     23     20     21     22   5     0.00000    30.33400     0.00000  0.0
     23     20     21     40   5     0.00000    30.33400     0.00000  0.0
     19     20     23     24   5    -1.62758     5.29694     0.62342  0.0
     19     20     23     28   5    -1.62758     5.29694     0.62342  0.0
     21     20     23     24   5    -1.62758     5.29694     0.62342  0.0
     21     20     23     28   5    -1.62758     5.29694     0.62342  0.0
     20     21     22     17   5     0.00000    30.33400     0.00000  0.0
     20     21     22     41   5     0.00000    30.33400     0.00000  0.0
     40     21     22     17   5     0.00000    30.33400     0.00000  0.0
     40     21     22     41   5     0.00000    30.33400     0.00000  0.0
     20     23     24     25   5     0.00000    30.33400     0.00000  0.0
     20     23     24     42   5     0.00000    30.33400     0.00000  0.0
     28     23     24     25   5     0.00000    30.33400     0.00000  0.0
     28     23     24     42   5     0.00000    30.33400     0.00000  0.0
     20     23     28     27   5     0.00000    30.33400     0.00000  0.0
     20     23     28     45   5     0.00000    30.33400     0.00000  0.0
     24     23     28     27   5     0.00000    30.33400     0.00000  0.0
     24     23     28     45   5     0.00000    30.33400     0.00000  0.0
     23     24     25     26   5     0.00000    30.33400     0.00000  0.0
     23     24     25     43   5     0.00000    30.33400     0.00000  0.0
     42     24     25     26   5     0.00000    30.33400     0.00000  0.0
     42     24     25     43   5     0.00000    30.33400     0.00000  0.0
     24     25     26     27   5     0.00000    30.33400     0.00000  0.0
     24     25     26     29   5     0.00000    30.33400     0.00000  0.0
     43     25     26     27   5     0.00000    30.33400     0.00000  0.0
     43     25     26     29   5     0.00000    30.33400     0.00000  0.0
     25     26     27     28   5     0.00000    30.33400     0.00000  0.0
     25     26     27     44   5     0.00000    30.33400     0.00000  0.0
     29     26     27     28   5     0.00000    30.33400     0.00000  0.0
     29     26     27     44   5     0.00000    30.33400     0.00000  0.0
     25     26     29     47   5     0.00000     3.94551     0.00000  0.0
     27     26     29     47   5     0.00000     3.94551     0.00000  0.0
     26     27     28     23   5     0.00000    30.33400     0.00000  0.0
     26     27     28     45   5     0.00000    30.33400     0.00000  0.0
     44     27     28     23   5     0.00000    30.33400     0.00000  0.0
     44     27     28     45   5     0.00000    30.33400     0.00000  0.0
     26     29     47     48   5     0.00000     3.94551     0.00000  0.0
     26     29     47     52   5     0.00000     3.94551     0.00000  0.0
     29     47     48     49   5     0.00000    30.33400     0.00000  0.0
     29     47     48     76   5     0.00000    30.33400     0.00000  0.0
     52     47     48     49   5     0.00000    30.33400     0.00000  0.0
     52     47     48     76   5     0.00000    30.33400     0.00000  0.0
     29     47     52     51   5     0.00000    30.33400     0.00000  0.0
     29     47     52     79   5     0.00000    30.33400     0.00000  0.0
     48     47     52     51   5     0.00000    30.33400     0.00000  0.0
     48     47     52     79   5     0.00000    30.33400     0.00000  0.0
     47     48     49     50   5     0.00000    30.33400     0.00000  0.0
     47     48     49     77   5     0.00000    30.33400     0.00000  0.0
     76     48     49     50   5     0.00000    30.33400     0.00000  0.0
     76     48     49     77   5     0.00000    30.33400     0.00000  0.0
     48     49     50     51   5     0.00000    30.33400     0.00000  0.0
     48     49     50     53   5     0.00000    30.33400     0.00000  0.0
     77     49     50     51   5     0.00000    30.33400     0.00000  0.0
     77     49     50     53   5     0.00000    30.33400     0.00000  0.0
     49     50     51     52   5     0.00000    30.33400     0.00000  0.0
     49     50     51     78   5     0.00000    30.33400     0.00000  0.0
     53     50     51     52   5     0.00000    30.33400     0.00000  0.0
     53     50     51     78   5     0.00000    30.33400     0.00000  0.0
     49     50     53     54   5     1.63176     1.00416     0.00000  0.0
     49     50     53     55   5     1.63176     1.00416     0.00000  0.0
     49     50     53     56   5     0.00000     3.76560     0.00000  0.0
     51     50     53     54   5     1.63176     1.00416     0.00000  0.0
     51     50     53     55   5     1.63176     1.00416     0.00000  0.0
     51     50     53     56   5     0.00000     3.76560     0.00000  0.0
     50     51     52     47   5     0.00000    30.33400     0.00000  0.0
     50     51     52     79   5     0.00000    30.33400     0.00000  0.0
     78     51     52     47   5     0.00000    30.33400     0.00000  0.0
     78     51     52     79   5     0.00000    30.33400     0.00000  0.0
     50     53     56     57   5     0.00000     3.76560     0.00000  0.0
     50     53     56     61   5     0.00000     3.76560     0.00000  0.0
     54     53     56     57   5     1.63176     1.00416     0.00000  0.0
     54     53     56     61   5     1.63176     1.00416     0.00000  0.0
     55     53     56     57   5     1.63176     1.00416     0.00000  0.0
     55     53     56     61   5     1.63176     1.00416     0.00000  0.0
     53     56     57     58   5     0.00000    30.33400     0.00000  0.0
     53     56     57     80   5     0.00000    30.33400     0.00000  0.0
     61     56     57     58   5     0.00000    30.33400     0.00000  0.0
     61     56     57     80   5     0.00000    30.33400     0.00000  0.0
     53     56     61     60   5     0.00000    30.33400     0.00000  0.0
     53     56     61     83   5     0.00000    30.33400     0.00000  0.0
     57     56     61     60   5     0.00000    30.33400     0.00000  0.0
     57     56     61     83   5     0.00000    30.33400     0.00000  0.0
     56     57     58     59   5     0.00000    30.33400     0.00000  0.0
     56     57     58     81   5     0.00000    30.33400     0.00000  0.0
     80     57     58     59   5     0.00000    30.33400     0.00000  0.0
     80     57     58     81   5     0.00000    30.33400     0.00000  0.0
     57     58     59     60   5     0.00000    30.33400     0.00000  0.0
     57     58     59     62   5     0.00000    30.33400     0.00000  0.0
     81     58     59     60   5     0.00000    30.33400     0.00000  0.0
     81     58     59     62   5     0.00000    30.33400     0.00000  0.0
     58     59     60     61   5     0.00000    30.33400     0.00000  0.0
     58     59     60     82   5     0.00000    30.33400     0.00000  0.0
     62     59     60     61   5     0.00000    30.33400     0.00000  0.0
     62     59     60     82   5     0.00000    30.33400     0.00000  0.0
     58     59     62     63   5     0.00000     3.94551     0.00000  0.0
     60     59     62     63   5     0.00000     3.94551     0.00000  0.0
     59     60     61     56   5     0.00000    30.33400     0.00000  0.0
     59     60     61     83   5     0.00000    30.33400     0.00000  0.0
     82     60     61     56   5     0.00000    30.33400     0.00000  0.0
     82     60     61     83   5     0.00000    30.33400     0.00000  0.0
     59     62     63     64   5     0.00000     3.94551     0.00000  0.0
     59     62     63     68   5     0.00000     3.94551     0.00000  0.0
     62     63     64     65   5     0.00000    30.33400     0.00000  0.0
     62     63     64     84   5     0.00000    30.33400     0.00000  0.0
     68     63     64     65   5     0.00000    30.33400     0.00000  0.0
     68     63     64     84   5     0.00000    30.33400     0.00000  0.0
     62     63     68     67   5     0.00000    30.33400     0.00000  0.0
     62     63     68     87   5     0.00000    30.33400     0.00000  0.0
     64     63     68     67   5     0.00000    30.33400     0.00000  0.0
     64     63     68     87   5     0.00000    30.33400     0.00000  0.0
     63     64     65     66   5     0.00000    30.33400     0.00000  0.0
     63     64     65     85   5     0.00000    30.33400     0.00000  0.0
     84     64     65     66   5     0.00000    30.33400     0.00000  0.0
     84     64     65     85   5     0.00000    30.33400     0.00000  0.0
     64     65     66     67   5     0.00000    30.33400     0.00000  0.0
     64     65     66     69   5     0.00000    30.33400     0.00000  0.0
     85     65     66     67   5     0.00000    30.33400     0.00000  0.0
     85     65     66     69   5     0.00000    30.33400     0.00000  0.0
     65     66     67     68   5     0.00000    30.33400     0.00000  0.0
     65     66     67     86   5     0.00000    30.33400     0.00000  0.0
     69     66     67     68   5     0.00000    30.33400     0.00000  0.0
     69     66     67     86   5     0.00000    30.33400     0.00000  0.0
     65     66     69     70   5    -1.62758     5.29694     0.62342  0.0
     65     66     69     74   5    -1.62758     5.29694     0.62342  0.0
     67     66     69     70   5    -1.62758     5.29694     0.62342  0.0
     67     66     69     74   5    -1.62758     5.29694     0.62342  0.0
     66     67     68     63   5     0.00000    30.33400     0.00000  0.0
     66     67     68     87   5     0.00000    30.33400     0.00000  0.0
     86     67     68     63   5     0.00000    30.33400     0.00000  0.0
     86     67     68     87   5     0.00000    30.33400     0.00000  0.0
     66     69     70     71   5     0.00000    30.33400     0.00000  0.0
     66     69     70     88   5     0.00000    30.33400     0.00000  0.0
     74     69     70     71   5     0.00000    30.33400     0.00000  0.0
     74     69     70     88   5     0.00000    30.33400     0.00000  0.0
     66     69     74     73   5     0.00000    30.33400     0.00000  0.0
     66     69     74     91   5     0.00000    30.33400     0.00000  0.0
     70     69     74     73   5     0.00000    30.33400     0.00000  0.0
     70     69     74     91   5     0.00000    30.33400     0.00000  0.0
     69     70     71     72   5     0.00000    30.33400     0.00000  0.0
     69     70     71     89   5     0.00000    30.33400     0.00000  0.0
     88     70     71     72   5     0.00000    30.33400     0.00000  0.0
     88     70     71     89   5     0.00000    30.33400     0.00000  0.0
     70     71     72     73   5     0.00000    30.33400     0.00000  0.0
     70     71     72     75   5     0.00000    30.33400     0.00000  0.0
     89     71     72     73   5     0.00000    30.33400     0.00000  0.0
     89     71     72     75   5     0.00000    30.33400     0.00000  0.0
     71     72     73     74   5     0.00000    30.33400     0.00000  0.0
     71     72     73     90   5     0.00000    30.33400     0.00000  0.0
     75     72     73     74   5     0.00000    30.33400     0.00000  0.0
     75     72     73     90   5     0.00000    30.33400     0.00000  0.0
     71     72     75     92   5     0.00000     3.94551     0.00000  0.0
     73     72     75     92   5     0.00000     3.94551     0.00000  0.0
     72     73     74     69   5     0.00000    30.33400     0.00000  0.0
     72     73     74     91   5     0.00000    30.33400     0.00000  0.0
     90     73     74     69   5     0.00000    30.33400     0.00000  0.0
     90     73     74     91   5     0.00000    30.33400     0.00000  0.0
     72     75     92     93   5     0.00000     3.94551     0.00000  0.0
     72     75     92     97   5     0.00000     3.94551     0.00000  0.0
     75     92     93     94   5     0.00000    30.33400     0.00000  0.0
     75     92     93    121   5     0.00000    30.33400     0.00000  0.0
     97     92     93     94   5     0.00000    30.33400     0.00000  0.0
     97     92     93    121   5     0.00000    30.33400     0.00000  0.0
     75     92     97     96   5     0.00000    30.33400     0.00000  0.0
     75     92     97    124   5     0.00000    30.33400     0.00000  0.0
     93     92     97     96   5     0.00000    30.33400     0.00000  0.0
     93     92     97    124   5     0.00000    30.33400     0.00000  0.0
     92     93     94     95   5     0.00000    30.33400     0.00000  0.0
     92     93     94    122   5     0.00000    30.33400     0.00000  0.0
    121     93     94     95   5     0.00000    30.33400     0.00000  0.0
    121     93     94    122   5     0.00000    30.33400     0.00000  0.0
     93     94     95     96   5     0.00000    30.33400     0.00000  0.0
     93     94     95     98   5     0.00000    30.33400     0.00000  0.0
    122     94     95     96   5     0.00000    30.33400     0.00000  0.0
    122     94     95     98   5     0.00000    30.33400     0.00000  0.0
     94     95     96     97   5     0.00000    30.33400     0.00000  0.0
     94     95     96    123   5     0.00000    30.33400     0.00000  0.0
     98     95     96     97   5     0.00000    30.33400     0.00000  0.0
     98     95     96    123   5     0.00000    30.33400     0.00000  0.0
     94     95     98     99   5     1.63176     1.00416     0.00000  0.0
     94     95     98    100   5     1.63176     1.00416     0.00000  0.0
     94     95     98    101   5     0.00000     3.76560     0.00000  0.0
     96     95     98     99   5     1.63176     1.00416     0.00000  0.0
     96     95     98    100   5     1.63176     1.00416     0.00000  0.0
     96     95     98    101   5     0.00000     3.76560     0.00000  0.0
     95     96     97     92   5     0.00000    30.33400     0.00000  0.0
     95     96     97    124   5     0.00000    30.33400     0.00000  0.0
    123     96     97     92   5     0.00000    30.33400     0.00000  0.0
    123     96     97    124   5     0.00000    30.33400     0.00000  0.0
     95     98    101    102   5     0.00000     3.76560     0.00000  0.0
     95     98    101    106   5     0.00000     3.76560     0.00000  0.0
     99     98    101    102   5     1.63176     1.00416     0.00000  0.0
     99     98    101    106   5     1.63176     1.00416     0.00000  0.0
    100     98    101    102   5     1.63176     1.00416     0.00000  0.0
    100     98    101    106   5     1.63176     1.00416     0.00000  0.0
     98    101    102    103   5     0.00000    30.33400     0.00000  0.0
     98    101    102    125   5     0.00000    30.33400     0.00000  0.0
    106    101    102    103   5     0.00000    30.33400     0.00000  0.0
    106    101    102    125   5     0.00000    30.33400     0.00000  0.0
     98    101    106    105   5     0.00000    30.33400     0.00000  0.0
     98    101    106    128   5     0.00000    30.33400     0.00000  0.0
    102    101    106    105   5     0.00000    30.33400     0.00000  0.0
    102    101    106    128   5     0.00000    30.33400     0.00000  0.0
    101    102    103    104   5     0.00000    30.33400     0.00000  0.0
    101    102    103    126   5     0.00000    30.33400     0.00000  0.0
    125    102    103    104   5     0.00000    30.33400     0.00000  0.0
    125    102    103    126   5     0.00000    30.33400     0.00000  0.0
    102    103    104    105   5     0.00000    30.33400     0.00000  0.0
    102    103    104    107   5     0.00000    30.33400     0.00000  0.0
    126    103    104    105   5     0.00000    30.33400     0.00000  0.0
    126    103    104    107   5     0.00000    30.33400     0.00000  0.0
    103    104    105    106   5     0.00000    30.33400     0.00000  0.0
    103    104    105    127   5     0.00000    30.33400     0.00000  0.0
    107    104    105    106   5     0.00000    30.33400     0.00000  0.0
    107    104    105    127   5     0.00000    30.33400     0.00000  0.0
    103    104    107    108   5     0.00000     3.94551     0.00000  0.0
    105    104    107    108   5     0.00000     3.94551     0.00000  0.0
    104    105    106    101   5     0.00000    30.33400     0.00000  0.0
    104    105    106    128   5     0.00000    30.33400     0.00000  0.0
    127    105    106    101   5     0.00000    30.33400     0.00000  0.0
    127    105    106    128   5     0.00000    30.33400     0.00000  0.0
    104    107    108    109   5     0.00000     3.94551     0.00000  0.0
    104    107    108    113   5     0.00000     3.94551     0.00000  0.0
    107    108    109    110   5     0.00000    30.33400     0.00000  0.0
    107    108    109    129   5     0.00000    30.33400     0.00000  0.0
    113    108    109    110   5     0.00000    30.33400     0.00000  0.0
    113    108    109    129   5     0.00000    30.33400     0.00000  0.0
    107    108    113    112   5     0.00000    30.33400     0.00000  0.0
    107    108    113    132   5     0.00000    30.33400     0.00000  0.0
    109    108    113    112   5     0.00000    30.33400     0.00000  0.0
    109    108    113    132   5     0.00000    30.33400     0.00000  0.0
    108    109    110    111   5     0.00000    30.33400     0.00000  0.0
    108    109    110    130   5     0.00000    30.33400     0.00000  0.0
    129    109    110    111   5     0.00000    30.33400     0.00000  0.0
    129    109    110    130   5     0.00000    30.33400     0.00000  0.0
    109    110    111    112   5     0.00000    30.33400     0.00000  0.0
    109    110    111    114   5     0.00000    30.33400     0.00000  0.0
    130    110    111    112   5     0.00000    30.33400     0.00000  0.0
    130    110    111    114   5     0.00000    30.33400     0.00000  0.0
    110    111    112    113   5     0.00000    30.33400     0.00000  0.0
    110    111    112    131   5     0.00000    30.33400     0.00000  0.0
    114    111    112    113   5     0.00000    30.33400     0.00000  0.0
    114    111    112    131   5     0.00000    30.33400     0.00000  0.0
    110    111    114    115   5    -1.62758     5.29694     0.62342  0.0
    110    111    114    119   5    -1.62758     5.29694     0.62342  0.0
    112    111    114    115   5    -1.62758     5.29694     0.62342  0.0
    112    111    114    119   5    -1.62758     5.29694     0.62342  0.0
    111    112    113    108   5     0.00000    30.33400     0.00000  0.0
    111    112    113    132   5     0.00000    30.33400     0.00000  0.0
    131    112    113    108   5     0.00000    30.33400     0.00000  0.0
    131    112    113    132   5     0.00000    30.33400     0.00000  0.0
    111    114    115    116   5     0.00000    30.33400     0.00000  0.0
    111    114    115    133   5     0.00000    30.33400     0.00000  0.0
    119    114    115    116   5     0.00000    30.33400     0.00000  0.0
    119    114    115    133   5     0.00000    30.33400     0.00000  0.0
    111    114    119    118   5     0.00000    30.33400     0.00000  0.0
    111    114    119    136   5     0.00000    30.33400     0.00000  0.0
    115    114    119    118   5     0.00000    30.33400     0.00000  0.0
    115    114    119    136   5     0.00000    30.33400     0.00000  0.0
    114    115    116    117   5     0.00000    30.33400     0.00000  0.0
    114    115    116    134   5     0.00000    30.33400     0.00000  0.0
    133    115    116    117   5     0.00000    30.33400     0.00000  0.0
    133    115    116    134   5     0.00000    30.33400     0.00000  0.0
    115    116    117    118   5     0.00000    30.33400     0.00000  0.0
    115    116    117    120   5     0.00000    30.33400     0.00000  0.0
    134    116    117    118   5     0.00000    30.33400     0.00000  0.0
    134    116    117    120   5     0.00000    30.33400     0.00000  0.0
    116    117    118    119   5     0.00000    30.33400     0.00000  0.0
    116    117    118    135   5     0.00000    30.33400     0.00000  0.0
    120    117    118    119   5     0.00000    30.33400     0.00000  0.0
    120    117    118    135   5     0.00000    30.33400     0.00000  0.0
    116    117    120    137   5     0.00000     3.94551     0.00000  0.0
    118    117    120    137   5     0.00000     3.94551     0.00000  0.0
    117    118    119    114   5     0.00000    30.33400     0.00000  0.0
    117    118    119    136   5     0.00000    30.33400     0.00000  0.0
    135    118    119    114   5     0.00000    30.33400     0.00000  0.0
    135    118    119    136   5     0.00000    30.33400     0.00000  0.0
    117    120    137    138   5     0.00000     3.94551     0.00000  0.0
    117    120    137    142   5     0.00000     3.94551     0.00000  0.0
    120    137    138    139   5     0.00000    30.33400     0.00000  0.0
    120    137    138    166   5     0.00000    30.33400     0.00000  0.0
    142    137    138    139   5     0.00000    30.33400     0.00000  0.0
    142    137    138    166   5     0.00000    30.33400     0.00000  0.0
    120    137    142    141   5     0.00000    30.33400     0.00000  0.0
    120    137    142    169   5     0.00000    30.33400     0.00000  0.0
    138    137    142    141   5     0.00000    30.33400     0.00000  0.0
    138    137    142    169   5     0.00000    30.33400     0.00000  0.0
    137    138    139    140   5     0.00000    30.33400     0.00000  0.0
    137    138    139    167   5     0.00000    30.33400     0.00000  0.0
    166    138    139    140   5     0.00000    30.33400     0.00000  0.0
    166    138    139    167   5     0.00000    30.33400     0.00000  0.0
    138    139    140    141   5     0.00000    30.33400     0.00000  0.0
    138    139    140    143   5     0.00000    30.33400     0.00000  0.0
    167    139    140    141   5     0.00000    30.33400     0.00000  0.0
    167    139    140    143   5     0.00000    30.33400     0.00000  0.0
    139    140    141    142   5     0.00000    30.33400     0.00000  0.0
    139    140    141    168   5     0.00000    30.33400     0.00000  0.0
    143    140    141    142   5     0.00000    30.33400     0.00000  0.0
    143    140    141    168   5     0.00000    30.33400     0.00000  0.0
    139    140    143    144   5     1.63176     1.00416     0.00000  0.0
    139    140    143    145   5     1.63176     1.00416     0.00000  0.0
    139    140    143    146   5     0.00000     3.76560     0.00000  0.0
    141    140    143    144   5     1.63176     1.00416     0.00000  0.0
    141    140    143    145   5     1.63176     1.00416     0.00000  0.0
    141    140    143    146   5     0.00000     3.76560     0.00000  0.0
    140    141    142    137   5     0.00000    30.33400     0.00000  0.0
    140    141    142    169   5     0.00000    30.33400     0.00000  0.0
    168    141    142    137   5     0.00000    30.33400     0.00000  0.0
    168    141    142    169   5     0.00000    30.33400     0.00000  0.0
    140    143    146    147   5     0.00000     3.76560     0.00000  0.0
    140    143    146    151   5     0.00000     3.76560     0.00000  0.0
    144    143    146    147   5     1.63176     1.00416     0.00000  0.0
    144    143    146    151   5     1.63176     1.00416     0.00000  0.0
    145    143    146    147   5     1.63176     1.00416     0.00000  0.0
    145    143    146    151   5     1.63176     1.00416     0.00000  0.0
    143    146    147    148   5     0.00000    30.33400     0.00000  0.0
    143    146    147    170   5     0.00000    30.33400     0.00000  0.0
    151    146    147    148   5     0.00000    30.33400     0.00000  0.0
    151    146    147    170   5     0.00000    30.33400     0.00000  0.0
    143    146    151    150   5     0.00000    30.33400     0.00000  0.0
    143    146    151    173   5     0.00000    30.33400     0.00000  0.0
    147    146    151    150   5     0.00000    30.33400     0.00000  0.0
    147    146    151    173   5     0.00000    30.33400     0.00000  0.0
    146    147    148    149   5     0.00000    30.33400     0.00000  0.0
    146    147    148    171   5     0.00000    30.33400     0.00000  0.0
    170    147    148    149   5     0.00000    30.33400     0.00000  0.0
    170    147    148    171   5     0.00000    30.33400     0.00000  0.0
    147    148    149    150   5     0.00000    30.33400     0.00000  0.0
    147    148    149    152   5     0.00000    30.33400     0.00000  0.0
    171    148    149    150   5     0.00000    30.33400     0.00000  0.0
    171    148    149    152   5     0.00000    30.33400     0.00000  0.0
    148    149    150    151   5     0.00000    30.33400     0.00000  0.0
    148    149    150    172   5     0.00000    30.33400     0.00000  0.0
    152    149    150    151   5     0.00000    30.33400     0.00000  0.0
    152    149    150    172   5     0.00000    30.33400     0.00000  0.0
    148    149    152    153   5     0.00000     3.94551     0.00000  0.0
    150    149    152    153   5     0.00000     3.94551     0.00000  0.0
    149    150    151    146   5     0.00000    30.33400     0.00000  0.0
    149    150    151    173   5     0.00000    30.33400     0.00000  0.0
    172    150    151    146   5     0.00000    30.33400     0.00000  0.0
    172    150    151    173   5     0.00000    30.33400     0.00000  0.0
    149    152    153    154   5     0.00000     3.94551     0.00000  0.0
    149    152    153    158   5     0.00000     3.94551     0.00000  0.0
    152    153    154    155   5     0.00000    30.33400     0.00000  0.0
    152    153    154    174   5     0.00000    30.33400     0.00000  0.0
    158    153    154    155   5     0.00000    30.33400     0.00000  0.0
    158    153    154    174   5     0.00000    30.33400     0.00000  0.0
    152    153    158    157   5     0.00000    30.33400     0.00000  0.0
    152    153    158    177   5     0.00000    30.33400     0.00000  0.0
    154    153    158    157   5     0.00000    30.33400     0.00000  0.0
    154    153    158    177   5     0.00000    30.33400     0.00000  0.0
    153    154    155    156   5     0.00000    30.33400     0.00000  0.0
    153    154    155    175   5     0.00000    30.33400     0.00000  0.0
    174    154    155    156   5     0.00000    30.33400     0.00000  0.0
    174    154    155    175   5     0.00000    30.33400     0.00000  0.0
    154    155    156    157   5     0.00000    30.33400     0.00000  0.0
    154    155    156    159   5     0.00000    30.33400     0.00000  0.0
    175    155    156    157   5     0.00000    30.33400     0.00000  0.0
    175    155    156    159   5     0.00000    30.33400     0.00000  0.0
    155    156    157    158   5     0.00000    30.33400     0.00000  0.0
    155    156    157    176   5     0.00000    30.33400     0.00000  0.0
    159    156    157    158   5     0.00000    30.33400     0.00000  0.0
    159    156    157    176   5     0.00000    30.33400     0.00000  0.0
    155    156    159    160   5    -1.62758     5.29694     0.62342  0.0
    155    156    159    164   5    -1.62758     5.29694     0.62342  0.0
    157    156    159    160   5    -1.62758     5.29694     0.62342  0.0
    157    156    159    164   5    -1.62758     5.29694     0.62342  0.0
    156    157    158    153   5     0.00000    30.33400     0.00000  0.0
    156    157    158    177   5     0.00000    30.33400     0.00000  0.0
    176    157    158    153   5     0.00000    30.33400     0.00000  0.0
    176    157    158    177   5     0.00000    30.33400     0.00000  0.0
    156    159    160    161   5     0.00000    30.33400     0.00000  0.0
    156    159    160    178   5     0.00000    30.33400     0.00000  0.0
    164    159    160    161   5     0.00000    30.33400     0.00000  0.0
    164    159    160    178   5     0.00000    30.33400     0.00000  0.0
    156    159    164    163   5     0.00000    30.33400     0.00000  0.0
    156    159    164    181   5     0.00000    30.33400     0.00000  0.0
    160    159    164    163   5     0.00000    30.33400     0.00000  0.0
    160    159    164    181   5     0.00000    30.33400     0.00000  0.0
    159    160    161    162   5     0.00000    30.33400     0.00000  0.0
    159    160    161    179   5     0.00000    30.33400     0.00000  0.0
    178    160    161    162   5     0.00000    30.33400     0.00000  0.0
    178    160    161    179   5     0.00000    30.33400     0.00000  0.0
    160    161    162    163   5     0.00000    30.33400     0.00000  0.0
    160    161    162    165   5     0.00000    30.33400     0.00000  0.0
    179    161    162    163   5     0.00000    30.33400     0.00000  0.0
    179    161    162    165   5     0.00000    30.33400     0.00000  0.0
    161    162    163    164   5     0.00000    30.33400     0.00000  0.0
    161    162    163    180   5     0.00000    30.33400     0.00000  0.0
    165    162    163    164   5     0.00000    30.33400     0.00000  0.0
    165    162    163    180   5     0.00000    30.33400     0.00000  0.0
    161    162    165    182   5     0.00000     3.94551     0.00000  0.0
    163    162    165    182   5     0.00000     3.94551     0.00000  0.0
    162    163    164    159   5     0.00000    30.33400     0.00000  0.0
    162    163    164    181   5     0.00000    30.33400     0.00000  0.0
    180    163    164    159   5     0.00000    30.33400     0.00000  0.0
    180    163    164    181   5     0.00000    30.33400     0.00000  0.0
    162    165    182    183   5     0.00000     3.94551     0.00000  0.0
    162    165    182    187   5     0.00000     3.94551     0.00000  0.0
    165    182    183    184   5     0.00000    30.33400     0.00000  0.0
    165    182    183    211   5     0.00000    30.33400     0.00000  0.0
    187    182    183    184   5     0.00000    30.33400     0.00000  0.0
    187    182    183    211   5     0.00000    30.33400     0.00000  0.0
    165    182    187    186   5     0.00000    30.33400     0.00000  0.0
    165    182    187    214   5     0.00000    30.33400     0.00000  0.0
    183    182    187    186   5     0.00000    30.33400     0.00000  0.0
    183    182    187    214   5     0.00000    30.33400     0.00000  0.0
    182    183    184    185   5     0.00000    30.33400     0.00000  0.0
    182    183    184    212   5     0.00000    30.33400     0.00000  0.0
    211    183    184    185   5     0.00000    30.33400     0.00000  0.0
    211    183    184    212   5     0.00000    30.33400     0.00000  0.0
    183    184    185    186   5     0.00000    30.33400     0.00000  0.0
    183    184    185    188   5     0.00000    30.33400     0.00000  0.0
    212    184    185    186   5     0.00000    30.33400     0.00000  0.0
    212    184    185    188   5     0.00000    30.33400     0.00000  0.0
    184    185    186    187   5     0.00000    30.33400     0.00000  0.0
    184    185    186    213   5     0.00000    30.33400     0.00000  0.0
    188    185    186    187   5     0.00000    30.33400     0.00000  0.0
    188    185    186    213   5     0.00000    30.33400     0.00000  0.0
    184    185    188    189   5     1.63176     1.00416     0.00000  0.0
    184    185    188    190   5     1.63176     1.00416     0.00000  0.0
    184    185    188    191   5     0.00000     3.76560     0.00000  0.0
    186    185    188    189   5     1.63176     1.00416     0.00000  0.0
    186    185    188    190   5     1.63176     1.00416     0.00000  0.0
    186    185    188    191   5     0.00000     3.76560     0.00000  0.0
    185    186    187    182   5     0.00000    30.33400     0.00000  0.0
    185    186    187    214   5     0.00000    30.33400     0.00000  0.0
    213    186    187    182   5     0.00000    30.33400     0.00000  0.0
    213    186    187    214   5     0.00000    30.33400     0.00000  0.0
    185    188    191    192   5     0.00000     3.76560     0.00000  0.0
    185    188    191    196   5     0.00000     3.76560     0.00000  0.0
    189    188    191    192   5     1.63176     1.00416     0.00000  0.0
    189    188    191    196   5     1.63176     1.00416     0.00000  0.0
    190    188    191    192   5     1.63176     1.00416     0.00000  0.0
    190    188    191    196   5     1.63176     1.00416     0.00000  0.0
    188    191    192    193   5     0.00000    30.33400     0.00000  0.0
    188    191    192    215   5     0.00000    30.33400     0.00000  0.0
    196    191    192    193   5     0.00000    30.33400     0.00000  0.0
    196    191    192    215   5     0.00000    30.33400     0.00000  0.0
    188    191    196    195   5     0.00000    30.33400     0.00000  0.0
    188    191    196    218   5     0.00000    30.33400     0.00000  0.0
    192    191    196    195   5     0.00000    30.33400     0.00000  0.0
    192    191    196    218   5     0.00000    30.33400     0.00000  0.0
    191    192    193    194   5     0.00000    30.33400     0.00000  0.0
    191    192    193    216   5     0.00000    30.33400     0.00000  0.0
    215    192    193    194   5     0.00000    30.33400     0.00000  0.0
    215    192    193    216   5     0.00000    30.33400     0.00000  0.0
    192    193    194    195   5     0.00000    30.33400     0.00000  0.0
    192    193    194    197   5     0.00000    30.33400     0.00000  0.0
    216    193    194    195   5     0.00000    30.33400     0.00000  0.0
    216    193    194    197   5     0.00000    30.33400     0.00000  0.0
    193    194    195    196   5     0.00000    30.33400     0.00000  0.0
    193    194    195    217   5     0.00000    30.33400     0.00000  0.0
    197    194    195    196   5     0.00000    30.33400     0.00000  0.0
    197    194    195    217   5     0.00000    30.33400     0.00000  0.0
    193    194    197    198   5     0.00000     3.94551     0.00000  0.0
    195    194    197    198   5     0.00000     3.94551     0.00000  0.0
    194    195    196    191   5     0.00000    30.33400     0.00000  0.0
    194    195    196    218   5     0.00000    30.33400     0.00000  0.0
    217    195    196    191   5     0.00000    30.33400     0.00000  0.0
    217    195    196    218   5     0.00000    30.33400     0.00000  0.0
    194    197    198    199   5     0.00000     3.94551     0.00000  0.0
    194    197    198    203   5     0.00000     3.94551     0.00000  0.0
    197    198    199    200   5     0.00000    30.33400     0.00000  0.0
    197    198    199    219   5     0.00000    30.33400     0.00000  0.0
    203    198    199    200   5     0.00000    30.33400     0.00000  0.0
    203    198    199    219   5     0.00000    30.33400     0.00000  0.0
    197    198    203    202   5     0.00000    30.33400     0.00000  0.0
    197    198    203    222   5     0.00000    30.33400     0.00000  0.0
    199    198    203    202   5     0.00000    30.33400     0.00000  0.0
    199    198    203    222   5     0.00000    30.33400     0.00000  0.0
    198    199    200    201   5     0.00000    30.33400     0.00000  0.0
    198    199    200    220   5     0.00000    30.33400     0.00000  0.0
    219    199    200    201   5     0.00000    30.33400     0.00000  0.0
    219    199    200    220   5     0.00000    30.33400     0.00000  0.0
    199    200    201    202   5     0.00000    30.33400     0.00000  0.0
    199    200    201    204   5     0.00000    30.33400     0.00000  0.0
    220    200    201    202   5     0.00000    30.33400     0.00000  0.0
    220    200    201    204   5     0.00000    30.33400     0.00000  0.0
    200    201    202    203   5     0.00000    30.33400     0.00000  0.0
    200    201    202    221   5     0.00000    30.33400     0.00000  0.0
    204    201    202    203   5     0.00000    30.33400     0.00000  0.0
    204    201    202    221   5     0.00000    30.33400     0.00000  0.0
    200    201    204    205   5    -1.62758     5.29694     0.62342  0.0
    200    201    204    209   5    -1.62758     5.29694     0.62342  0.0
    202    201    204    205   5    -1.62758     5.29694     0.62342  0.0
    202    201    204    209   5    -1.62758     5.29694     0.62342  0.0
    201    202    203    198   5     0.00000    30.33400     0.00000  0.0
    201    202    203    222   5     0.00000    30.33400     0.00000  0.0
    221    202    203    198   5     0.00000    30.33400     0.00000  0.0
    221    202    203    222   5     0.00000    30.33400     0.00000  0.0
    201    204    205    206   5     0.00000    30.33400     0.00000  0.0
    201    204    205    223   5     0.00000    30.33400     0.00000  0.0
    209    204    205    206   5     0.00000    30.33400     0.00000  0.0
    209    204    205    223   5     0.00000    30.33400     0.00000  0.0
    201    204    209    208   5     0.00000    30.33400     0.00000  0.0
    201    204    209    226   5     0.00000    30.33400     0.00000  0.0
    205    204    209    208   5     0.00000    30.33400     0.00000  0.0
    205    204    209    226   5     0.00000    30.33400     0.00000  0.0
    204    205    206    207   5     0.00000    30.33400     0.00000  0.0
    204    205    206    224   5     0.00000    30.33400     0.00000  0.0
    223    205    206    207   5     0.00000    30.33400     0.00000  0.0
    223    205    206    224   5     0.00000    30.33400     0.00000  0.0
    205    206    207    208   5     0.00000    30.33400     0.00000  0.0
    205    206    207    210   5     0.00000    30.33400     0.00000  0.0
    224    206    207    208   5     0.00000    30.33400     0.00000  0.0
    224    206    207    210   5     0.00000    30.33400     0.00000  0.0
    206    207    208    209   5     0.00000    30.33400     0.00000  0.0
    206    207    208    225   5     0.00000    30.33400     0.00000  0.0
    210    207    208    209   5     0.00000    30.33400     0.00000  0.0
    210    207    208    225   5     0.00000    30.33400     0.00000  0.0
    206    207    210    227   5     0.00000     3.94551     0.00000  0.0
    208    207    210    227   5     0.00000     3.94551     0.00000  0.0
    207    208    209    204   5     0.00000    30.33400     0.00000  0.0
    207    208    209    226   5     0.00000    30.33400     0.00000  0.0
    225    208    209    204   5     0.00000    30.33400     0.00000  0.0
    225    208    209    226   5     0.00000    30.33400     0.00000  0.0
    207    210    227    228   5     0.00000     3.94551     0.00000  0.0
    207    210    227    232   5     0.00000     3.94551     0.00000  0.0
    210    227    228    229   5     0.00000    30.33400     0.00000  0.0
    210    227    228    256   5     0.00000    30.33400     0.00000  0.0
    232    227    228    229   5     0.00000    30.33400     0.00000  0.0
    232    227    228    256   5     0.00000    30.33400     0.00000  0.0
    210    227    232    231   5     0.00000    30.33400     0.00000  0.0
    210    227    232    259   5     0.00000    30.33400     0.00000  0.0
    228    227    232    231   5     0.00000    30.33400     0.00000  0.0
    228    227    232    259   5     0.00000    30.33400     0.00000  0.0
    227    228    229    230   5     0.00000    30.33400     0.00000  0.0
    227    228    229    257   5     0.00000    30.33400     0.00000  0.0
    256    228    229    230   5     0.00000    30.33400     0.00000  0.0
    256    228    229    257   5     0.00000    30.33400     0.00000  0.0
    228    229    230    231   5     0.00000    30.33400     0.00000  0.0
    228    229    230    233   5     0.00000    30.33400     0.00000  0.0
    257    229    230    231   5     0.00000    30.33400     0.00000  0.0
    257    229    230    233   5     0.00000    30.33400     0.00000  0.0
    229    230    231    232   5     0.00000    30.33400     0.00000  0.0
    229    230    231    258   5     0.00000    30.33400     0.00000  0.0
    233    230    231    232   5     0.00000    30.33400     0.00000  0.0
    233    230    231    258   5     0.00000    30.33400     0.00000  0.0
    229    230    233    234   5     1.63176     1.00416     0.00000  0.0
    229    230    233    235   5     1.63176     1.00416     0.00000  0.0
    229    230    233    236   5     0.00000     3.76560     0.00000  0.0
    231    230    233    234   5     1.63176     1.00416     0.00000  0.0
    231    230    233    235   5     1.63176     1.00416     0.00000  0.0
    231    230    233    236   5     0.00000     3.76560     0.00000  0.0
    230    231    232    227   5     0.00000    30.33400     0.00000  0.0
    230    231    232    259   5     0.00000    30.33400     0.00000  0.0
    258    231    232    227   5     0.00000    30.33400     0.00000  0.0
    258    231    232    259   5     0.00000    30.33400     0.00000  0.0
    230    233    236    237   5     0.00000     3.76560     0.00000  0.0
    230    233    236    241   5     0.00000     3.76560     0.00000  0.0
    234    233    236    237   5     1.63176     1.00416     0.00000  0.0
    234    233    236    241   5     1.63176     1.00416     0.00000  0.0
    235    233    236    237   5     1.63176     1.00416     0.00000  0.0
    235    233    236    241   5     1.63176     1.00416     0.00000  0.0
    233    236    237    238   5     0.00000    30.33400     0.00000  0.0
    233    236    237    260   5     0.00000    30.33400     0.00000  0.0
    241    236    237    238   5     0.00000    30.33400     0.00000  0.0
    241    236    237    260   5     0.00000    30.33400     0.00000  0.0
    233    236    241    240   5     0.00000    30.33400     0.00000  0.0
    233    236    241    263   5     0.00000    30.33400     0.00000  0.0
    237    236    241    240   5     0.00000    30.33400     0.00000  0.0
    237    236    241    263   5     0.00000    30.33400     0.00000  0.0
    236    237    238    239   5     0.00000    30.33400     0.00000  0.0
    236    237    238    261   5     0.00000    30.33400     0.00000  0.0
    260    237    238    239   5     0.00000    30.33400     0.00000  0.0
    260    237    238    261   5     0.00000    30.33400     0.00000  0.0
    237    238    239    240   5     0.00000    30.33400     0.00000  0.0
    237    238    239    242   5     0.00000    30.33400     0.00000  0.0
    261    238    239    240   5     0.00000    30.33400     0.00000  0.0
    261    238    239    242   5     0.00000    30.33400     0.00000  0.0
    238    239    240    241   5     0.00000    30.33400     0.00000  0.0
    238    239    240    262   5     0.00000    30.33400     0.00000  0.0
    242    239    240    241   5     0.00000    30.33400     0.00000  0.0
    242    239    240    262   5     0.00000    30.33400     0.00000  0.0
    238    239    242    243   5     0.00000     3.94551     0.00000  0.0
    240    239    242    243   5     0.00000     3.94551     0.00000  0.0
    239    240    241    236   5     0.00000    30.33400     0.00000  0.0
    239    240    241    263   5     0.00000    30.33400     0.00000  0.0
    262    240    241    236   5     0.00000    30.33400     0.00000  0.0
    262    240    241    263   5     0.00000    30.33400     0.00000  0.0
    239    242    243    244   5     0.00000     3.94551     0.00000  0.0
    239    242    243    248   5     0.00000     3.94551     0.00000  0.0
    242    243    244    245   5     0.00000    30.33400     0.00000  0.0
    242    243    244    264   5     0.00000    30.33400     0.00000  0.0
    248    243    244    245   5     0.00000    30.33400     0.00000  0.0
    248    243    244    264   5     0.00000    30.33400     0.00000  0.0
    242    243    248    247   5     0.00000    30.33400     0.00000  0.0
    242    243    248    267   5     0.00000    30.33400     0.00000  0.0
    244    243    248    247   5     0.00000    30.33400     0.00000  0.0
    244    243    248    267   5     0.00000    30.33400     0.00000  0.0
    243    244    245    246   5     0.00000    30.33400     0.00000  0.0
    243    244    245    265   5     0.00000    30.33400     0.00000  0.0
    264    244    245    246   5     0.00000    30.33400     0.00000  0.0
    264    244    245    265   5     0.00000    30.33400     0.00000  0.0
    244    245    246    247   5     0.00000    30.33400     0.00000  0.0
    244    245    246    249   5     0.00000    30.33400     0.00000  0.0
    265    245    246    247   5     0.00000    30.33400     0.00000  0.0
    265    245    246    249   5     0.00000    30.33400     0.00000  0.0
    245    246    247    248   5     0.00000    30.33400     0.00000  0.0
    245    246    247    266   5     0.00000    30.33400     0.00000  0.0
    249    246    247    248   5     0.00000    30.33400     0.00000  0.0
    249    246    247    266   5     0.00000    30.33400     0.00000  0.0
    245    246    249    250   5    -1.62758     5.29694     0.62342  0.0
    245    246    249    254   5    -1.62758     5.29694     0.62342  0.0
    247    246    249    250   5    -1.62758     5.29694     0.62342  0.0
    247    246    249    254   5    -1.62758     5.29694     0.62342  0.0
    246    247    248    243   5     0.00000    30.33400     0.00000  0.0
    246    247    248    267   5     0.00000    30.33400     0.00000  0.0
    266    247    248    243   5     0.00000    30.33400     0.00000  0.0
    266    247    248    267   5     0.00000    30.33400     0.00000  0.0
    246    249    250    251   5     0.00000    30.33400     0.00000  0.0
    246    249    250    268   5     0.00000    30.33400     0.00000  0.0
    254    249    250    251   5     0.00000    30.33400     0.00000  0.0
    254    249    250    268   5     0.00000    30.33400     0.00000  0.0
    246    249    254    253   5     0.00000    30.33400     0.00000  0.0
    246    249    254    271   5     0.00000    30.33400     0.00000  0.0
    250    249    254    253   5     0.00000    30.33400     0.00000  0.0
    250    249    254    271   5     0.00000    30.33400     0.00000  0.0
    249    250    251    252   5     0.00000    30.33400     0.00000  0.0
    249    250    251    269   5     0.00000    30.33400     0.00000  0.0
    268    250    251    252   5     0.00000    30.33400     0.00000  0.0
    268    250    251    269   5     0.00000    30.33400     0.00000  0.0
    250    251    252    253   5     0.00000    30.33400     0.00000  0.0
    250    251    252    255   5     0.00000    30.33400     0.00000  0.0
    269    251    252    253   5     0.00000    30.33400     0.00000  0.0
    269    251    252    255   5     0.00000    30.33400     0.00000  0.0
    251    252    253    254   5     0.00000    30.33400     0.00000  0.0
    251    252    253    270   5     0.00000    30.33400     0.00000  0.0
    255    252    253    254   5     0.00000    30.33400     0.00000  0.0
    255    252    253    270   5     0.00000    30.33400     0.00000  0.0
    251    252    255    272   5     0.00000     3.94551     0.00000  0.0
    253    252    255    272   5     0.00000     3.94551     0.00000  0.0
    252    253    254    249   5     0.00000    30.33400     0.00000  0.0
    252    253    254    271   5     0.00000    30.33400     0.00000  0.0
    270    253    254    249   5     0.00000    30.33400     0.00000  0.0
    270    253    254    271   5     0.00000    30.33400     0.00000  0.0
    252    255    272    273   5     0.00000     3.94551     0.00000  0.0
    252    255    272    277   5     0.00000     3.94551     0.00000  0.0
    255    272    273    274   5     0.00000    30.33400     0.00000  0.0
    255    272    273    301   5     0.00000    30.33400     0.00000  0.0
    277    272    273    274   5     0.00000    30.33400     0.00000  0.0
    277    272    273    301   5     0.00000    30.33400     0.00000  0.0
    255    272    277    276   5     0.00000    30.33400     0.00000  0.0
    255    272    277    304   5     0.00000    30.33400     0.00000  0.0
    273    272    277    276   5     0.00000    30.33400     0.00000  0.0
    273    272    277    304   5     0.00000    30.33400     0.00000  0.0
    272    273    274    275   5     0.00000    30.33400     0.00000  0.0
    272    273    274    302   5     0.00000    30.33400     0.00000  0.0
    301    273    274    275   5     0.00000    30.33400     0.00000  0.0
    301    273    274    302   5     0.00000    30.33400     0.00000  0.0
    273    274    275    276   5     0.00000    30.33400     0.00000  0.0
    273    274    275    278   5     0.00000    30.33400     0.00000  0.0
    302    274    275    276   5     0.00000    30.33400     0.00000  0.0
    302    274    275    278   5     0.00000    30.33400     0.00000  0.0
    274    275    276    277   5     0.00000    30.33400     0.00000  0.0
    274    275    276    303   5     0.00000    30.33400     0.00000  0.0
    278    275    276    277   5     0.00000    30.33400     0.00000  0.0
    278    275    276    303   5     0.00000    30.33400     0.00000  0.0
    274    275    278    279   5     1.63176     1.00416     0.00000  0.0
    274    275    278    280   5     1.63176     1.00416     0.00000  0.0
    274    275    278    281   5     0.00000     3.76560     0.00000  0.0
    276    275    278    279   5     1.63176     1.00416     0.00000  0.0
    276    275    278    280   5     1.63176     1.00416     0.00000  0.0
    276    275    278    281   5     0.00000     3.76560     0.00000  0.0
    275    276    277    272   5     0.00000    30.33400     0.00000  0.0
    275    276    277    304   5     0.00000    30.33400     0.00000  0.0
    303    276    277    272   5     0.00000    30.33400     0.00000  0.0
    303    276    277    304   5     0.00000    30.33400     0.00000  0.0
    275    278    281    282   5     0.00000     3.76560     0.00000  0.0
    275    278    281    286   5     0.00000     3.76560     0.00000  0.0
    279    278    281    282   5     1.63176     1.00416     0.00000  0.0
    279    278    281    286   5     1.63176     1.00416     0.00000  0.0
    280    278    281    282   5     1.63176     1.00416     0.00000  0.0
    280    278    281    286   5     1.63176     1.00416     0.00000  0.0
    278    281    282    283   5     0.00000    30.33400     0.00000  0.0
    278    281    282    305   5     0.00000    30.33400     0.00000  0.0
    286    281    282    283   5     0.00000    30.33400     0.00000  0.0
    286    281    282    305   5     0.00000    30.33400     0.00000  0.0
    278    281    286    285   5     0.00000    30.33400     0.00000  0.0
    278    281    286    308   5     0.00000    30.33400     0.00000  0.0
    282    281    286    285   5     0.00000    30.33400     0.00000  0.0
    282    281    286    308   5     0.00000    30.33400     0.00000  0.0
    281    282    283    284   5     0.00000    30.33400     0.00000  0.0
    281    282    283    306   5     0.00000    30.33400     0.00000  0.0
    305    282    283    284   5     0.00000    30.33400     0.00000  0.0
    305    282    283    306   5     0.00000    30.33400     0.00000  0.0
    282    283    284    285   5     0.00000    30.33400     0.00000  0.0
    282    283    284    287   5     0.00000    30.33400     0.00000  0.0
    306    283    284    285   5     0.00000    30.33400     0.00000  0.0
    306    283    284    287   5     0.00000    30.33400     0.00000  0.0
    283    284    285    286   5     0.00000    30.33400     0.00000  0.0
    283    284    285    307   5     0.00000    30.33400     0.00000  0.0
    287    284    285    286   5     0.00000    30.33400     0.00000  0.0
    287    284    285    307   5     0.00000    30.33400     0.00000  0.0
    283    284    287    288   5     0.00000     3.94551     0.00000  0.0
    285    284    287    288   5     0.00000     3.94551     0.00000  0.0
    284    285    286    281   5     0.00000    30.33400     0.00000  0.0
    284    285    286    308   5     0.00000    30.33400     0.00000  0.0
    307    285    286    281   5     0.00000    30.33400     0.00000  0.0
    307    285    286    308   5     0.00000    30.33400     0.00000  0.0
    284    287    288    289   5     0.00000     3.94551     0.00000  0.0
    284    287    288    293   5     0.00000     3.94551     0.00000  0.0
    287    288    289    290   5     0.00000    30.33400     0.00000  0.0
    287    288    289    309   5     0.00000    30.33400     0.00000  0.0
    293    288    289    290   5     0.00000    30.33400     0.00000  0.0
    293    288    289    309   5     0.00000    30.33400     0.00000  0.0
    287    288    293    292   5     0.00000    30.33400     0.00000  0.0
    287    288    293    312   5     0.00000    30.33400     0.00000  0.0
    289    288    293    292   5     0.00000    30.33400     0.00000  0.0
    289    288    293    312   5     0.00000    30.33400     0.00000  0.0
    288    289    290    291   5     0.00000    30.33400     0.00000  0.0
    288    289    290    310   5     0.00000    30.33400     0.00000  0.0
    309    289    290    291   5     0.00000    30.33400     0.00000  0.0
    309    289    290    310   5     0.00000    30.33400     0.00000  0.0
    289    290    291    292   5     0.00000    30.33400     0.00000  0.0
    289    290    291    294   5     0.00000    30.33400     0.00000  0.0
    310    290    291    292   5     0.00000    30.33400     0.00000  0.0
    310    290    291    294   5     0.00000    30.33400     0.00000  0.0
    290    291    292    293   5     0.00000    30.33400     0.00000  0.0
    290    291    292    311   5     0.00000    30.33400     0.00000  0.0
    294    291    292    293   5     0.00000    30.33400     0.00000  0.0
    294    291    292    311   5     0.00000    30.33400     0.00000  0.0
    290    291    294    295   5    -1.62758     5.29694     0.62342  0.0
    290    291    294    299   5    -1.62758     5.29694     0.62342  0.0
    292    291    294    295   5    -1.62758     5.29694     0.62342  0.0
    292    291    294    299   5    -1.62758     5.29694     0.62342  0.0
    291    292    293    288   5     0.00000    30.33400     0.00000  0.0
    291    292    293    312   5     0.00000    30.33400     0.00000  0.0
    311    292    293    288   5     0.00000    30.33400     0.00000  0.0
    311    292    293    312   5     0.00000    30.33400     0.00000  0.0
    291    294    295    296   5     0.00000    30.33400     0.00000  0.0
    291    294    295    313   5     0.00000    30.33400     0.00000  0.0
    299    294    295    296   5     0.00000    30.33400     0.00000  0.0
    299    294    295    313   5     0.00000    30.33400     0.00000  0.0
    291    294    299    298   5     0.00000    30.33400     0.00000  0.0
    291    294    299    316   5     0.00000    30.33400     0.00000  0.0
    295    294    299    298   5     0.00000    30.33400     0.00000  0.0
    295    294    299    316   5     0.00000    30.33400     0.00000  0.0
    294    295    296    297   5     0.00000    30.33400     0.00000  0.0
    294    295    296    314   5     0.00000    30.33400     0.00000  0.0
    313    295    296    297   5     0.00000    30.33400     0.00000  0.0
    313    295    296    314   5     0.00000    30.33400     0.00000  0.0
    295    296    297    298   5     0.00000    30.33400     0.00000  0.0
    295    296    297    300   5     0.00000    30.33400     0.00000  0.0
    314    296    297    298   5     0.00000    30.33400     0.00000  0.0
    314    296    297    300   5     0.00000    30.33400     0.00000  0.0
    296    297    298    299   5     0.00000    30.33400     0.00000  0.0
    296    297    298    315   5     0.00000    30.33400     0.00000  0.0
    300    297    298    299   5     0.00000    30.33400     0.00000  0.0
    300    297    298    315   5     0.00000    30.33400     0.00000  0.0
    296    297    300    317   5     0.00000     3.94551     0.00000  0.0
    298    297    300    317   5     0.00000     3.94551     0.00000  0.0
    297    298    299    294   5     0.00000    30.33400     0.00000  0.0
    297    298    299    316   5     0.00000    30.33400     0.00000  0.0
    315    298    299    294   5     0.00000    30.33400     0.00000  0.0
    315    298    299    316   5     0.00000    30.33400     0.00000  0.0
    297    300    317    318   5     0.00000     3.94551     0.00000  0.0
    297    300    317    322   5     0.00000     3.94551     0.00000  0.0
    300    317    318    319   5     0.00000    30.33400     0.00000  0.0
    300    317    318    346   5     0.00000    30.33400     0.00000  0.0
    322    317    318    319   5     0.00000    30.33400     0.00000  0.0
    322    317    318    346   5     0.00000    30.33400     0.00000  0.0
    300    317    322    321   5     0.00000    30.33400     0.00000  0.0
    300    317    322    349   5     0.00000    30.33400     0.00000  0.0
    318    317    322    321   5     0.00000    30.33400     0.00000  0.0
    318    317    322    349   5     0.00000    30.33400     0.00000  0.0
    317    318    319    320   5     0.00000    30.33400     0.00000  0.0
    317    318    319    347   5     0.00000    30.33400     0.00000  0.0
    346    318    319    320   5     0.00000    30.33400     0.00000  0.0
    346    318    319    347   5     0.00000    30.33400     0.00000  0.0
    318    319    320    321   5     0.00000    30.33400     0.00000  0.0
    318    319    320    323   5     0.00000    30.33400     0.00000  0.0
    347    319    320    321   5     0.00000    30.33400     0.00000  0.0
    347    319    320    323   5     0.00000    30.33400     0.00000  0.0
    319    320    321    322   5     0.00000    30.33400     0.00000  0.0
    319    320    321    348   5     0.00000    30.33400     0.00000  0.0
    323    320    321    322   5     0.00000    30.33400     0.00000  0.0
    323    320    321    348   5     0.00000    30.33400     0.00000  0.0
    319    320    323    324   5     1.63176     1.00416     0.00000  0.0
    319    320    323    325   5     1.63176     1.00416     0.00000  0.0
    319    320    323    326   5     0.00000     3.76560     0.00000  0.0
    321    320    323    324   5     1.63176     1.00416     0.00000  0.0
    321    320    323    325   5     1.63176     1.00416     0.00000  0.0
    321    320    323    326   5     0.00000     3.76560     0.00000  0.0
    320    321    322    317   5     0.00000    30.33400     0.00000  0.0
    320    321    322    349   5     0.00000    30.33400     0.00000  0.0
    348    321    322    317   5     0.00000    30.33400     0.00000  0.0
    348    321    322    349   5     0.00000    30.33400     0.00000  0.0
    320    323    326    327   5     0.00000     3.76560     0.00000  0.0
    320    323    326    331   5     0.00000     3.76560     0.00000  0.0
    324    323    326    327   5     1.63176     1.00416     0.00000  0.0
    324    323    326    331   5     1.63176     1.00416     0.00000  0.0
    325    323    326    327   5     1.63176     1.00416     0.00000  0.0
    325    323    326    331   5     1.63176     1.00416     0.00000  0.0
    323    326    327    328   5     0.00000    30.33400     0.00000  0.0
    323    326    327    350   5     0.00000    30.33400     0.00000  0.0
    331    326    327    328   5     0.00000    30.33400     0.00000  0.0
    331    326    327    350   5     0.00000    30.33400     0.00000  0.0
    323    326    331    330   5     0.00000    30.33400     0.00000  0.0
    323    326    331    353   5     0.00000    30.33400     0.00000  0.0
    327    326    331    330   5     0.00000    30.33400     0.00000  0.0
    327    326    331    353   5     0.00000    30.33400     0.00000  0.0
    326    327    328    329   5     0.00000    30.33400     0.00000  0.0
    326    327    328    351   5     0.00000    30.33400     0.00000  0.0
    350    327    328    329   5     0.00000    30.33400     0.00000  0.0
    350    327    328    351   5     0.00000    30.33400     0.00000  0.0
    327    328    329    330   5     0.00000    30.33400     0.00000  0.0
    327    328    329    332   5     0.00000    30.33400     0.00000  0.0
    351    328    329    330   5     0.00000    30.33400     0.00000  0.0
    351    328    329    332   5     0.00000    30.33400     0.00000  0.0
    328    329    330    331   5     0.00000    30.33400     0.00000  0.0
    328    329    330    352   5     0.00000    30.33400     0.00000  0.0
    332    329    330    331   5     0.00000    30.33400     0.00000  0.0
    332    329    330    352   5     0.00000    30.33400     0.00000  0.0
    328    329    332    333   5     0.00000     3.94551     0.00000  0.0
    330    329    332    333   5     0.00000     3.94551     0.00000  0.0
    329    330    331    326   5     0.00000    30.33400     0.00000  0.0
    329    330    331    353   5     0.00000    30.33400     0.00000  0.0
    352    330    331    326   5     0.00000    30.33400     0.00000  0.0
    352    330    331    353   5     0.00000    30.33400     0.00000  0.0
    329    332    333    334   5     0.00000     3.94551     0.00000  0.0
    329    332    333    338   5     0.00000     3.94551     0.00000  0.0
    332    333    334    335   5     0.00000    30.33400     0.00000  0.0
    332    333    334    354   5     0.00000    30.33400     0.00000  0.0
    338    333    334    335   5     0.00000    30.33400     0.00000  0.0
    338    333    334    354   5     0.00000    30.33400     0.00000  0.0
    332    333    338    337   5     0.00000    30.33400     0.00000  0.0
    332    333    338    357   5     0.00000    30.33400     0.00000  0.0
    334    333    338    337   5     0.00000    30.33400     0.00000  0.0
    334    333    338    357   5     0.00000    30.33400     0.00000  0.0
    333    334    335    336   5     0.00000    30.33400     0.00000  0.0
    333    334    335    355   5     0.00000    30.33400     0.00000  0.0
    354    334    335    336   5     0.00000    30.33400     0.00000  0.0
    354    334    335    355   5     0.00000    30.33400     0.00000  0.0
    334    335    336    337   5     0.00000    30.33400     0.00000  0.0
    334    335    336    339   5     0.00000    30.33400     0.00000  0.0
    355    335    336    337   5     0.00000    30.33400     0.00000  0.0
    355    335    336    339   5     0.00000    30.33400     0.00000  0.0
    335    336    337    338   5     0.00000    30.33400     0.00000  0.0
    335    336    337    356   5     0.00000    30.33400     0.00000  0.0
    339    336    337    338   5     0.00000    30.33400     0.00000  0.0
    339    336    337    356   5     0.00000    30.33400     0.00000  0.0
    335    336    339    340   5    -1.62758     5.29694     0.62342  0.0
    335    336    339    344   5    -1.62758     5.29694     0.62342  0.0
    337    336    339    340   5    -1.62758     5.29694     0.62342  0.0
    337    336    339    344   5    -1.62758     5.29694     0.62342  0.0
    336    337    338    333   5     0.00000    30.33400     0.00000  0.0
    336    337    338    357   5     0.00000    30.33400     0.00000  0.0
    356    337    338    333   5     0.00000    30.33400     0.00000  0.0
    356    337    338    357   5     0.00000    30.33400     0.00000  0.0
    336    339    340    341   5     0.00000    30.33400     0.00000  0.0
    336    339    340    358   5     0.00000    30.33400     0.00000  0.0
    344    339    340    341   5     0.00000    30.33400     0.00000  0.0
    344    339    340    358   5     0.00000    30.33400     0.00000  0.0
    336    339    344    343   5     0.00000    30.33400     0.00000  0.0
    336    339    344    361   5     0.00000    30.33400     0.00000  0.0
    340    339    344    343   5     0.00000    30.33400     0.00000  0.0
    340    339    344    361   5     0.00000    30.33400     0.00000  0.0
    339    340    341    342   5     0.00000    30.33400     0.00000  0.0
    339    340    341    359   5     0.00000    30.33400     0.00000  0.0
    358    340    341    342   5     0.00000    30.33400     0.00000  0.0
    358    340    341    359   5     0.00000    30.33400     0.00000  0.0
    340    341    342    343   5     0.00000    30.33400     0.00000  0.0
    340    341    342    345   5     0.00000    30.33400     0.00000  0.0
    359    341    342    343   5     0.00000    30.33400     0.00000  0.0
    359    341    342    345   5     0.00000    30.33400     0.00000  0.0
    341    342    343    344   5     0.00000    30.33400     0.00000  0.0
    341    342    343    360   5     0.00000    30.33400     0.00000  0.0
    345    342    343    344   5     0.00000    30.33400     0.00000  0.0
    345    342    343    360   5     0.00000    30.33400     0.00000  0.0
    341    342    345    362   5     0.00000     3.94551     0.00000  0.0
    343    342    345    362   5     0.00000     3.94551     0.00000  0.0
    342    343    344    339   5     0.00000    30.33400     0.00000  0.0
    342    343    344    361   5     0.00000    30.33400     0.00000  0.0
    360    343    344    339   5     0.00000    30.33400     0.00000  0.0
    360    343    344    361   5     0.00000    30.33400     0.00000  0.0
    342    345    362    363   5     0.00000     3.94551     0.00000  0.0
    342    345    362    367   5     0.00000     3.94551     0.00000  0.0
    345    362    363    364   5     0.00000    30.33400     0.00000  0.0
    345    362    363    391   5     0.00000    30.33400     0.00000  0.0
    367    362    363    364   5     0.00000    30.33400     0.00000  0.0
    367    362    363    391   5     0.00000    30.33400     0.00000  0.0
    345    362    367    366   5     0.00000    30.33400     0.00000  0.0
    345    362    367    394   5     0.00000    30.33400     0.00000  0.0
    363    362    367    366   5     0.00000    30.33400     0.00000  0.0
    363    362    367    394   5     0.00000    30.33400     0.00000  0.0
    362    363    364    365   5     0.00000    30.33400     0.00000  0.0
    362    363    364    392   5     0.00000    30.33400     0.00000  0.0
    391    363    364    365   5     0.00000    30.33400     0.00000  0.0
    391    363    364    392   5     0.00000    30.33400     0.00000  0.0
    363    364    365    366   5     0.00000    30.33400     0.00000  0.0
    363    364    365    368   5     0.00000    30.33400     0.00000  0.0
    392    364    365    366   5     0.00000    30.33400     0.00000  0.0
    392    364    365    368   5     0.00000    30.33400     0.00000  0.0
    364    365    366    367   5     0.00000    30.33400     0.00000  0.0
    364    365    366    393   5     0.00000    30.33400     0.00000  0.0
    368    365    366    367   5     0.00000    30.33400     0.00000  0.0
    368    365    366    393   5     0.00000    30.33400     0.00000  0.0
    364    365    368    369   5     1.63176     1.00416     0.00000  0.0
    364    365    368    370   5     1.63176     1.00416     0.00000  0.0
    364    365    368    371   5     0.00000     3.76560     0.00000  0.0
    366    365    368    369   5     1.63176     1.00416     0.00000  0.0
    366    365    368    370   5     1.63176     1.00416     0.00000  0.0
    366    365    368    371   5     0.00000     3.76560     0.00000  0.0
    365    366    367    362   5     0.00000    30.33400     0.00000  0.0
    365    366    367    394   5     0.00000    30.33400     0.00000  0.0
    393    366    367    362   5     0.00000    30.33400     0.00000  0.0
    393    366    367    394   5     0.00000    30.33400     0.00000  0.0
    365    368    371    372   5     0.00000     3.76560     0.00000  0.0
    365    368    371    376   5     0.00000     3.76560     0.00000  0.0
    369    368    371    372   5     1.63176     1.00416     0.00000  0.0
    369    368    371    376   5     1.63176     1.00416     0.00000  0.0
    370    368    371    372   5     1.63176     1.00416     0.00000  0.0
    370    368    371    376   5     1.63176     1.00416     0.00000  0.0
    368    371    372    373   5     0.00000    30.33400     0.00000  0.0
    368    371    372    395   5     0.00000    30.33400     0.00000  0.0
    376    371    372    373   5     0.00000    30.33400     0.00000  0.0
    376    371    372    395   5     0.00000    30.33400     0.00000  0.0
    368    371    376    375   5     0.00000    30.33400     0.00000  0.0
    368    371    376    398   5     0.00000    30.33400     0.00000  0.0
    372    371    376    375   5     0.00000    30.33400     0.00000  0.0
    372    371    376    398   5     0.00000    30.33400     0.00000  0.0
    371    372    373    374   5     0.00000    30.33400     0.00000  0.0
    371    372    373    396   5     0.00000    30.33400     0.00000  0.0
    395    372    373    374   5     0.00000    30.33400     0.00000  0.0
    395    372    373    396   5     0.00000    30.33400     0.00000  0.0
    372    373    374    375   5     0.00000    30.33400     0.00000  0.0
    372    373    374    377   5     0.00000    30.33400     0.00000  0.0
    396    373    374    375   5     0.00000    30.33400     0.00000  0.0
    396    373    374    377   5     0.00000    30.33400     0.00000  0.0
    373    374    375    376   5     0.00000    30.33400     0.00000  0.0
    373    374    375    397   5     0.00000    30.33400     0.00000  0.0
    377    374    375    376   5     0.00000    30.33400     0.00000  0.0
    377    374    375    397   5     0.00000    30.33400     0.00000  0.0
    373    374    377    378   5     0.00000     3.94551     0.00000  0.0
    375    374    377    378   5     0.00000     3.94551     0.00000  0.0
    374    375    376    371   5     0.00000    30.33400     0.00000  0.0
    374    375    376    398   5     0.00000    30.33400     0.00000  0.0
    397    375    376    371   5     0.00000    30.33400     0.00000  0.0
    397    375    376    398   5     0.00000    30.33400     0.00000  0.0
    374    377    378    379   5     0.00000     3.94551     0.00000  0.0
    374    377    378    383   5     0.00000     3.94551     0.00000  0.0
    377    378    379    380   5     0.00000    30.33400     0.00000  0.0
    377    378    379    399   5     0.00000    30.33400     0.00000  0.0
    383    378    379    380   5     0.00000    30.33400     0.00000  0.0
    383    378    379    399   5     0.00000    30.33400     0.00000  0.0
    377    378    383    382   5     0.00000    30.33400     0.00000  0.0
    377    378    383    402   5     0.00000    30.33400     0.00000  0.0
    379    378    383    382   5     0.00000    30.33400     0.00000  0.0
    379    378    383    402   5     0.00000    30.33400     0.00000  0.0
    378    379    380    381   5     0.00000    30.33400     0.00000  0.0
    378    379    380    400   5     0.00000    30.33400     0.00000  0.0
    399    379    380    381   5     0.00000    30.33400     0.00000  0.0
    399    379    380    400   5     0.00000    30.33400     0.00000  0.0
    379    380    381    382   5     0.00000    30.33400     0.00000  0.0
    379    380    381    384   5     0.00000    30.33400     0.00000  0.0
    400    380    381    382   5     0.00000    30.33400     0.00000  0.0
    400    380    381    384   5     0.00000    30.33400     0.00000  0.0
    380    381    382    383   5     0.00000    30.33400     0.00000  0.0
    380    381    382    401   5     0.00000    30.33400     0.00000  0.0
    384    381    382    383   5     0.00000    30.33400     0.00000  0.0
    384    381    382    401   5     0.00000    30.33400     0.00000  0.0
    380    381    384    385   5    -1.62758     5.29694     0.62342  0.0
    380    381    384    389   5    -1.62758     5.29694     0.62342  0.0
    382    381    384    385   5    -1.62758     5.29694     0.62342  0.0
    382    381    384    389   5    -1.62758     5.29694     0.62342  0.0
    381    382    383    378   5     0.00000    30.33400     0.00000  0.0
    381    382    383    402   5     0.00000    30.33400     0.00000  0.0
    401    382    383    378   5     0.00000    30.33400     0.00000  0.0
    401    382    383    402   5     0.00000    30.33400     0.00000  0.0
    381    384    385    386   5     0.00000    30.33400     0.00000  0.0
    381    384    385    403   5     0.00000    30.33400     0.00000  0.0
    389    384    385    386   5     0.00000    30.33400     0.00000  0.0
    389    384    385    403   5     0.00000    30.33400     0.00000  0.0
    381    384    389    388   5     0.00000    30.33400     0.00000  0.0
    381    384    389    406   5     0.00000    30.33400     0.00000  0.0
    385    384    389    388   5     0.00000    30.33400     0.00000  0.0
    385    384    389    406   5     0.00000    30.33400     0.00000  0.0
    384    385    386    387   5     0.00000    30.33400     0.00000  0.0
    384    385    386    404   5     0.00000    30.33400     0.00000  0.0
    403    385    386    387   5     0.00000    30.33400     0.00000  0.0
    403    385    386    404   5     0.00000    30.33400     0.00000  0.0
    385    386    387    388   5     0.00000    30.33400     0.00000  0.0
    385    386    387    390   5     0.00000    30.33400     0.00000  0.0
    404    386    387    388   5     0.00000    30.33400     0.00000  0.0
    404    386    387    390   5     0.00000    30.33400     0.00000  0.0
    386    387    388    389   5     0.00000    30.33400     0.00000  0.0
    386    387    388    405   5     0.00000    30.33400     0.00000  0.0
    390    387    388    389   5     0.00000    30.33400     0.00000  0.0
    390    387    388    405   5     0.00000    30.33400     0.00000  0.0
    386    387    390    407   5     0.00000     3.94551     0.00000  0.0
    388    387    390    407   5     0.00000     3.94551     0.00000  0.0
    387    388    389    384   5     0.00000    30.33400     0.00000  0.0
    387    388    389    406   5     0.00000    30.33400     0.00000  0.0
    405    388    389    384   5     0.00000    30.33400     0.00000  0.0
    405    388    389    406   5     0.00000    30.33400     0.00000  0.0
    387    390    407    408   5     0.00000     3.94551     0.00000  0.0
    387    390    407    412   5     0.00000     3.94551     0.00000  0.0
    390    407    408    409   5     0.00000    30.33400     0.00000  0.0
    390    407    408    436   5     0.00000    30.33400     0.00000  0.0
    412    407    408    409   5     0.00000    30.33400     0.00000  0.0
    412    407    408    436   5     0.00000    30.33400     0.00000  0.0
    390    407    412    411   5     0.00000    30.33400     0.00000  0.0
    390    407    412    439   5     0.00000    30.33400     0.00000  0.0
    408    407    412    411   5     0.00000    30.33400     0.00000  0.0
    408    407    412    439   5     0.00000    30.33400     0.00000  0.0
    407    408    409    410   5     0.00000    30.33400     0.00000  0.0
    407    408    409    437   5     0.00000    30.33400     0.00000  0.0
    436    408    409    410   5     0.00000    30.33400     0.00000  0.0
    436    408    409    437   5     0.00000    30.33400     0.00000  0.0
    408    409    410    411   5     0.00000    30.33400     0.00000  0.0
    408    409    410    413   5     0.00000    30.33400     0.00000  0.0
    437    409    410    411   5     0.00000    30.33400     0.00000  0.0
    437    409    410    413   5     0.00000    30.33400     0.00000  0.0
    409    410    411    412   5     0.00000    30.33400     0.00000  0.0
    409    410    411    438   5     0.00000    30.33400     0.00000  0.0
    413    410    411    412   5     0.00000    30.33400     0.00000  0.0
    413    410    411    438   5     0.00000    30.33400     0.00000  0.0
    409    410    413    414   5     1.63176     1.00416     0.00000  0.0
    409    410    413    415   5     1.63176     1.00416     0.00000  0.0
    409    410    413    416   5     0.00000     3.76560     0.00000  0.0
    411    410    413    414   5     1.63176     1.00416     0.00000  0.0
    411    410    413    415   5     1.63176     1.00416     0.00000  0.0
    411    410    413    416   5     0.00000     3.76560     0.00000  0.0
    410    411    412    407   5     0.00000    30.33400     0.00000  0.0
    410    411    412    439   5     0.00000    30.33400     0.00000  0.0
    438    411    412    407   5     0.00000    30.33400     0.00000  0.0
    438    411    412    439   5     0.00000    30.33400     0.00000  0.0
    410    413    416    417   5     0.00000     3.76560     0.00000  0.0
    410    413    416    421   5     0.00000     3.76560     0.00000  0.0
    414    413    416    417   5     1.63176     1.00416     0.00000  0.0
    414    413    416    421   5     1.63176     1.00416     0.00000  0.0
    415    413    416    417   5     1.63176     1.00416     0.00000  0.0
    415    413    416    421   5     1.63176     1.00416     0.00000  0.0
    413    416    417    418   5     0.00000    30.33400     0.00000  0.0
    413    416    417    440   5     0.00000    30.33400     0.00000  0.0
    421    416    417    418   5     0.00000    30.33400     0.00000  0.0
    421    416    417    440   5     0.00000    30.33400     0.00000  0.0
    413    416    421    420   5     0.00000    30.33400     0.00000  0.0
    413    416    421    443   5     0.00000    30.33400     0.00000  0.0
    417    416    421    420   5     0.00000    30.33400     0.00000  0.0
    417    416    421    443   5     0.00000    30.33400     0.00000  0.0
    416    417    418    419   5     0.00000    30.33400     0.00000  0.0
    416    417    418    441   5     0.00000    30.33400     0.00000  0.0
    440    417    418    419   5     0.00000    30.33400     0.00000  0.0
    440    417    418    441   5     0.00000    30.33400     0.00000  0.0
    417    418    419    420   5     0.00000    30.33400     0.00000  0.0
    417    418    419    422   5     0.00000    30.33400     0.00000  0.0
    441    418    419    420   5     0.00000    30.33400     0.00000  0.0
    441    418    419    422   5     0.00000    30.33400     0.00000  0.0
    418    419    420    421   5     0.00000    30.33400     0.00000  0.0
    418    419    420    442   5     0.00000    30.33400     0.00000  0.0
    422    419    420    421   5     0.00000    30.33400     0.00000  0.0
    422    419    420    442   5     0.00000    30.33400     0.00000  0.0
    418    419    422    423   5     0.00000     3.94551     0.00000  0.0
    420    419    422    423   5     0.00000     3.94551     0.00000  0.0
    419    420    421    416   5     0.00000    30.33400     0.00000  0.0
    419    420    421    443   5     0.00000    30.33400     0.00000  0.0
    442    420    421    416   5     0.00000    30.33400     0.00000  0.0
    442    420    421    443   5     0.00000    30.33400     0.00000  0.0
    419    422    423    424   5     0.00000     3.94551     0.00000  0.0
    419    422    423    428   5     0.00000     3.94551     0.00000  0.0
    422    423    424    425   5     0.00000    30.33400     0.00000  0.0
    422    423    424    444   5     0.00000    30.33400     0.00000  0.0
    428    423    424    425   5     0.00000    30.33400     0.00000  0.0
    428    423    424    444   5     0.00000    30.33400     0.00000  0.0
    422    423    428    427   5     0.00000    30.33400     0.00000  0.0
    422    423    428    447   5     0.00000    30.33400     0.00000  0.0
    424    423    428    427   5     0.00000    30.33400     0.00000  0.0
    424    423    428    447   5     0.00000    30.33400     0.00000  0.0
    423    424    425    426   5     0.00000    30.33400     0.00000  0.0
    423    424    425    445   5     0.00000    30.33400     0.00000  0.0
    444    424    425    426   5     0.00000    30.33400     0.00000  0.0
    444    424    425    445   5     0.00000    30.33400     0.00000  0.0
    424    425    426    427   5     0.00000    30.33400     0.00000  0.0
    424    425    426    429   5     0.00000    30.33400     0.00000  0.0
    445    425    426    427   5     0.00000    30.33400     0.00000  0.0
    445    425    426    429   5     0.00000    30.33400     0.00000  0.0
    425    426    427    428   5     0.00000    30.33400     0.00000  0.0
    425    426    427    446   5     0.00000    30.33400     0.00000  0.0
    429    426    427    428   5     0.00000    30.33400     0.00000  0.0
    429    426    427    446   5     0.00000    30.33400     0.00000  0.0
    425    426    429    430   5    -1.62758     5.29694     0.62342  0.0
    425    426    429    434   5    -1.62758     5.29694     0.62342  0.0
    427    426    429    430   5    -1.62758     5.29694     0.62342  0.0
    427    426    429    434   5    -1.62758     5.29694     0.62342  0.0
    426    427    428    423   5     0.00000    30.33400     0.00000  0.0
    426    427    428    447   5     0.00000    30.33400     0.00000  0.0
    446    427    428    423   5     0.00000    30.33400     0.00000  0.0
    446    427    428    447   5     0.00000    30.33400     0.00000  0.0
    426    429    430    431   5     0.00000    30.33400     0.00000  0.0
    426    429    430    448   5     0.00000    30.33400     0.00000  0.0
    434    429    430    431   5     0.00000    30.33400     0.00000  0.0
    434    429    430    448   5     0.00000    30.33400     0.00000  0.0
    426    429    434    433   5     0.00000    30.33400     0.00000  0.0
    426    429    434    451   5     0.00000    30.33400     0.00000  0.0
    430    429    434    433   5     0.00000    30.33400     0.00000  0.0
    430    429    434    451   5     0.00000    30.33400     0.00000  0.0
    429    430    431    432   5     0.00000    30.33400     0.00000  0.0
    429    430    431    449   5     0.00000    30.33400     0.00000  0.0
    448    430    431    432   5     0.00000    30.33400     0.00000  0.0
    448    430    431    449   5     0.00000    30.33400     0.00000  0.0
    430    431    432    433   5     0.00000    30.33400     0.00000  0.0
    430    431    432    435   5     0.00000    30.33400     0.00000  0.0
    449    431    432    433   5     0.00000    30.33400     0.00000  0.0
    449    431    432    435   5     0.00000    30.33400     0.00000  0.0
    431    432    433    434   5     0.00000    30.33400     0.00000  0.0
    431    432    433    450   5     0.00000    30.33400     0.00000  0.0
    435    432    433    434   5     0.00000    30.33400     0.00000  0.0
    435    432    433    450   5     0.00000    30.33400     0.00000  0.0
    431    432    435    452   5     0.00000     3.94551     0.00000  0.0
    433    432    435    452   5     0.00000     3.94551     0.00000  0.0
    432    433    434    429   5     0.00000    30.33400     0.00000  0.0
    432    433    434    451   5     0.00000    30.33400     0.00000  0.0
    450    433    434    429   5     0.00000    30.33400     0.00000  0.0
    450    433    434    451   5     0.00000    30.33400     0.00000  0.0
    432    435    452    453   5     0.00000     3.94551     0.00000  0.0
    432    435    452    457   5     0.00000     3.94551     0.00000  0.0
    435    452    453    454   5     0.00000    30.33400     0.00000  0.0
    435    452    453    481   5     0.00000    30.33400     0.00000  0.0
    457    452    453    454   5     0.00000    30.33400     0.00000  0.0
    457    452    453    481   5     0.00000    30.33400     0.00000  0.0
    435    452    457    456   5     0.00000    30.33400     0.00000  0.0
    435    452    457    484   5     0.00000    30.33400     0.00000  0.0
    453    452    457    456   5     0.00000    30.33400     0.00000  0.0
    453    452    457    484   5     0.00000    30.33400     0.00000  0.0
    452    453    454    455   5     0.00000    30.33400     0.00000  0.0
    452    453    454    482   5     0.00000    30.33400     0.00000  0.0
    481    453    454    455   5     0.00000    30.33400     0.00000  0.0
    481    453    454    482   5     0.00000    30.33400     0.00000  0.0
    453    454    455    456   5     0.00000    30.33400     0.00000  0.0
    453    454    455    458   5     0.00000    30.33400     0.00000  0.0
    482    454    455    456   5     0.00000    30.33400     0.00000  0.0
    482    454    455    458   5     0.00000    30.33400     0.00000  0.0
    454    455    456    457   5     0.00000    30.33400     0.00000  0.0
    454    455    456    483   5     0.00000    30.33400     0.00000  0.0
    458    455    456    457   5     0.00000    30.33400     0.00000  0.0
    458    455    456    483   5     0.00000    30.33400     0.00000  0.0
    454    455    458    459   5     1.63176     1.00416     0.00000  0.0
    454    455    458    460   5     1.63176     1.00416     0.00000  0.0
    454    455    458    461   5     0.00000     3.76560     0.00000  0.0
    456    455    458    459   5     1.63176     1.00416     0.00000  0.0
    456    455    458    460   5     1.63176     1.00416     0.00000  0.0
    456    455    458    461   5     0.00000     3.76560     0.00000  0.0
    455    456    457    452   5     0.00000    30.33400     0.00000  0.0
    455    456    457    484   5     0.00000    30.33400     0.00000  0.0
    483    456    457    452   5     0.00000    30.33400     0.00000  0.0
    483    456    457    484   5     0.00000    30.33400     0.00000  0.0
    455    458    461    462   5     0.00000     3.76560     0.00000  0.0
    455    458    461    466   5     0.00000     3.76560     0.00000  0.0
    459    458    461    462   5     1.63176     1.00416     0.00000  0.0
    459    458    461    466   5     1.63176     1.00416     0.00000  0.0
    460    458    461    462   5     1.63176     1.00416     0.00000  0.0
    460    458    461    466   5     1.63176     1.00416     0.00000  0.0
    458    461    462    463   5     0.00000    30.33400     0.00000  0.0
    458    461    462    485   5     0.00000    30.33400     0.00000  0.0
    466    461    462    463   5     0.00000    30.33400     0.00000  0.0
    466    461    462    485   5     0.00000    30.33400     0.00000  0.0
    458    461    466    465   5     0.00000    30.33400     0.00000  0.0
    458    461    466    488   5     0.00000    30.33400     0.00000  0.0
    462    461    466    465   5     0.00000    30.33400     0.00000  0.0
    462    461    466    488   5     0.00000    30.33400     0.00000  0.0
    461    462    463    464   5     0.00000    30.33400     0.00000  0.0
    461    462    463    486   5     0.00000    30.33400     0.00000  0.0
    485    462    463    464   5     0.00000    30.33400     0.00000  0.0
    485    462    463    486   5     0.00000    30.33400     0.00000  0.0
    462    463    464    465   5     0.00000    30.33400     0.00000  0.0
    462    463    464    467   5     0.00000    30.33400     0.00000  0.0
    486    463    464    465   5     0.00000    30.33400     0.00000  0.0
    486    463    464    467   5     0.00000    30.33400     0.00000  0.0
    463    464    465    466   5     0.00000    30.33400     0.00000  0.0
    463    464    465    487   5     0.00000    30.33400     0.00000  0.0
    467    464    465    466   5     0.00000    30.33400     0.00000  0.0
    467    464    465    487   5     0.00000    30.33400     0.00000  0.0
    463    464    467    468   5     0.00000     3.94551     0.00000  0.0
    465    464    467    468   5     0.00000     3.94551     0.00000  0.0
    464    465    466    461   5     0.00000    30.33400     0.00000  0.0
    464    465    466    488   5     0.00000    30.33400     0.00000  0.0
    487    465    466    461   5     0.00000    30.33400     0.00000  0.0
    487    465    466    488   5     0.00000    30.33400     0.00000  0.0
    464    467    468    469   5     0.00000     3.94551     0.00000  0.0
    464    467    468    473   5     0.00000     3.94551     0.00000  0.0
    467    468    469    470   5     0.00000    30.33400     0.00000  0.0
    467    468    469    489   5     0.00000    30.33400     0.00000  0.0
    473    468    469    470   5     0.00000    30.33400     0.00000  0.0
    473    468    469    489   5     0.00000    30.33400     0.00000  0.0
    467    468    473    472   5     0.00000    30.33400     0.00000  0.0
    467    468    473    492   5     0.00000    30.33400     0.00000  0.0
    469    468    473    472   5     0.00000    30.33400     0.00000  0.0
    469    468    473    492   5     0.00000    30.33400     0.00000  0.0
    468    469    470    471   5     0.00000    30.33400     0.00000  0.0
    468    469    470    490   5     0.00000    30.33400     0.00000  0.0
    489    469    470    471   5     0.00000    30.33400     0.00000  0.0
    489    469    470    490   5     0.00000    30.33400     0.00000  0.0
    469    470    471    472   5     0.00000    30.33400     0.00000  0.0
    469    470    471    474   5     0.00000    30.33400     0.00000  0.0
    490    470    471    472   5     0.00000    30.33400     0.00000  0.0
    490    470    471    474   5     0.00000    30.33400     0.00000  0.0
    470    471    472    473   5     0.00000    30.33400     0.00000  0.0
    470    471    472    491   5     0.00000    30.33400     0.00000  0.0
    474    471    472    473   5     0.00000    30.33400     0.00000  0.0
    474    471    472    491   5     0.00000    30.33400     0.00000  0.0
    470    471    474    475   5    -1.62758     5.29694     0.62342  0.0
    470    471    474    479   5    -1.62758     5.29694     0.62342  0.0
    472    471    474    475   5    -1.62758     5.29694     0.62342  0.0
    472    471    474    479   5    -1.62758     5.29694     0.62342  0.0
    471    472    473    468   5     0.00000    30.33400     0.00000  0.0
    471    472    473    492   5     0.00000    30.33400     0.00000  0.0
    491    472    473    468   5     0.00000    30.33400     0.00000  0.0
    491    472    473    492   5     0.00000    30.33400     0.00000  0.0
    471    474    475    476   5     0.00000    30.33400     0.00000  0.0
    471    474    475    493   5     0.00000    30.33400     0.00000  0.0
    479    474    475    476   5     0.00000    30.33400     0.00000  0.0
    479    474    475    493   5     0.00000    30.33400     0.00000  0.0
    471    474    479    478   5     0.00000    30.33400     0.00000  0.0
    471    474    479    496   5     0.00000    30.33400     0.00000  0.0
    475    474    479    478   5     0.00000    30.33400     0.00000  0.0
    475    474    479    496   5     0.00000    30.33400     0.00000  0.0
    474    475    476    477   5     0.00000    30.33400     0.00000  0.0
    474    475    476    494   5     0.00000    30.33400     0.00000  0.0
    493    475    476    477   5     0.00000    30.33400     0.00000  0.0
    493    475    476    494   5     0.00000    30.33400     0.00000  0.0
    475    476    477    478   5     0.00000    30.33400     0.00000  0.0
    475    476    477    480   5     0.00000    30.33400     0.00000  0.0
    494    476    477    478   5     0.00000    30.33400     0.00000  0.0
    494    476    477    480   5     0.00000    30.33400     0.00000  0.0
    476    477    478    479   5     0.00000    30.33400     0.00000  0.0
    476    477    478    495   5     0.00000    30.33400     0.00000  0.0
    480    477    478    479   5     0.00000    30.33400     0.00000  0.0
    480    477    478    495   5     0.00000    30.33400     0.00000  0.0
    476    477    480    497   5     0.00000     3.94551     0.00000  0.0
    478    477    480    497   5     0.00000     3.94551     0.00000  0.0
    477    478    479    474   5     0.00000    30.33400     0.00000  0.0
    477    478    479    496   5     0.00000    30.33400     0.00000  0.0
    495    478    479    474   5     0.00000    30.33400     0.00000  0.0
    495    478    479    496   5     0.00000    30.33400     0.00000  0.0
    477    480    497    498   5     0.00000     3.94551     0.00000  0.0
    477    480    497    502   5     0.00000     3.94551     0.00000  0.0
    480    497    498    499   5     0.00000    30.33400     0.00000  0.0
    480    497    498    526   5     0.00000    30.33400     0.00000  0.0
    502    497    498    499   5     0.00000    30.33400     0.00000  0.0
    502    497    498    526   5     0.00000    30.33400     0.00000  0.0
    480    497    502    501   5     0.00000    30.33400     0.00000  0.0
    480    497    502    529   5     0.00000    30.33400     0.00000  0.0
    498    497    502    501   5     0.00000    30.33400     0.00000  0.0
    498    497    502    529   5     0.00000    30.33400     0.00000  0.0
    497    498    499    500   5     0.00000    30.33400     0.00000  0.0
    497    498    499    527   5     0.00000    30.33400     0.00000  0.0
    526    498    499    500   5     0.00000    30.33400     0.00000  0.0
    526    498    499    527   5     0.00000    30.33400     0.00000  0.0
    498    499    500    501   5     0.00000    30.33400     0.00000  0.0
    498    499    500    503   5     0.00000    30.33400     0.00000  0.0
    527    499    500    501   5     0.00000    30.33400     0.00000  0.0
    527    499    500    503   5     0.00000    30.33400     0.00000  0.0
    499    500    501    502   5     0.00000    30.33400     0.00000  0.0
    499    500    501    528   5     0.00000    30.33400     0.00000  0.0
    503    500    501    502   5     0.00000    30.33400     0.00000  0.0
    503    500    501    528   5     0.00000    30.33400     0.00000  0.0
    499    500    503    504   5     1.63176     1.00416     0.00000  0.0
    499    500    503    505   5     1.63176     1.00416     0.00000  0.0
    499    500    503    506   5     0.00000     3.76560     0.00000  0.0
    501    500    503    504   5     1.63176     1.00416     0.00000  0.0
    501    500    503    505   5     1.63176     1.00416     0.00000  0.0
    501    500    503    506   5     0.00000     3.76560     0.00000  0.0
    500    501    502    497   5     0.00000    30.33400     0.00000  0.0
    500    501    502    529   5     0.00000    30.33400     0.00000  0.0
    528    501    502    497   5     0.00000    30.33400     0.00000  0.0
    528    501    502    529   5     0.00000    30.33400     0.00000  0.0
    500    503    506    507   5     0.00000     3.76560     0.00000  0.0
    500    503    506    511   5     0.00000     3.76560     0.00000  0.0
    504    503    506    507   5     1.63176     1.00416     0.00000  0.0
    504    503    506    511   5     1.63176     1.00416     0.00000  0.0
    505    503    506    507   5     1.63176     1.00416     0.00000  0.0
    505    503    506    511   5     1.63176     1.00416     0.00000  0.0
    503    506    507    508   5     0.00000    30.33400     0.00000  0.0
    503    506    507    530   5     0.00000    30.33400     0.00000  0.0
    511    506    507    508   5     0.00000    30.33400     0.00000  0.0
    511    506    507    530   5     0.00000    30.33400     0.00000  0.0
    503    506    511    510   5     0.00000    30.33400     0.00000  0.0
    503    506    511    533   5     0.00000    30.33400     0.00000  0.0
    507    506    511    510   5     0.00000    30.33400     0.00000  0.0
    507    506    511    533   5     0.00000    30.33400     0.00000  0.0
    506    507    508    509   5     0.00000    30.33400     0.00000  0.0
    506    507    508    531   5     0.00000    30.33400     0.00000  0.0
    530    507    508    509   5     0.00000    30.33400     0.00000  0.0
    530    507    508    531   5     0.00000    30.33400     0.00000  0.0
    507    508    509    510   5     0.00000    30.33400     0.00000  0.0
    507    508    509    512   5     0.00000    30.33400     0.00000  0.0
    531    508    509    510   5     0.00000    30.33400     0.00000  0.0
    531    508    509    512   5     0.00000    30.33400     0.00000  0.0
    508    509    510    511   5     0.00000    30.33400     0.00000  0.0
    508    509    510    532   5     0.00000    30.33400     0.00000  0.0
    512    509    510    511   5     0.00000    30.33400     0.00000  0.0
    512    509    510    532   5     0.00000    30.33400     0.00000  0.0
    508    509    512    513   5     0.00000     3.94551     0.00000  0.0
    510    509    512    513   5     0.00000     3.94551     0.00000  0.0
    509    510    511    506   5     0.00000    30.33400     0.00000  0.0
    509    510    511    533   5     0.00000    30.33400     0.00000  0.0
    532    510    511    506   5     0.00000    30.33400     0.00000  0.0
    532    510    511    533   5     0.00000    30.33400     0.00000  0.0
    509    512    513    514   5     0.00000     3.94551     0.00000  0.0
    509    512    513    518   5     0.00000     3.94551     0.00000  0.0
    512    513    514    515   5     0.00000    30.33400     0.00000  0.0
    512    513    514    534   5     0.00000    30.33400     0.00000  0.0
    518    513    514    515   5     0.00000    30.33400     0.00000  0.0
    518    513    514    534   5     0.00000    30.33400     0.00000  0.0
    512    513    518    517   5     0.00000    30.33400     0.00000  0.0
    512    513    518    537   5     0.00000    30.33400     0.00000  0.0
    514    513    518    517   5     0.00000    30.33400     0.00000  0.0
    514    513    518    537   5     0.00000    30.33400     0.00000  0.0
    513    514    515    516   5     0.00000    30.33400     0.00000  0.0
    513    514    515    535   5     0.00000    30.33400     0.00000  0.0
    534    514    515    516   5     0.00000    30.33400     0.00000  0.0
    534    514    515    535   5     0.00000    30.33400     0.00000  0.0
    514    515    516    517   5     0.00000    30.33400     0.00000  0.0
    514    515    516    519   5     0.00000    30.33400     0.00000  0.0
    535    515    516    517   5     0.00000    30.33400     0.00000  0.0
    535    515    516    519   5     0.00000    30.33400     0.00000  0.0
    515    516    517    518   5     0.00000    30.33400     0.00000  0.0
    515    516    517    536   5     0.00000    30.33400     0.00000  0.0
    519    516    517    518   5     0.00000    30.33400     0.00000  0.0
    519    516    517    536   5     0.00000    30.33400     0.00000  0.0
    515    516    519    520   5    -1.62758     5.29694     0.62342  0.0
    515    516    519    524   5    -1.62758     5.29694     0.62342  0.0
    517    516    519    520   5    -1.62758     5.29694     0.62342  0.0
    517    516    519    524   5    -1.62758     5.29694     0.62342  0.0
    516    517    518    513   5     0.00000    30.33400     0.00000  0.0
    516    517    518    537   5     0.00000    30.33400     0.00000  0.0
    536    517    518    513   5     0.00000    30.33400     0.00000  0.0
    536    517    518    537   5     0.00000    30.33400     0.00000  0.0
    516    519    520    521   5     0.00000    30.33400     0.00000  0.0
    516    519    520    538   5     0.00000    30.33400     0.00000  0.0
    524    519    520    521   5     0.00000    30.33400     0.00000  0.0
    524    519    520    538   5     0.00000    30.33400     0.00000  0.0
    516    519    524    523   5     0.00000    30.33400     0.00000  0.0
    516    519    524    541   5     0.00000    30.33400     0.00000  0.0
    520    519    524    523   5     0.00000    30.33400     0.00000  0.0
    520    519    524    541   5     0.00000    30.33400     0.00000  0.0
    519    520    521    522   5     0.00000    30.33400     0.00000  0.0
    519    520    521    539   5     0.00000    30.33400     0.00000  0.0
    538    520    521    522   5     0.00000    30.33400     0.00000  0.0
    538    520    521    539   5     0.00000    30.33400     0.00000  0.0
    520    521    522    523   5     0.00000    30.33400     0.00000  0.0
    520    521    522    525   5     0.00000    30.33400     0.00000  0.0
    539    521    522    523   5     0.00000    30.33400     0.00000  0.0
    539    521    522    525   5     0.00000    30.33400     0.00000  0.0
    521    522    523    524   5     0.00000    30.33400     0.00000  0.0
    521    522    523    540   5     0.00000    30.33400     0.00000  0.0
    525    522    523    524   5     0.00000    30.33400     0.00000  0.0
    525    522    523    540   5     0.00000    30.33400     0.00000  0.0
    521    522    525    542   5     0.00000     3.94551     0.00000  0.0
    523    522    525    542   5     0.00000     3.94551     0.00000  0.0
    522    523    524    519   5     0.00000    30.33400     0.00000  0.0
    522    523    524    541   5     0.00000    30.33400     0.00000  0.0
    540    523    524    519   5     0.00000    30.33400     0.00000  0.0
    540    523    524    541   5     0.00000    30.33400     0.00000  0.0
    522    525    542    543   5     0.00000     3.94551     0.00000  0.0
    522    525    542    547   5     0.00000     3.94551     0.00000  0.0
    525    542    543    544   5     0.00000    30.33400     0.00000  0.0
    525    542    543    571   5     0.00000    30.33400     0.00000  0.0
    547    542    543    544   5     0.00000    30.33400     0.00000  0.0
    547    542    543    571   5     0.00000    30.33400     0.00000  0.0
    525    542    547    546   5     0.00000    30.33400     0.00000  0.0
    525    542    547    574   5     0.00000    30.33400     0.00000  0.0
    543    542    547    546   5     0.00000    30.33400     0.00000  0.0
    543    542    547    574   5     0.00000    30.33400     0.00000  0.0
    542    543    544    545   5     0.00000    30.33400     0.00000  0.0
    542    543    544    572   5     0.00000    30.33400     0.00000  0.0
    571    543    544    545   5     0.00000    30.33400     0.00000  0.0
    571    543    544    572   5     0.00000    30.33400     0.00000  0.0
    543    544    545    546   5     0.00000    30.33400     0.00000  0.0
    543    544    545    548   5     0.00000    30.33400     0.00000  0.0
    572    544    545    546   5     0.00000    30.33400     0.00000  0.0
    572    544    545    548   5     0.00000    30.33400     0.00000  0.0
    544    545    546    547   5     0.00000    30.33400     0.00000  0.0
    544    545    546    573   5     0.00000    30.33400     0.00000  0.0
    548    545    546    547   5     0.00000    30.33400     0.00000  0.0
    548    545    546    573   5     0.00000    30.33400     0.00000  0.0
    544    545    548    549   5     1.63176     1.00416     0.00000  0.0
    544    545    548    550   5     1.63176     1.00416     0.00000  0.0
    544    545    548    551   5     0.00000     3.76560     0.00000  0.0
    546    545    548    549   5     1.63176     1.00416     0.00000  0.0
    546    545    548    550   5     1.63176     1.00416     0.00000  0.0
    546    545    548    551   5     0.00000     3.76560     0.00000  0.0
    545    546    547    542   5     0.00000    30.33400     0.00000  0.0
    545    546    547    574   5     0.00000    30.33400     0.00000  0.0
    573    546    547    542   5     0.00000    30.33400     0.00000  0.0
    573    546    547    574   5     0.00000    30.33400     0.00000  0.0
    545    548    551    552   5     0.00000     3.76560     0.00000  0.0
    545    548    551    556   5     0.00000     3.76560     0.00000  0.0
    549    548    551    552   5     1.63176     1.00416     0.00000  0.0
    549    548    551    556   5     1.63176     1.00416     0.00000  0.0
    550    548    551    552   5     1.63176     1.00416     0.00000  0.0
    550    548    551    556   5     1.63176     1.00416     0.00000  0.0
    548    551    552    553   5     0.00000    30.33400     0.00000  0.0
    548    551    552    575   5     0.00000    30.33400     0.00000  0.0
    556    551    552    553   5     0.00000    30.33400     0.00000  0.0
    556    551    552    575   5     0.00000    30.33400     0.00000  0.0
    548    551    556    555   5     0.00000    30.33400     0.00000  0.0
    548    551    556    578   5     0.00000    30.33400     0.00000  0.0
    552    551    556    555   5     0.00000    30.33400     0.00000  0.0
    552    551    556    578   5     0.00000    30.33400     0.00000  0.0
    551    552    553    554   5     0.00000    30.33400     0.00000  0.0
    551    552    553    576   5     0.00000    30.33400     0.00000  0.0
    575    552    553    554   5     0.00000    30.33400     0.00000  0.0
    575    552    553    576   5     0.00000    30.33400     0.00000  0.0
    552    553    554    555   5     0.00000    30.33400     0.00000  0.0
    552    553    554    557   5     0.00000    30.33400     0.00000  0.0
    576    553    554    555   5     0.00000    30.33400     0.00000  0.0
    576    553    554    557   5     0.00000    30.33400     0.00000  0.0
    553    554    555    556   5     0.00000    30.33400     0.00000  0.0
    553    554    555    577   5     0.00000    30.33400     0.00000  0.0
    557    554    555    556   5     0.00000    30.33400     0.00000  0.0
    557    554    555    577   5     0.00000    30.33400     0.00000  0.0
    553    554    557    558   5     0.00000     3.94551     0.00000  0.0
    555    554    557    558   5     0.00000     3.94551     0.00000  0.0
    554    555    556    551   5     0.00000    30.33400     0.00000  0.0
    554    555    556    578   5     0.00000    30.33400     0.00000  0.0
    577    555    556    551   5     0.00000    30.33400     0.00000  0.0
    577    555    556    578   5     0.00000    30.33400     0.00000  0.0
    554    557    558    559   5     0.00000     3.94551     0.00000  0.0
    554    557    558    563   5     0.00000     3.94551     0.00000  0.0
    557    558    559    560   5     0.00000    30.33400     0.00000  0.0
    557    558    559    579   5     0.00000    30.33400     0.00000  0.0
    563    558    559    560   5     0.00000    30.33400     0.00000  0.0
    563    558    559    579   5     0.00000    30.33400     0.00000  0.0
    557    558    563    562   5     0.00000    30.33400     0.00000  0.0
    557    558    563    582   5     0.00000    30.33400     0.00000  0.0
    559    558    563    562   5     0.00000    30.33400     0.00000  0.0
    559    558    563    582   5     0.00000    30.33400     0.00000  0.0
    558    559    560    561   5     0.00000    30.33400     0.00000  0.0
    558    559    560    580   5     0.00000    30.33400     0.00000  0.0
    579    559    560    561   5     0.00000    30.33400     0.00000  0.0
    579    559    560    580   5     0.00000    30.33400     0.00000  0.0
    559    560    561    562   5     0.00000    30.33400     0.00000  0.0
    559    560    561    564   5     0.00000    30.33400     0.00000  0.0
    580    560    561    562   5     0.00000    30.33400     0.00000  0.0
    580    560    561    564   5     0.00000    30.33400     0.00000  0.0
    560    561    562    563   5     0.00000    30.33400     0.00000  0.0
    560    561    562    581   5     0.00000    30.33400     0.00000  0.0
    564    561    562    563   5     0.00000    30.33400     0.00000  0.0
    564    561    562    581   5     0.00000    30.33400     0.00000  0.0
    560    561    564    565   5    -1.62758     5.29694     0.62342  0.0
    560    561    564    569   5    -1.62758     5.29694     0.62342  0.0
    562    561    564    565   5    -1.62758     5.29694     0.62342  0.0
    562    561    564    569   5    -1.62758     5.29694     0.62342  0.0
    561    562    563    558   5     0.00000    30.33400     0.00000  0.0
    561    562    563    582   5     0.00000    30.33400     0.00000  0.0
    581    562    563    558   5     0.00000    30.33400     0.00000  0.0
    581    562    563    582   5     0.00000    30.33400     0.00000  0.0
    561    564    565    566   5     0.00000    30.33400     0.00000  0.0
    561    564    565    583   5     0.00000    30.33400     0.00000  0.0
    569    564    565    566   5     0.00000    30.33400     0.00000  0.0
    569    564    565    583   5     0.00000    30.33400     0.00000  0.0
    561    564    569    568   5     0.00000    30.33400     0.00000  0.0
    561    564    569    586   5     0.00000    30.33400     0.00000  0.0
    565    564    569    568   5     0.00000    30.33400     0.00000  0.0
    565    564    569    586   5     0.00000    30.33400     0.00000  0.0
    564    565    566    567   5     0.00000    30.33400     0.00000  0.0
    564    565    566    584   5     0.00000    30.33400     0.00000  0.0
    583    565    566    567   5     0.00000    30.33400     0.00000  0.0
    583    565    566    584   5     0.00000    30.33400     0.00000  0.0
    565    566    567    568   5     0.00000    30.33400     0.00000  0.0
    565    566    567    570   5     0.00000    30.33400     0.00000  0.0
    584    566    567    568   5     0.00000    30.33400     0.00000  0.0
    584    566    567    570   5     0.00000    30.33400     0.00000  0.0
    566    567    568    569   5     0.00000    30.33400     0.00000  0.0
    566    567    568    585   5     0.00000    30.33400     0.00000  0.0
    570    567    568    569   5     0.00000    30.33400     0.00000  0.0
    570    567    568    585   5     0.00000    30.33400     0.00000  0.0
    566    567    570    587   5     0.00000     3.94551     0.00000  0.0
    568    567    570    587   5     0.00000     3.94551     0.00000  0.0
    567    568    569    564   5     0.00000    30.33400     0.00000  0.0
    567    568    569    586   5     0.00000    30.33400     0.00000  0.0
    585    568    569    564   5     0.00000    30.33400     0.00000  0.0
    585    568    569    586   5     0.00000    30.33400     0.00000  0.0
    567    570    587    588   5     0.00000     3.94551     0.00000  0.0
    567    570    587    592   5     0.00000     3.94551     0.00000  0.0
    570    587    588    589   5     0.00000    30.33400     0.00000  0.0
    570    587    588    616   5     0.00000    30.33400     0.00000  0.0
    592    587    588    589   5     0.00000    30.33400     0.00000  0.0
    592    587    588    616   5     0.00000    30.33400     0.00000  0.0
    570    587    592    591   5     0.00000    30.33400     0.00000  0.0
    570    587    592    619   5     0.00000    30.33400     0.00000  0.0
    588    587    592    591   5     0.00000    30.33400     0.00000  0.0
    588    587    592    619   5     0.00000    30.33400     0.00000  0.0
    587    588    589    590   5     0.00000    30.33400     0.00000  0.0
    587    588    589    617   5     0.00000    30.33400     0.00000  0.0
    616    588    589    590   5     0.00000    30.33400     0.00000  0.0
    616    588    589    617   5     0.00000    30.33400     0.00000  0.0
    588    589    590    591   5     0.00000    30.33400     0.00000  0.0
    588    589    590    593   5     0.00000    30.33400     0.00000  0.0
    617    589    590    591   5     0.00000    30.33400     0.00000  0.0
    617    589    590    593   5     0.00000    30.33400     0.00000  0.0
    589    590    591    592   5     0.00000    30.33400     0.00000  0.0
    589    590    591    618   5     0.00000    30.33400     0.00000  0.0
    593    590    591    592   5     0.00000    30.33400     0.00000  0.0
    593    590    591    618   5     0.00000    30.33400     0.00000  0.0
    589    590    593    594   5     1.63176     1.00416     0.00000  0.0
    589    590    593    595   5     1.63176     1.00416     0.00000  0.0
    589    590    593    596   5     0.00000     3.76560     0.00000  0.0
    591    590    593    594   5     1.63176     1.00416     0.00000  0.0
    591    590    593    595   5     1.63176     1.00416     0.00000  0.0
    591    590    593    596   5     0.00000     3.76560     0.00000  0.0
    590    591    592    587   5     0.00000    30.33400     0.00000  0.0
    590    591    592    619   5     0.00000    30.33400     0.00000  0.0
    618    591    592    587   5     0.00000    30.33400     0.00000  0.0
    618    591    592    619   5     0.00000    30.33400     0.00000  0.0
    590    593    596    597   5     0.00000     3.76560     0.00000  0.0
    590    593    596    601   5     0.00000     3.76560     0.00000  0.0
    594    593    596    597   5     1.63176     1.00416     0.00000  0.0
    594    593    596    601   5     1.63176     1.00416     0.00000  0.0
    595    593    596    597   5     1.63176     1.00416     0.00000  0.0
    595    593    596    601   5     1.63176     1.00416     0.00000  0.0
    593    596    597    598   5     0.00000    30.33400     0.00000  0.0
    593    596    597    620   5     0.00000    30.33400     0.00000  0.0
    601    596    597    598   5     0.00000    30.33400     0.00000  0.0
    601    596    597    620   5     0.00000    30.33400     0.00000  0.0
    593    596    601    600   5     0.00000    30.33400     0.00000  0.0
    593    596    601    623   5     0.00000    30.33400     0.00000  0.0
    597    596    601    600   5     0.00000    30.33400     0.00000  0.0
    597    596    601    623   5     0.00000    30.33400     0.00000  0.0
    596    597    598    599   5     0.00000    30.33400     0.00000  0.0
    596    597    598    621   5     0.00000    30.33400     0.00000  0.0
    620    597    598    599   5     0.00000    30.33400     0.00000  0.0
    620    597    598    621   5     0.00000    30.33400     0.00000  0.0
    597    598    599    600   5     0.00000    30.33400     0.00000  0.0
    597    598    599    602   5     0.00000    30.33400     0.00000  0.0
    621    598    599    600   5     0.00000    30.33400     0.00000  0.0
    621    598    599    602   5     0.00000    30.33400     0.00000  0.0
    598    599    600    601   5     0.00000    30.33400     0.00000  0.0
    598    599    600    622   5     0.00000    30.33400     0.00000  0.0
    602    599    600    601   5     0.00000    30.33400     0.00000  0.0
    602    599    600    622   5     0.00000    30.33400     0.00000  0.0
    598    599    602    603   5     0.00000     3.94551     0.00000  0.0
    600    599    602    603   5     0.00000     3.94551     0.00000  0.0
    599    600    601    596   5     0.00000    30.33400     0.00000  0.0
    599    600    601    623   5     0.00000    30.33400     0.00000  0.0
    622    600    601    596   5     0.00000    30.33400     0.00000  0.0
    622    600    601    623   5     0.00000    30.33400     0.00000  0.0
    599    602    603    604   5     0.00000     3.94551     0.00000  0.0
    599    602    603    608   5     0.00000     3.94551     0.00000  0.0
    602    603    604    605   5     0.00000    30.33400     0.00000  0.0
    602    603    604    624   5     0.00000    30.33400     0.00000  0.0
    608    603    604    605   5     0.00000    30.33400     0.00000  0.0
    608    603    604    624   5     0.00000    30.33400     0.00000  0.0
    602    603    608    607   5     0.00000    30.33400     0.00000  0.0
    602    603    608    627   5     0.00000    30.33400     0.00000  0.0
    604    603    608    607   5     0.00000    30.33400     0.00000  0.0
    604    603    608    627   5     0.00000    30.33400     0.00000  0.0
    603    604    605    606   5     0.00000    30.33400     0.00000  0.0
    603    604    605    625   5     0.00000    30.33400     0.00000  0.0
    624    604    605    606   5     0.00000    30.33400     0.00000  0.0
    624    604    605    625   5     0.00000    30.33400     0.00000  0.0
    604    605    606    607   5     0.00000    30.33400     0.00000  0.0
    604    605    606    609   5     0.00000    30.33400     0.00000  0.0
    625    605    606    607   5     0.00000    30.33400     0.00000  0.0
    625    605    606    609   5     0.00000    30.33400     0.00000  0.0
    605    606    607    608   5     0.00000    30.33400     0.00000  0.0
    605    606    607    626   5     0.00000    30.33400     0.00000  0.0
    609    606    607    608   5     0.00000    30.33400     0.00000  0.0
    609    606    607    626   5     0.00000    30.33400     0.00000  0.0
    605    606    609    610   5    -1.62758     5.29694     0.62342  0.0
    605    606    609    614   5    -1.62758     5.29694     0.62342  0.0
    607    606    609    610   5    -1.62758     5.29694     0.62342  0.0
    607    606    609    614   5    -1.62758     5.29694     0.62342  0.0
    606    607    608    603   5     0.00000    30.33400     0.00000  0.0
    606    607    608    627   5     0.00000    30.33400     0.00000  0.0
    626    607    608    603   5     0.00000    30.33400     0.00000  0.0
    626    607    608    627   5     0.00000    30.33400     0.00000  0.0
    606    609    610    611   5     0.00000    30.33400     0.00000  0.0
    606    609    610    628   5     0.00000    30.33400     0.00000  0.0
    614    609    610    611   5     0.00000    30.33400     0.00000  0.0
    614    609    610    628   5     0.00000    30.33400     0.00000  0.0
    606    609    614    613   5     0.00000    30.33400     0.00000  0.0
    606    609    614    631   5     0.00000    30.33400     0.00000  0.0
    610    609    614    613   5     0.00000    30.33400     0.00000  0.0
    610    609    614    631   5     0.00000    30.33400     0.00000  0.0
    609    610    611    612   5     0.00000    30.33400     0.00000  0.0
    609    610    611    629   5     0.00000    30.33400     0.00000  0.0
    628    610    611    612   5     0.00000    30.33400     0.00000  0.0
    628    610    611    629   5     0.00000    30.33400     0.00000  0.0
    610    611    612    613   5     0.00000    30.33400     0.00000  0.0
    610    611    612    615   5     0.00000    30.33400     0.00000  0.0
    629    611    612    613   5     0.00000    30.33400     0.00000  0.0
    629    611    612    615   5     0.00000    30.33400     0.00000  0.0
    611    612    613    614   5     0.00000    30.33400     0.00000  0.0
    611    612    613    630   5     0.00000    30.33400     0.00000  0.0
    615    612    613    614   5     0.00000    30.33400     0.00000  0.0
    615    612    613    630   5     0.00000    30.33400     0.00000  0.0
    611    612    615    632   5     0.00000     3.94551     0.00000  0.0
    613    612    615    632   5     0.00000     3.94551     0.00000  0.0
    612    613    614    609   5     0.00000    30.33400     0.00000  0.0
    612    613    614    631   5     0.00000    30.33400     0.00000  0.0
    630    613    614    609   5     0.00000    30.33400     0.00000  0.0
    630    613    614    631   5     0.00000    30.33400     0.00000  0.0
    612    615    632    633   5     0.00000     3.94551     0.00000  0.0
    612    615    632    637   5     0.00000     3.94551     0.00000  0.0
    615    632    633    634   5     0.00000    30.33400     0.00000  0.0
    615    632    633    661   5     0.00000    30.33400     0.00000  0.0
    637    632    633    634   5     0.00000    30.33400     0.00000  0.0
    637    632    633    661   5     0.00000    30.33400     0.00000  0.0
    615    632    637    636   5     0.00000    30.33400     0.00000  0.0
    615    632    637    664   5     0.00000    30.33400     0.00000  0.0
    633    632    637    636   5     0.00000    30.33400     0.00000  0.0
    633    632    637    664   5     0.00000    30.33400     0.00000  0.0
    632    633    634    635   5     0.00000    30.33400     0.00000  0.0
    632    633    634    662   5     0.00000    30.33400     0.00000  0.0
    661    633    634    635   5     0.00000    30.33400     0.00000  0.0
    661    633    634    662   5     0.00000    30.33400     0.00000  0.0
    633    634    635    636   5     0.00000    30.33400     0.00000  0.0
    633    634    635    638   5     0.00000    30.33400     0.00000  0.0
    662    634    635    636   5     0.00000    30.33400     0.00000  0.0
    662    634    635    638   5     0.00000    30.33400     0.00000  0.0
    634    635    636    637   5     0.00000    30.33400     0.00000  0.0
    634    635    636    663   5     0.00000    30.33400     0.00000  0.0
    638    635    636    637   5     0.00000    30.33400     0.00000  0.0
    638    635    636    663   5     0.00000    30.33400     0.00000  0.0
    634    635    638    639   5     1.63176     1.00416     0.00000  0.0
    634    635    638    640   5     1.63176     1.00416     0.00000  0.0
    634    635    638    641   5     0.00000     3.76560     0.00000  0.0
    636    635    638    639   5     1.63176     1.00416     0.00000  0.0
    636    635    638    640   5     1.63176     1.00416     0.00000  0.0
    636    635    638    641   5     0.00000     3.76560     0.00000  0.0
    635    636    637    632   5     0.00000    30.33400     0.00000  0.0
    635    636    637    664   5     0.00000    30.33400     0.00000  0.0
    663    636    637    632   5     0.00000    30.33400     0.00000  0.0
    663    636    637    664   5     0.00000    30.33400     0.00000  0.0
    635    638    641    642   5     0.00000     3.76560     0.00000  0.0
    635    638    641    646   5     0.00000     3.76560     0.00000  0.0
    639    638    641    642   5     1.63176     1.00416     0.00000  0.0
    639    638    641    646   5     1.63176     1.00416     0.00000  0.0
    640    638    641    642   5     1.63176     1.00416     0.00000  0.0
    640    638    641    646   5     1.63176     1.00416     0.00000  0.0
    638    641    642    643   5     0.00000    30.33400     0.00000  0.0
    638    641    642    665   5     0.00000    30.33400     0.00000  0.0
    646    641    642    643   5     0.00000    30.33400     0.00000  0.0
    646    641    642    665   5     0.00000    30.33400     0.00000  0.0
    638    641    646    645   5     0.00000    30.33400     0.00000  0.0
    638    641    646    668   5     0.00000    30.33400     0.00000  0.0
    642    641    646    645   5     0.00000    30.33400     0.00000  0.0
    642    641    646    668   5     0.00000    30.33400     0.00000  0.0
    641    642    643    644   5     0.00000    30.33400     0.00000  0.0
    641    642    643    666   5     0.00000    30.33400     0.00000  0.0
    665    642    643    644   5     0.00000    30.33400     0.00000  0.0
    665    642    643    666   5     0.00000    30.33400     0.00000  0.0
    642    643    644    645   5     0.00000    30.33400     0.00000  0.0
    642    643    644    647   5     0.00000    30.33400     0.00000  0.0
    666    643    644    645   5     0.00000    30.33400     0.00000  0.0
    666    643    644    647   5     0.00000    30.33400     0.00000  0.0
    643    644    645    646   5     0.00000    30.33400     0.00000  0.0
    643    644    645    667   5     0.00000    30.33400     0.00000  0.0
    647    644    645    646   5     0.00000    30.33400     0.00000  0.0
    647    644    645    667   5     0.00000    30.33400     0.00000  0.0
    643    644    647    648   5     0.00000     3.94551     0.00000  0.0
    645    644    647    648   5     0.00000     3.94551     0.00000  0.0
    644    645    646    641   5     0.00000    30.33400     0.00000  0.0
    644    645    646    668   5     0.00000    30.33400     0.00000  0.0
    667    645    646    641   5     0.00000    30.33400     0.00000  0.0
    667    645    646    668   5     0.00000    30.33400     0.00000  0.0
    644    647    648    649   5     0.00000     3.94551     0.00000  0.0
    644    647    648    653   5     0.00000     3.94551     0.00000  0.0
    647    648    649    650   5     0.00000    30.33400     0.00000  0.0
    647    648    649    669   5     0.00000    30.33400     0.00000  0.0
    653    648    649    650   5     0.00000    30.33400     0.00000  0.0
    653    648    649    669   5     0.00000    30.33400     0.00000  0.0
    647    648    653    652   5     0.00000    30.33400     0.00000  0.0
    647    648    653    672   5     0.00000    30.33400     0.00000  0.0
    649    648    653    652   5     0.00000    30.33400     0.00000  0.0
    649    648    653    672   5     0.00000    30.33400     0.00000  0.0
    648    649    650    651   5     0.00000    30.33400     0.00000  0.0
    648    649    650    670   5     0.00000    30.33400     0.00000  0.0
    669    649    650    651   5     0.00000    30.33400     0.00000  0.0
    669    649    650    670   5     0.00000    30.33400     0.00000  0.0
    649    650    651    652   5     0.00000    30.33400     0.00000  0.0
    649    650    651    654   5     0.00000    30.33400     0.00000  0.0
    670    650    651    652   5     0.00000    30.33400     0.00000  0.0
    670    650    651    654   5     0.00000    30.33400     0.00000  0.0
    650    651    652    653   5     0.00000    30.33400     0.00000  0.0
    650    651    652    671   5     0.00000    30.33400     0.00000  0.0
    654    651    652    653   5     0.00000    30.33400     0.00000  0.0
    654    651    652    671   5     0.00000    30.33400     0.00000  0.0
    650    651    654    655   5    -1.62758     5.29694     0.62342  0.0
    650    651    654    659   5    -1.62758     5.29694     0.62342  0.0
    652    651    654    655   5    -1.62758     5.29694     0.62342  0.0
    652    651    654    659   5    -1.62758     5.29694     0.62342  0.0
    651    652    653    648   5     0.00000    30.33400     0.00000  0.0
    651    652    653    672   5     0.00000    30.33400     0.00000  0.0
    671    652    653    648   5     0.00000    30.33400     0.00000  0.0
    671    652    653    672   5     0.00000    30.33400     0.00000  0.0
    651    654    655    656   5     0.00000    30.33400     0.00000  0.0
    651    654    655    673   5     0.00000    30.33400     0.00000  0.0
    659    654    655    656   5     0.00000    30.33400     0.00000  0.0
    659    654    655    673   5     0.00000    30.33400     0.00000  0.0
    651    654    659    658   5     0.00000    30.33400     0.00000  0.0
    651    654    659    676   5     0.00000    30.33400     0.00000  0.0
    655    654    659    658   5     0.00000    30.33400     0.00000  0.0
    655    654    659    676   5     0.00000    30.33400     0.00000  0.0
    654    655    656    657   5     0.00000    30.33400     0.00000  0.0
    654    655    656    674   5     0.00000    30.33400     0.00000  0.0
    673    655    656    657   5     0.00000    30.33400     0.00000  0.0
    673    655    656    674   5     0.00000    30.33400     0.00000  0.0
    655    656    657    658   5     0.00000    30.33400     0.00000  0.0
    655    656    657    660   5     0.00000    30.33400     0.00000  0.0
    674    656    657    658   5     0.00000    30.33400     0.00000  0.0
    674    656    657    660   5     0.00000    30.33400     0.00000  0.0
    656    657    658    659   5     0.00000    30.33400     0.00000  0.0
    656    657    658    675   5     0.00000    30.33400     0.00000  0.0
    660    657    658    659   5     0.00000    30.33400     0.00000  0.0
    660    657    658    675   5     0.00000    30.33400     0.00000  0.0
    656    657    660    677   5     0.00000     3.94551     0.00000  0.0
    658    657    660    677   5     0.00000     3.94551     0.00000  0.0
    657    658    659    654   5     0.00000    30.33400     0.00000  0.0
    657    658    659    676   5     0.00000    30.33400     0.00000  0.0
    675    658    659    654   5     0.00000    30.33400     0.00000  0.0
    675    658    659    676   5     0.00000    30.33400     0.00000  0.0
    657    660    677    678   5     0.00000     3.94551     0.00000  0.0
    657    660    677    682   5     0.00000     3.94551     0.00000  0.0
    660    677    678    679   5     0.00000    30.33400     0.00000  0.0
    660    677    678    706   5     0.00000    30.33400     0.00000  0.0
    682    677    678    679   5     0.00000    30.33400     0.00000  0.0
    682    677    678    706   5     0.00000    30.33400     0.00000  0.0
    660    677    682    681   5     0.00000    30.33400     0.00000  0.0
    660    677    682    709   5     0.00000    30.33400     0.00000  0.0
    678    677    682    681   5     0.00000    30.33400     0.00000  0.0
    678    677    682    709   5     0.00000    30.33400     0.00000  0.0
    677    678    679    680   5     0.00000    30.33400     0.00000  0.0
    677    678    679    707   5     0.00000    30.33400     0.00000  0.0
    706    678    679    680   5     0.00000    30.33400     0.00000  0.0
    706    678    679    707   5     0.00000    30.33400     0.00000  0.0
    678    679    680    681   5     0.00000    30.33400     0.00000  0.0
    678    679    680    683   5     0.00000    30.33400     0.00000  0.0
    707    679    680    681   5     0.00000    30.33400     0.00000  0.0
    707    679    680    683   5     0.00000    30.33400     0.00000  0.0
    679    680    681    682   5     0.00000    30.33400     0.00000  0.0
    679    680    681    708   5     0.00000    30.33400     0.00000  0.0
    683    680    681    682   5     0.00000    30.33400     0.00000  0.0
    683    680    681    708   5     0.00000    30.33400     0.00000  0.0
    679    680    683    684   5     1.63176     1.00416     0.00000  0.0
    679    680    683    685   5     1.63176     1.00416     0.00000  0.0
    679    680    683    686   5     0.00000     3.76560     0.00000  0.0
    681    680    683    684   5     1.63176     1.00416     0.00000  0.0
    681    680    683    685   5     1.63176     1.00416     0.00000  0.0
    681    680    683    686   5     0.00000     3.76560     0.00000  0.0
    680    681    682    677   5     0.00000    30.33400     0.00000  0.0
    680    681    682    709   5     0.00000    30.33400     0.00000  0.0
    708    681    682    677   5     0.00000    30.33400     0.00000  0.0
    708    681    682    709   5     0.00000    30.33400     0.00000  0.0
    680    683    686    687   5     0.00000     3.76560     0.00000  0.0
    680    683    686    691   5     0.00000     3.76560     0.00000  0.0
    684    683    686    687   5     1.63176     1.00416     0.00000  0.0
    684    683    686    691   5     1.63176     1.00416     0.00000  0.0
    685    683    686    687   5     1.63176     1.00416     0.00000  0.0
    685    683    686    691   5     1.63176     1.00416     0.00000  0.0
    683    686    687    688   5     0.00000    30.33400     0.00000  0.0
    683    686    687    710   5     0.00000    30.33400     0.00000  0.0
    691    686    687    688   5     0.00000    30.33400     0.00000  0.0
    691    686    687    710   5     0.00000    30.33400     0.00000  0.0
    683    686    691    690   5     0.00000    30.33400     0.00000  0.0
    683    686    691    713   5     0.00000    30.33400     0.00000  0.0
    687    686    691    690   5     0.00000    30.33400     0.00000  0.0
    687    686    691    713   5     0.00000    30.33400     0.00000  0.0
    686    687    688    689   5     0.00000    30.33400     0.00000  0.0
    686    687    688    711   5     0.00000    30.33400     0.00000  0.0
    710    687    688    689   5     0.00000    30.33400     0.00000  0.0
    710    687    688    711   5     0.00000    30.33400     0.00000  0.0
    687    688    689    690   5     0.00000    30.33400     0.00000  0.0
    687    688    689    692   5     0.00000    30.33400     0.00000  0.0
    711    688    689    690   5     0.00000    30.33400     0.00000  0.0
    711    688    689    692   5     0.00000    30.33400     0.00000  0.0
    688    689    690    691   5     0.00000    30.33400     0.00000  0.0
    688    689    690    712   5     0.00000    30.33400     0.00000  0.0
    692    689    690    691   5     0.00000    30.33400     0.00000  0.0
    692    689    690    712   5     0.00000    30.33400     0.00000  0.0
    688    689    692    693   5     0.00000     3.94551     0.00000  0.0
    690    689    692    693   5     0.00000     3.94551     0.00000  0.0
    689    690    691    686   5     0.00000    30.33400     0.00000  0.0
    689    690    691    713   5     0.00000    30.33400     0.00000  0.0
    712    690    691    686   5     0.00000    30.33400     0.00000  0.0
    712    690    691    713   5     0.00000    30.33400     0.00000  0.0
    689    692    693    694   5     0.00000     3.94551     0.00000  0.0
    689    692    693    698   5     0.00000     3.94551     0.00000  0.0
    692    693    694    695   5     0.00000    30.33400     0.00000  0.0
    692    693    694    714   5     0.00000    30.33400     0.00000  0.0
    698    693    694    695   5     0.00000    30.33400     0.00000  0.0
    698    693    694    714   5     0.00000    30.33400     0.00000  0.0
    692    693    698    697   5     0.00000    30.33400     0.00000  0.0
    692    693    698    717   5     0.00000    30.33400     0.00000  0.0
    694    693    698    697   5     0.00000    30.33400     0.00000  0.0
    694    693    698    717   5     0.00000    30.33400     0.00000  0.0
    693    694    695    696   5     0.00000    30.33400     0.00000  0.0
    693    694    695    715   5     0.00000    30.33400     0.00000  0.0
    714    694    695    696   5     0.00000    30.33400     0.00000  0.0
    714    694    695    715   5     0.00000    30.33400     0.00000  0.0
    694    695    696    697   5     0.00000    30.33400     0.00000  0.0
    694    695    696    699   5     0.00000    30.33400     0.00000  0.0
    715    695    696    697   5     0.00000    30.33400     0.00000  0.0
    715    695    696    699   5     0.00000    30.33400     0.00000  0.0
    695    696    697    698   5     0.00000    30.33400     0.00000  0.0
    695    696    697    716   5     0.00000    30.33400     0.00000  0.0
    699    696    697    698   5     0.00000    30.33400     0.00000  0.0
    699    696    697    716   5     0.00000    30.33400     0.00000  0.0
    695    696    699    700   5    -1.62758     5.29694     0.62342  0.0
    695    696    699    704   5    -1.62758     5.29694     0.62342  0.0
    697    696    699    700   5    -1.62758     5.29694     0.62342  0.0
    697    696    699    704   5    -1.62758     5.29694     0.62342  0.0
    696    697    698    693   5     0.00000    30.33400     0.00000  0.0
    696    697    698    717   5     0.00000    30.33400     0.00000  0.0
    716    697    698    693   5     0.00000    30.33400     0.00000  0.0
    716    697    698    717   5     0.00000    30.33400     0.00000  0.0
    696    699    700    701   5     0.00000    30.33400     0.00000  0.0
    696    699    700    718   5     0.00000    30.33400     0.00000  0.0
    704    699    700    701   5     0.00000    30.33400     0.00000  0.0
    704    699    700    718   5     0.00000    30.33400     0.00000  0.0
    696    699    704    703   5     0.00000    30.33400     0.00000  0.0
    696    699    704    721   5     0.00000    30.33400     0.00000  0.0
    700    699    704    703   5     0.00000    30.33400     0.00000  0.0
    700    699    704    721   5     0.00000    30.33400     0.00000  0.0
    699    700    701    702   5     0.00000    30.33400     0.00000  0.0
    699    700    701    719   5     0.00000    30.33400     0.00000  0.0
    718    700    701    702   5     0.00000    30.33400     0.00000  0.0
    718    700    701    719   5     0.00000    30.33400     0.00000  0.0
    700    701    702    703   5     0.00000    30.33400     0.00000  0.0
    700    701    702    705   5     0.00000    30.33400     0.00000  0.0
    719    701    702    703   5     0.00000    30.33400     0.00000  0.0
    719    701    702    705   5     0.00000    30.33400     0.00000  0.0
    701    702    703    704   5     0.00000    30.33400     0.00000  0.0
    701    702    703    720   5     0.00000    30.33400     0.00000  0.0
    705    702    703    704   5     0.00000    30.33400     0.00000  0.0
    705    702    703    720   5     0.00000    30.33400     0.00000  0.0
    701    702    705    722   5     0.00000     3.94551     0.00000  0.0
    703    702    705    722   5     0.00000     3.94551     0.00000  0.0
    702    703    704    699   5     0.00000    30.33400     0.00000  0.0
    702    703    704    721   5     0.00000    30.33400     0.00000  0.0
    720    703    704    699   5     0.00000    30.33400     0.00000  0.0
    720    703    704    721   5     0.00000    30.33400     0.00000  0.0
    702    705    722    723   5     0.00000     3.94551     0.00000  0.0
    702    705    722    727   5     0.00000     3.94551     0.00000  0.0
    705    722    723    724   5     0.00000    30.33400     0.00000  0.0
    705    722    723    751   5     0.00000    30.33400     0.00000  0.0
    727    722    723    724   5     0.00000    30.33400     0.00000  0.0
    727    722    723    751   5     0.00000    30.33400     0.00000  0.0
    705    722    727    726   5     0.00000    30.33400     0.00000  0.0
    705    722    727    754   5     0.00000    30.33400     0.00000  0.0
    723    722    727    726   5     0.00000    30.33400     0.00000  0.0
    723    722    727    754   5     0.00000    30.33400     0.00000  0.0
    722    723    724    725   5     0.00000    30.33400     0.00000  0.0
    722    723    724    752   5     0.00000    30.33400     0.00000  0.0
    751    723    724    725   5     0.00000    30.33400     0.00000  0.0
    751    723    724    752   5     0.00000    30.33400     0.00000  0.0
    723    724    725    726   5     0.00000    30.33400     0.00000  0.0
    723    724    725    728   5     0.00000    30.33400     0.00000  0.0
    752    724    725    726   5     0.00000    30.33400     0.00000  0.0
    752    724    725    728   5     0.00000    30.33400     0.00000  0.0
    724    725    726    727   5     0.00000    30.33400     0.00000  0.0
    724    725    726    753   5     0.00000    30.33400     0.00000  0.0
    728    725    726    727   5     0.00000    30.33400     0.00000  0.0
    728    725    726    753   5     0.00000    30.33400     0.00000  0.0
    724    725    728    729   5     1.63176     1.00416     0.00000  0.0
    724    725    728    730   5     1.63176     1.00416     0.00000  0.0
    724    725    728    731   5     0.00000     3.76560     0.00000  0.0
    726    725    728    729   5     1.63176     1.00416     0.00000  0.0
    726    725    728    730   5     1.63176     1.00416     0.00000  0.0
    726    725    728    731   5     0.00000     3.76560     0.00000  0.0
    725    726    727    722   5     0.00000    30.33400     0.00000  0.0
    725    726    727    754   5     0.00000    30.33400     0.00000  0.0
    753    726    727    722   5     0.00000    30.33400     0.00000  0.0
    753    726    727    754   5     0.00000    30.33400     0.00000  0.0
    725    728    731    732   5     0.00000     3.76560     0.00000  0.0
    725    728    731    736   5     0.00000     3.76560     0.00000  0.0
    729    728    731    732   5     1.63176     1.00416     0.00000  0.0
    729    728    731    736   5     1.63176     1.00416     0.00000  0.0
    730    728    731    732   5     1.63176     1.00416     0.00000  0.0
    730    728    731    736   5     1.63176     1.00416     0.00000  0.0
    728    731    732    733   5     0.00000    30.33400     0.00000  0.0
    728    731    732    755   5     0.00000    30.33400     0.00000  0.0
    736    731    732    733   5     0.00000    30.33400     0.00000  0.0
    736    731    732    755   5     0.00000    30.33400     0.00000  0.0
    728    731    736    735   5     0.00000    30.33400     0.00000  0.0
    728    731    736    758   5     0.00000    30.33400     0.00000  0.0
    732    731    736    735   5     0.00000    30.33400     0.00000  0.0
    732    731    736    758   5     0.00000    30.33400     0.00000  0.0
    731    732    733    734   5     0.00000    30.33400     0.00000  0.0
    731    732    733    756   5     0.00000    30.33400     0.00000  0.0
    755    732    733    734   5     0.00000    30.33400     0.00000  0.0
    755    732    733    756   5     0.00000    30.33400     0.00000  0.0
    732    733    734    735   5     0.00000    30.33400     0.00000  0.0
    732    733    734    737   5     0.00000    30.33400     0.00000  0.0
    756    733    734    735   5     0.00000    30.33400     0.00000  0.0
    756    733    734    737   5     0.00000    30.33400     0.00000  0.0
    733    734    735    736   5     0.00000    30.33400     0.00000  0.0
    733    734    735    757   5     0.00000    30.33400     0.00000  0.0
    737    734    735    736   5     0.00000    30.33400     0.00000  0.0
    737    734    735    757   5     0.00000    30.33400     0.00000  0.0
    733    734    737    738   5     0.00000     3.94551     0.00000  0.0
    735    734    737    738   5     0.00000     3.94551     0.00000  0.0
    734    735    736    731   5     0.00000    30.33400     0.00000  0.0
    734    735    736    758   5     0.00000    30.33400     0.00000  0.0
    757    735    736    731   5     0.00000    30.33400     0.00000  0.0
    757    735    736    758   5     0.00000    30.33400     0.00000  0.0
    734    737    738    739   5     0.00000     3.94551     0.00000  0.0
    734    737    738    743   5     0.00000     3.94551     0.00000  0.0
    737    738    739    740   5     0.00000    30.33400     0.00000  0.0
    737    738    739    759   5     0.00000    30.33400     0.00000  0.0
    743    738    739    740   5     0.00000    30.33400     0.00000  0.0
    743    738    739    759   5     0.00000    30.33400     0.00000  0.0
    737    738    743    742   5     0.00000    30.33400     0.00000  0.0
    737    738    743    762   5     0.00000    30.33400     0.00000  0.0
    739    738    743    742   5     0.00000    30.33400     0.00000  0.0
    739    738    743    762   5     0.00000    30.33400     0.00000  0.0
    738    739    740    741   5     0.00000    30.33400     0.00000  0.0
    738    739    740    760   5     0.00000    30.33400     0.00000  0.0
    759    739    740    741   5     0.00000    30.33400     0.00000  0.0
    759    739    740    760   5     0.00000    30.33400     0.00000  0.0
    739    740    741    742   5     0.00000    30.33400     0.00000  0.0
    739    740    741    744   5     0.00000    30.33400     0.00000  0.0
    760    740    741    742   5     0.00000    30.33400     0.00000  0.0
    760    740    741    744   5     0.00000    30.33400     0.00000  0.0
    740    741    742    743   5     0.00000    30.33400     0.00000  0.0
    740    741    742    761   5     0.00000    30.33400     0.00000  0.0
    744    741    742    743   5     0.00000    30.33400     0.00000  0.0
    744    741    742    761   5     0.00000    30.33400     0.00000  0.0
    740    741    744    745   5    -1.62758     5.29694     0.62342  0.0
    740    741    744    749   5    -1.62758     5.29694     0.62342  0.0
    742    741    744    745   5    -1.62758     5.29694     0.62342  0.0
    742    741    744    749   5    -1.62758     5.29694     0.62342  0.0
    741    742    743    738   5     0.00000    30.33400     0.00000  0.0
    741    742    743    762   5     0.00000    30.33400     0.00000  0.0
    761    742    743    738   5     0.00000    30.33400     0.00000  0.0
    761    742    743    762   5     0.00000    30.33400     0.00000  0.0
    741    744    745    746   5     0.00000    30.33400     0.00000  0.0
    741    744    745    763   5     0.00000    30.33400     0.00000  0.0
    749    744    745    746   5     0.00000    30.33400     0.00000  0.0
    749    744    745    763   5     0.00000    30.33400     0.00000  0.0
    741    744    749    748   5     0.00000    30.33400     0.00000  0.0
    741    744    749    766   5     0.00000    30.33400     0.00000  0.0
    745    744    749    748   5     0.00000    30.33400     0.00000  0.0
    745    744    749    766   5     0.00000    30.33400     0.00000  0.0
    744    745    746    747   5     0.00000    30.33400     0.00000  0.0
    744    745    746    764   5     0.00000    30.33400     0.00000  0.0
    763    745    746    747   5     0.00000    30.33400     0.00000  0.0
    763    745    746    764   5     0.00000    30.33400     0.00000  0.0
    745    746    747    748   5     0.00000    30.33400     0.00000  0.0
    745    746    747    750   5     0.00000    30.33400     0.00000  0.0
    764    746    747    748   5     0.00000    30.33400     0.00000  0.0
    764    746    747    750   5     0.00000    30.33400     0.00000  0.0
    746    747    748    749   5     0.00000    30.33400     0.00000  0.0
    746    747    748    765   5     0.00000    30.33400     0.00000  0.0
    750    747    748    749   5     0.00000    30.33400     0.00000  0.0
    750    747    748    765   5     0.00000    30.33400     0.00000  0.0
    746    747    750    767   5     0.00000     3.94551     0.00000  0.0
    748    747    750    767   5     0.00000     3.94551     0.00000  0.0
    747    748    749    744   5     0.00000    30.33400     0.00000  0.0
    747    748    749    766   5     0.00000    30.33400     0.00000  0.0
    765    748    749    744   5     0.00000    30.33400     0.00000  0.0
    765    748    749    766   5     0.00000    30.33400     0.00000  0.0
    747    750    767    768   5     0.00000     3.94551     0.00000  0.0
    747    750    767    772   5     0.00000     3.94551     0.00000  0.0
    750    767    768    769   5     0.00000    30.33400     0.00000  0.0
    750    767    768    796   5     0.00000    30.33400     0.00000  0.0
    772    767    768    769   5     0.00000    30.33400     0.00000  0.0
    772    767    768    796   5     0.00000    30.33400     0.00000  0.0
    750    767    772    771   5     0.00000    30.33400     0.00000  0.0
    750    767    772    799   5     0.00000    30.33400     0.00000  0.0
    768    767    772    771   5     0.00000    30.33400     0.00000  0.0
    768    767    772    799   5     0.00000    30.33400     0.00000  0.0
    767    768    769    770   5     0.00000    30.33400     0.00000  0.0
    767    768    769    797   5     0.00000    30.33400     0.00000  0.0
    796    768    769    770   5     0.00000    30.33400     0.00000  0.0
    796    768    769    797   5     0.00000    30.33400     0.00000  0.0
    768    769    770    771   5     0.00000    30.33400     0.00000  0.0
    768    769    770    773   5     0.00000    30.33400     0.00000  0.0
    797    769    770    771   5     0.00000    30.33400     0.00000  0.0
    797    769    770    773   5     0.00000    30.33400     0.00000  0.0
    769    770    771    772   5     0.00000    30.33400     0.00000  0.0
    769    770    771    798   5     0.00000    30.33400     0.00000  0.0
    773    770    771    772   5     0.00000    30.33400     0.00000  0.0
    773    770    771    798   5     0.00000    30.33400     0.00000  0.0
    769    770    773    774   5     1.63176     1.00416     0.00000  0.0
    769    770    773    775   5     1.63176     1.00416     0.00000  0.0
    769    770    773    776   5     0.00000     3.76560     0.00000  0.0
    771    770    773    774   5     1.63176     1.00416     0.00000  0.0
    771    770    773    775   5     1.63176     1.00416     0.00000  0.0
    771    770    773    776   5     0.00000     3.76560     0.00000  0.0
    770    771    772    767   5     0.00000    30.33400     0.00000  0.0
    770    771    772    799   5     0.00000    30.33400     0.00000  0.0
    798    771    772    767   5     0.00000    30.33400     0.00000  0.0
    798    771    772    799   5     0.00000    30.33400     0.00000  0.0
    770    773    776    777   5     0.00000     3.76560     0.00000  0.0
    770    773    776    781   5     0.00000     3.76560     0.00000  0.0
    774    773    776    777   5     1.63176     1.00416     0.00000  0.0
    774    773    776    781   5     1.63176     1.00416     0.00000  0.0
    775    773    776    777   5     1.63176     1.00416     0.00000  0.0
    775    773    776    781   5     1.63176     1.00416     0.00000  0.0
    773    776    777    778   5     0.00000    30.33400     0.00000  0.0
    773    776    777    800   5     0.00000    30.33400     0.00000  0.0
    781    776    777    778   5     0.00000    30.33400     0.00000  0.0
    781    776    777    800   5     0.00000    30.33400     0.00000  0.0
    773    776    781    780   5     0.00000    30.33400     0.00000  0.0
    773    776    781    803   5     0.00000    30.33400     0.00000  0.0
    777    776    781    780   5     0.00000    30.33400     0.00000  0.0
    777    776    781    803   5     0.00000    30.33400     0.00000  0.0
    776    777    778    779   5     0.00000    30.33400     0.00000  0.0
    776    777    778    801   5     0.00000    30.33400     0.00000  0.0
    800    777    778    779   5     0.00000    30.33400     0.00000  0.0
    800    777    778    801   5     0.00000    30.33400     0.00000  0.0
    777    778    779    780   5     0.00000    30.33400     0.00000  0.0
    777    778    779    782   5     0.00000    30.33400     0.00000  0.0
    801    778    779    780   5     0.00000    30.33400     0.00000  0.0
    801    778    779    782   5     0.00000    30.33400     0.00000  0.0
    778    779    780    781   5     0.00000    30.33400     0.00000  0.0
    778    779    780    802   5     0.00000    30.33400     0.00000  0.0
    782    779    780    781   5     0.00000    30.33400     0.00000  0.0
    782    779    780    802   5     0.00000    30.33400     0.00000  0.0
    778    779    782    783   5     0.00000     3.94551     0.00000  0.0
    780    779    782    783   5     0.00000     3.94551     0.00000  0.0
    779    780    781    776   5     0.00000    30.33400     0.00000  0.0
    779    780    781    803   5     0.00000    30.33400     0.00000  0.0
    802    780    781    776   5     0.00000    30.33400     0.00000  0.0
    802    780    781    803   5     0.00000    30.33400     0.00000  0.0
    779    782    783    784   5     0.00000     3.94551     0.00000  0.0
    779    782    783    788   5     0.00000     3.94551     0.00000  0.0
    782    783    784    785   5     0.00000    30.33400     0.00000  0.0
    782    783    784    804   5     0.00000    30.33400     0.00000  0.0
    788    783    784    785   5     0.00000    30.33400     0.00000  0.0
    788    783    784    804   5     0.00000    30.33400     0.00000  0.0
    782    783    788    787   5     0.00000    30.33400     0.00000  0.0
    782    783    788    807   5     0.00000    30.33400     0.00000  0.0
    784    783    788    787   5     0.00000    30.33400     0.00000  0.0
    784    783    788    807   5     0.00000    30.33400     0.00000  0.0
    783    784    785    786   5     0.00000    30.33400     0.00000  0.0
    783    784    785    805   5     0.00000    30.33400     0.00000  0.0
    804    784    785    786   5     0.00000    30.33400     0.00000  0.0
    804    784    785    805   5     0.00000    30.33400     0.00000  0.0
    784    785    786    787   5     0.00000    30.33400     0.00000  0.0
    784    785    786    789   5     0.00000    30.33400     0.00000  0.0
    805    785    786    787   5     0.00000    30.33400     0.00000  0.0
    805    785    786    789   5     0.00000    30.33400     0.00000  0.0
    785    786    787    788   5     0.00000    30.33400     0.00000  0.0
    785    786    787    806   5     0.00000    30.33400     0.00000  0.0
    789    786    787    788   5     0.00000    30.33400     0.00000  0.0
    789    786    787    806   5     0.00000    30.33400     0.00000  0.0
    785    786    789    790   5    -1.62758     5.29694     0.62342  0.0
    785    786    789    794   5    -1.62758     5.29694     0.62342  0.0
    787    786    789    790   5    -1.62758     5.29694     0.62342  0.0
    787    786    789    794   5    -1.62758     5.29694     0.62342  0.0
    786    787    788    783   5     0.00000    30.33400     0.00000  0.0
    786    787    788    807   5     0.00000    30.33400     0.00000  0.0
    806    787    788    783   5     0.00000    30.33400     0.00000  0.0
    806    787    788    807   5     0.00000    30.33400     0.00000  0.0
    786    789    790    791   5     0.00000    30.33400     0.00000  0.0
    786    789    790    808   5     0.00000    30.33400     0.00000  0.0
    794    789    790    791   5     0.00000    30.33400     0.00000  0.0
    794    789    790    808   5     0.00000    30.33400     0.00000  0.0
    786    789    794    793   5     0.00000    30.33400     0.00000  0.0
    786    789    794    811   5     0.00000    30.33400     0.00000  0.0
    790    789    794    793   5     0.00000    30.33400     0.00000  0.0
    790    789    794    811   5     0.00000    30.33400     0.00000  0.0
    789    790    791    792   5     0.00000    30.33400     0.00000  0.0
    789    790    791    809   5     0.00000    30.33400     0.00000  0.0
    808    790    791    792   5     0.00000    30.33400     0.00000  0.0
    808    790    791    809   5     0.00000    30.33400     0.00000  0.0
    790    791    792    793   5     0.00000    30.33400     0.00000  0.0
    790    791    792    795   5     0.00000    30.33400     0.00000  0.0
    809    791    792    793   5     0.00000    30.33400     0.00000  0.0
    809    791    792    795   5     0.00000    30.33400     0.00000  0.0
    791    792    793    794   5     0.00000    30.33400     0.00000  0.0
    791    792    793    810   5     0.00000    30.33400     0.00000  0.0
    795    792    793    794   5     0.00000    30.33400     0.00000  0.0
    795    792    793    810   5     0.00000    30.33400     0.00000  0.0
    791    792    795    812   5     0.00000     3.94551     0.00000  0.0
    793    792    795    812   5     0.00000     3.94551     0.00000  0.0
    792    793    794    789   5     0.00000    30.33400     0.00000  0.0
    792    793    794    811   5     0.00000    30.33400     0.00000  0.0
    810    793    794    789   5     0.00000    30.33400     0.00000  0.0
    810    793    794    811   5     0.00000    30.33400     0.00000  0.0
    792    795    812    813   5     0.00000     3.94551     0.00000  0.0
    792    795    812    817   5     0.00000     3.94551     0.00000  0.0
    795    812    813    814   5     0.00000    30.33400     0.00000  0.0
    795    812    813    841   5     0.00000    30.33400     0.00000  0.0
    817    812    813    814   5     0.00000    30.33400     0.00000  0.0
    817    812    813    841   5     0.00000    30.33400     0.00000  0.0
    795    812    817    816   5     0.00000    30.33400     0.00000  0.0
    795    812    817    844   5     0.00000    30.33400     0.00000  0.0
    813    812    817    816   5     0.00000    30.33400     0.00000  0.0
    813    812    817    844   5     0.00000    30.33400     0.00000  0.0
    812    813    814    815   5     0.00000    30.33400     0.00000  0.0
    812    813    814    842   5     0.00000    30.33400     0.00000  0.0
    841    813    814    815   5     0.00000    30.33400     0.00000  0.0
    841    813    814    842   5     0.00000    30.33400     0.00000  0.0
    813    814    815    816   5     0.00000    30.33400     0.00000  0.0
    813    814    815    818   5     0.00000    30.33400     0.00000  0.0
    842    814    815    816   5     0.00000    30.33400     0.00000  0.0
    842    814    815    818   5     0.00000    30.33400     0.00000  0.0
    814    815    816    817   5     0.00000    30.33400     0.00000  0.0
    814    815    816    843   5     0.00000    30.33400     0.00000  0.0
    818    815    816    817   5     0.00000    30.33400     0.00000  0.0
    818    815    816    843   5     0.00000    30.33400     0.00000  0.0
    814    815    818    819   5     1.63176     1.00416     0.00000  0.0
    814    815    818    820   5     1.63176     1.00416     0.00000  0.0
    814    815    818    821   5     0.00000     3.76560     0.00000  0.0
    816    815    818    819   5     1.63176     1.00416     0.00000  0.0
    816    815    818    820   5     1.63176     1.00416     0.00000  0.0
    816    815    818    821   5     0.00000     3.76560     0.00000  0.0
    815    816    817    812   5     0.00000    30.33400     0.00000  0.0
    815    816    817    844   5     0.00000    30.33400     0.00000  0.0
    843    816    817    812   5     0.00000    30.33400     0.00000  0.0
    843    816    817    844   5     0.00000    30.33400     0.00000  0.0
    815    818    821    822   5     0.00000     3.76560     0.00000  0.0
    815    818    821    826   5     0.00000     3.76560     0.00000  0.0
    819    818    821    822   5     1.63176     1.00416     0.00000  0.0
    819    818    821    826   5     1.63176     1.00416     0.00000  0.0
    820    818    821    822   5     1.63176     1.00416     0.00000  0.0
    820    818    821    826   5     1.63176     1.00416     0.00000  0.0
    818    821    822    823   5     0.00000    30.33400     0.00000  0.0
    818    821    822    845   5     0.00000    30.33400     0.00000  0.0
    826    821    822    823   5     0.00000    30.33400     0.00000  0.0
    826    821    822    845   5     0.00000    30.33400     0.00000  0.0
    818    821    826    825   5     0.00000    30.33400     0.00000  0.0
    818    821    826    848   5     0.00000    30.33400     0.00000  0.0
    822    821    826    825   5     0.00000    30.33400     0.00000  0.0
    822    821    826    848   5     0.00000    30.33400     0.00000  0.0
    821    822    823    824   5     0.00000    30.33400     0.00000  0.0
    821    822    823    846   5     0.00000    30.33400     0.00000  0.0
    845    822    823    824   5     0.00000    30.33400     0.00000  0.0
    845    822    823    846   5     0.00000    30.33400     0.00000  0.0
    822    823    824    825   5     0.00000    30.33400     0.00000  0.0
    822    823    824    827   5     0.00000    30.33400     0.00000  0.0
    846    823    824    825   5     0.00000    30.33400     0.00000  0.0
    846    823    824    827   5     0.00000    30.33400     0.00000  0.0
    823    824    825    826   5     0.00000    30.33400     0.00000  0.0
    823    824    825    847   5     0.00000    30.33400     0.00000  0.0
    827    824    825    826   5     0.00000    30.33400     0.00000  0.0
    827    824    825    847   5     0.00000    30.33400     0.00000  0.0
    823    824    827    828   5     0.00000     3.94551     0.00000  0.0
    825    824    827    828   5     0.00000     3.94551     0.00000  0.0
    824    825    826    821   5     0.00000    30.33400     0.00000  0.0
    824    825    826    848   5     0.00000    30.33400     0.00000  0.0
    847    825    826    821   5     0.00000    30.33400     0.00000  0.0
    847    825    826    848   5     0.00000    30.33400     0.00000  0.0
    824    827    828    829   5     0.00000     3.94551     0.00000  0.0
    824    827    828    833   5     0.00000     3.94551     0.00000  0.0
    827    828    829    830   5     0.00000    30.33400     0.00000  0.0
    827    828    829    849   5     0.00000    30.33400     0.00000  0.0
    833    828    829    830   5     0.00000    30.33400     0.00000  0.0
    833    828    829    849   5     0.00000    30.33400     0.00000  0.0
    827    828    833    832   5     0.00000    30.33400     0.00000  0.0
    827    828    833    852   5     0.00000    30.33400     0.00000  0.0
    829    828    833    832   5     0.00000    30.33400     0.00000  0.0
    829    828    833    852   5     0.00000    30.33400     0.00000  0.0
    828    829    830    831   5     0.00000    30.33400     0.00000  0.0
    828    829    830    850   5     0.00000    30.33400     0.00000  0.0
    849    829    830    831   5     0.00000    30.33400     0.00000  0.0
    849    829    830    850   5     0.00000    30.33400     0.00000  0.0
    829    830    831    832   5     0.00000    30.33400     0.00000  0.0
    829    830    831    834   5     0.00000    30.33400     0.00000  0.0
    850    830    831    832   5     0.00000    30.33400     0.00000  0.0
    850    830    831    834   5     0.00000    30.33400     0.00000  0.0
    830    831    832    833   5     0.00000    30.33400     0.00000  0.0
    830    831    832    851   5     0.00000    30.33400     0.00000  0.0
    834    831    832    833   5     0.00000    30.33400     0.00000  0.0
    834    831    832    851   5     0.00000    30.33400     0.00000  0.0
    830    831    834    835   5    -1.62758     5.29694     0.62342  0.0
    830    831    834    839   5    -1.62758     5.29694     0.62342  0.0
    832    831    834    835   5    -1.62758     5.29694     0.62342  0.0
    832    831    834    839   5    -1.62758     5.29694     0.62342  0.0
    831    832    833    828   5     0.00000    30.33400     0.00000  0.0
    831    832    833    852   5     0.00000    30.33400     0.00000  0.0
    851    832    833    828   5     0.00000    30.33400     0.00000  0.0
    851    832    833    852   5     0.00000    30.33400     0.00000  0.0
    831    834    835    836   5     0.00000    30.33400     0.00000  0.0
    831    834    835    853   5     0.00000    30.33400     0.00000  0.0
    839    834    835    836   5     0.00000    30.33400     0.00000  0.0
    839    834    835    853   5     0.00000    30.33400     0.00000  0.0
    831    834    839    838   5     0.00000    30.33400     0.00000  0.0
    831    834    839    856   5     0.00000    30.33400     0.00000  0.0
    835    834    839    838   5     0.00000    30.33400     0.00000  0.0
    835    834    839    856   5     0.00000    30.33400     0.00000  0.0
    834    835    836    837   5     0.00000    30.33400     0.00000  0.0
    834    835    836    854   5     0.00000    30.33400     0.00000  0.0
    853    835    836    837   5     0.00000    30.33400     0.00000  0.0
    853    835    836    854   5     0.00000    30.33400     0.00000  0.0
    835    836    837    838   5     0.00000    30.33400     0.00000  0.0
    835    836    837    840   5     0.00000    30.33400     0.00000  0.0
    854    836    837    838   5     0.00000    30.33400     0.00000  0.0
    854    836    837    840   5     0.00000    30.33400     0.00000  0.0
    836    837    838    839   5     0.00000    30.33400     0.00000  0.0
    836    837    838    855   5     0.00000    30.33400     0.00000  0.0
    840    837    838    839   5     0.00000    30.33400     0.00000  0.0
    840    837    838    855   5     0.00000    30.33400     0.00000  0.0
    836    837    840    857   5     0.00000     3.94551     0.00000  0.0
    838    837    840    857   5     0.00000     3.94551     0.00000  0.0
    837    838    839    834   5     0.00000    30.33400     0.00000  0.0
    837    838    839    856   5     0.00000    30.33400     0.00000  0.0
    855    838    839    834   5     0.00000    30.33400     0.00000  0.0
    855    838    839    856   5     0.00000    30.33400     0.00000  0.0
    837    840    857    858   5     0.00000     3.94551     0.00000  0.0
    837    840    857    862   5     0.00000     3.94551     0.00000  0.0
    840    857    858    859   5     0.00000    30.33400     0.00000  0.0
    840    857    858    886   5     0.00000    30.33400     0.00000  0.0
    862    857    858    859   5     0.00000    30.33400     0.00000  0.0
    862    857    858    886   5     0.00000    30.33400     0.00000  0.0
    840    857    862    861   5     0.00000    30.33400     0.00000  0.0
    840    857    862    889   5     0.00000    30.33400     0.00000  0.0
    858    857    862    861   5     0.00000    30.33400     0.00000  0.0
    858    857    862    889   5     0.00000    30.33400     0.00000  0.0
    857    858    859    860   5     0.00000    30.33400     0.00000  0.0
    857    858    859    887   5     0.00000    30.33400     0.00000  0.0
    886    858    859    860   5     0.00000    30.33400     0.00000  0.0
    886    858    859    887   5     0.00000    30.33400     0.00000  0.0
    858    859    860    861   5     0.00000    30.33400     0.00000  0.0
    858    859    860    863   5     0.00000    30.33400     0.00000  0.0
    887    859    860    861   5     0.00000    30.33400     0.00000  0.0
    887    859    860    863   5     0.00000    30.33400     0.00000  0.0
    859    860    861    862   5     0.00000    30.33400     0.00000  0.0
    859    860    861    888   5     0.00000    30.33400     0.00000  0.0
    863    860    861    862   5     0.00000    30.33400     0.00000  0.0
    863    860    861    888   5     0.00000    30.33400     0.00000  0.0
    859    860    863    864   5     1.63176     1.00416     0.00000  0.0
    859    860    863    865   5     1.63176     1.00416     0.00000  0.0
    859    860    863    866   5     0.00000     3.76560     0.00000  0.0
    861    860    863    864   5     1.63176     1.00416     0.00000  0.0
    861    860    863    865   5     1.63176     1.00416     0.00000  0.0
    861    860    863    866   5     0.00000     3.76560     0.00000  0.0
    860    861    862    857   5     0.00000    30.33400     0.00000  0.0
    860    861    862    889   5     0.00000    30.33400     0.00000  0.0
    888    861    862    857   5     0.00000    30.33400     0.00000  0.0
    888    861    862    889   5     0.00000    30.33400     0.00000  0.0
    860    863    866    867   5     0.00000     3.76560     0.00000  0.0
    860    863    866    871   5     0.00000     3.76560     0.00000  0.0
    864    863    866    867   5     1.63176     1.00416     0.00000  0.0
    864    863    866    871   5     1.63176     1.00416     0.00000  0.0
    865    863    866    867   5     1.63176     1.00416     0.00000  0.0
    865    863    866    871   5     1.63176     1.00416     0.00000  0.0
    863    866    867    868   5     0.00000    30.33400     0.00000  0.0
    863    866    867    890   5     0.00000    30.33400     0.00000  0.0
    871    866    867    868   5     0.00000    30.33400     0.00000  0.0
    871    866    867    890   5     0.00000    30.33400     0.00000  0.0
    863    866    871    870   5     0.00000    30.33400     0.00000  0.0
    863    866    871    893   5     0.00000    30.33400     0.00000  0.0
    867    866    871    870   5     0.00000    30.33400     0.00000  0.0
    867    866    871    893   5     0.00000    30.33400     0.00000  0.0
    866    867    868    869   5     0.00000    30.33400     0.00000  0.0
    866    867    868    891   5     0.00000    30.33400     0.00000  0.0
    890    867    868    869   5     0.00000    30.33400     0.00000  0.0
    890    867    868    891   5     0.00000    30.33400     0.00000  0.0
    867    868    869    870   5     0.00000    30.33400     0.00000  0.0
    867    868    869    872   5     0.00000    30.33400     0.00000  0.0
    891    868    869    870   5     0.00000    30.33400     0.00000  0.0
    891    868    869    872   5     0.00000    30.33400     0.00000  0.0
    868    869    870    871   5     0.00000    30.33400     0.00000  0.0
    868    869    870    892   5     0.00000    30.33400     0.00000  0.0
    872    869    870    871   5     0.00000    30.33400     0.00000  0.0
    872    869    870    892   5     0.00000    30.33400     0.00000  0.0
    868    869    872    873   5     0.00000     3.94551     0.00000  0.0
    870    869    872    873   5     0.00000     3.94551     0.00000  0.0
    869    870    871    866   5     0.00000    30.33400     0.00000  0.0
    869    870    871    893   5     0.00000    30.33400     0.00000  0.0
    892    870    871    866   5     0.00000    30.33400     0.00000  0.0
    892    870    871    893   5     0.00000    30.33400     0.00000  0.0
    869    872    873    874   5     0.00000     3.94551     0.00000  0.0
    869    872    873    878   5     0.00000     3.94551     0.00000  0.0
    872    873    874    875   5     0.00000    30.33400     0.00000  0.0
    872    873    874    894   5     0.00000    30.33400     0.00000  0.0
    878    873    874    875   5     0.00000    30.33400     0.00000  0.0
    878    873    874    894   5     0.00000    30.33400     0.00000  0.0
    872    873    878    877   5     0.00000    30.33400     0.00000  0.0
    872    873    878    897   5     0.00000    30.33400     0.00000  0.0
    874    873    878    877   5     0.00000    30.33400     0.00000  0.0
    874    873    878    897   5     0.00000    30.33400     0.00000  0.0
    873    874    875    876   5     0.00000    30.33400     0.00000  0.0
    873    874    875    895   5     0.00000    30.33400     0.00000  0.0
    894    874    875    876   5     0.00000    30.33400     0.00000  0.0
    894    874    875    895   5     0.00000    30.33400     0.00000  0.0
    874    875    876    877   5     0.00000    30.33400     0.00000  0.0
    874    875    876    879   5     0.00000    30.33400     0.00000  0.0
    895    875    876    877   5     0.00000    30.33400     0.00000  0.0
    895    875    876    879   5     0.00000    30.33400     0.00000  0.0
    875    876    877    878   5     0.00000    30.33400     0.00000  0.0
    875    876    877    896   5     0.00000    30.33400     0.00000  0.0
    879    876    877    878   5     0.00000    30.33400     0.00000  0.0
    879    876    877    896   5     0.00000    30.33400     0.00000  0.0
    875    876    879    880   5    -1.62758     5.29694     0.62342  0.0
    875    876    879    884   5    -1.62758     5.29694     0.62342  0.0
    877    876    879    880   5    -1.62758     5.29694     0.62342  0.0
    877    876    879    884   5    -1.62758     5.29694     0.62342  0.0
    876    877    878    873   5     0.00000    30.33400     0.00000  0.0
    876    877    878    897   5     0.00000    30.33400     0.00000  0.0
    896    877    878    873   5     0.00000    30.33400     0.00000  0.0
    896    877    878    897   5     0.00000    30.33400     0.00000  0.0
    876    879    880    881   5     0.00000    30.33400     0.00000  0.0
    876    879    880    898   5     0.00000    30.33400     0.00000  0.0
    884    879    880    881   5     0.00000    30.33400     0.00000  0.0
    884    879    880    898   5     0.00000    30.33400     0.00000  0.0
    876    879    884    883   5     0.00000    30.33400     0.00000  0.0
    876    879    884    901   5     0.00000    30.33400     0.00000  0.0
    880    879    884    883   5     0.00000    30.33400     0.00000  0.0
    880    879    884    901   5     0.00000    30.33400     0.00000  0.0
    879    880    881    882   5     0.00000    30.33400     0.00000  0.0
    879    880    881    899   5     0.00000    30.33400     0.00000  0.0
    898    880    881    882   5     0.00000    30.33400     0.00000  0.0
    898    880    881    899   5     0.00000    30.33400     0.00000  0.0
    880    881    882    883   5     0.00000    30.33400     0.00000  0.0
    880    881    882    885   5     0.00000    30.33400     0.00000  0.0
    899    881    882    883   5     0.00000    30.33400     0.00000  0.0
    899    881    882    885   5     0.00000    30.33400     0.00000  0.0
    881    882    883    884   5     0.00000    30.33400     0.00000  0.0
    881    882    883    900   5     0.00000    30.33400     0.00000  0.0
    885    882    883    884   5     0.00000    30.33400     0.00000  0.0
    885    882    883    900   5     0.00000    30.33400     0.00000  0.0
    881    882    885    902   5     0.00000     7.03749     0.00000  0.0
    883    882    885    902   5     0.00000     7.03749     0.00000  0.0
    882    883    884    879   5     0.00000    30.33400     0.00000  0.0
    882    883    884    901   5     0.00000    30.33400     0.00000  0.0
    900    883    884    879   5     0.00000    30.33400     0.00000  0.0
    900    883    884    901   5     0.00000    30.33400     0.00000  0.0

[ dihedrals ]
; Improper dihedrals
; h   i   j   k   funct
      2      6      1     46   5     0.00000     9.20480     0.00000  0.0
      1      3      2     30   5     0.00000     9.20480     0.00000  0.0
      2      4      3     31   5     0.00000     9.20480     0.00000  0.0
      3      5      4      7   5     0.00000    33.47200     0.00000  0.0
      4      6      5     32   5     0.00000     9.20480     0.00000  0.0
      1      5      6     33   5     0.00000     9.20480     0.00000  0.0
      7     11     10     15   5     0.00000    33.47200     0.00000  0.0
     10     12     11     34   5     0.00000     9.20480     0.00000  0.0
     11     13     12     35   5     0.00000     9.20480     0.00000  0.0
     12     14     13     16   5     0.00000    33.47200     0.00000  0.0
     13     15     14     36   5     0.00000     9.20480     0.00000  0.0
     10     14     15     37   5     0.00000     9.20480     0.00000  0.0
     16     18     17     22   5     0.00000    33.47200     0.00000  0.0
     17     19     18     38   5     0.00000     9.20480     0.00000  0.0
     18     20     19     39   5     0.00000     9.20480     0.00000  0.0
     19     21     20     23   5     0.00000    33.47200     0.00000  0.0
     20     22     21     40   5     0.00000     9.20480     0.00000  0.0
     17     21     22     41   5     0.00000     9.20480     0.00000  0.0
     20     24     23     28   5     0.00000    33.47200     0.00000  0.0
     23     25     24     42   5     0.00000     9.20480     0.00000  0.0
     24     26     25     43   5     0.00000     9.20480     0.00000  0.0
     25     27     26     29   5     0.00000    33.47200     0.00000  0.0
     26     28     27     44   5     0.00000     9.20480     0.00000  0.0
     23     27     28     45   5     0.00000     9.20480     0.00000  0.0
     29     48     47     52   5     0.00000    33.47200     0.00000  0.0
     47     49     48     76   5     0.00000     9.20480     0.00000  0.0
     48     50     49     77   5     0.00000     9.20480     0.00000  0.0
     49     51     50     53   5     0.00000    33.47200     0.00000  0.0
     50     52     51     78   5     0.00000     9.20480     0.00000  0.0
     47     51     52     79   5     0.00000     9.20480     0.00000  0.0
     53     57     56     61   5     0.00000    33.47200     0.00000  0.0
     56     58     57     80   5     0.00000     9.20480     0.00000  0.0
     57     59     58     81   5     0.00000     9.20480     0.00000  0.0
     58     60     59     62   5     0.00000    33.47200     0.00000  0.0
     59     61     60     82   5     0.00000     9.20480     0.00000  0.0
     56     60     61     83   5     0.00000     9.20480     0.00000  0.0
     62     64     63     68   5     0.00000    33.47200     0.00000  0.0
     63     65     64     84   5     0.00000     9.20480     0.00000  0.0
     64     66     65     85   5     0.00000     9.20480     0.00000  0.0
     65     67     66     69   5     0.00000    33.47200     0.00000  0.0
     66     68     67     86   5     0.00000     9.20480     0.00000  0.0
     63     67     68     87   5     0.00000     9.20480     0.00000  0.0
     66     70     69     74   5     0.00000    33.47200     0.00000  0.0
     69     71     70     88   5     0.00000     9.20480     0.00000  0.0
     70     72     71     89   5     0.00000     9.20480     0.00000  0.0
     71     73     72     75   5     0.00000    33.47200     0.00000  0.0
     72     74     73     90   5     0.00000     9.20480     0.00000  0.0
     69     73     74     91   5     0.00000     9.20480     0.00000  0.0
     75     93     92     97   5     0.00000    33.47200     0.00000  0.0
     92     94     93    121   5     0.00000     9.20480     0.00000  0.0
     93     95     94    122   5     0.00000     9.20480     0.00000  0.0
     94     96     95     98   5     0.00000    33.47200     0.00000  0.0
     95     97     96    123   5     0.00000     9.20480     0.00000  0.0
     92     96     97    124   5     0.00000     9.20480     0.00000  0.0
     98    102    101    106   5     0.00000    33.47200     0.00000  0.0
    101    103    102    125   5     0.00000     9.20480     0.00000  0.0
    102    104    103    126   5     0.00000     9.20480     0.00000  0.0
    103    105    104    107   5     0.00000    33.47200     0.00000  0.0
    104    106    105    127   5     0.00000     9.20480     0.00000  0.0
    101    105    106    128   5     0.00000     9.20480     0.00000  0.0
    107    109    108    113   5     0.00000    33.47200     0.00000  0.0
    108    110    109    129   5     0.00000     9.20480     0.00000  0.0
    109    111    110    130   5     0.00000     9.20480     0.00000  0.0
    110    112    111    114   5     0.00000    33.47200     0.00000  0.0
    111    113    112    131   5     0.00000     9.20480     0.00000  0.0
    108    112    113    132   5     0.00000     9.20480     0.00000  0.0
    111    115    114    119   5     0.00000    33.47200     0.00000  0.0
    114    116    115    133   5     0.00000     9.20480     0.00000  0.0
    115    117    116    134   5     0.00000     9.20480     0.00000  0.0
    116    118    117    120   5     0.00000    33.47200     0.00000  0.0
    117    119    118    135   5     0.00000     9.20480     0.00000  0.0
    114    118    119    136   5     0.00000     9.20480     0.00000  0.0
    120    138    137    142   5     0.00000    33.47200     0.00000  0.0
    137    139    138    166   5     0.00000     9.20480     0.00000  0.0
    138    140    139    167   5     0.00000     9.20480     0.00000  0.0
    139    141    140    143   5     0.00000    33.47200     0.00000  0.0
    140    142    141    168   5     0.00000     9.20480     0.00000  0.0
    137    141    142    169   5     0.00000     9.20480     0.00000  0.0
    143    147    146    151   5     0.00000    33.47200     0.00000  0.0
    146    148    147    170   5     0.00000     9.20480     0.00000  0.0
    147    149    148    171   5     0.00000     9.20480     0.00000  0.0
    148    150    149    152   5     0.00000    33.47200     0.00000  0.0
    149    151    150    172   5     0.00000     9.20480     0.00000  0.0
    146    150    151    173   5     0.00000     9.20480     0.00000  0.0
    152    154    153    158   5     0.00000    33.47200     0.00000  0.0
    153    155    154    174   5     0.00000     9.20480     0.00000  0.0
    154    156    155    175   5     0.00000     9.20480     0.00000  0.0
    155    157    156    159   5     0.00000    33.47200     0.00000  0.0
    156    158    157    176   5     0.00000     9.20480     0.00000  0.0
    153    157    158    177   5     0.00000     9.20480     0.00000  0.0
    156    160    159    164   5     0.00000    33.47200     0.00000  0.0
    159    161    160    178   5     0.00000     9.20480     0.00000  0.0
    160    162    161    179   5     0.00000     9.20480     0.00000  0.0
    161    163    162    165   5     0.00000    33.47200     0.00000  0.0
    162    164    163    180   5     0.00000     9.20480     0.00000  0.0
    159    163    164    181   5     0.00000     9.20480     0.00000  0.0
    165    183    182    187   5     0.00000    33.47200     0.00000  0.0
    182    184    183    211   5     0.00000     9.20480     0.00000  0.0
    183    185    184    212   5     0.00000     9.20480     0.00000  0.0
    184    186    185    188   5     0.00000    33.47200     0.00000  0.0
    185    187    186    213   5     0.00000     9.20480     0.00000  0.0
    182    186    187    214   5     0.00000     9.20480     0.00000  0.0
    188    192    191    196   5     0.00000    33.47200     0.00000  0.0
    191    193    192    215   5     0.00000     9.20480     0.00000  0.0
    192    194    193    216   5     0.00000     9.20480     0.00000  0.0
    193    195    194    197   5     0.00000    33.47200     0.00000  0.0
    194    196    195    217   5     0.00000     9.20480     0.00000  0.0
    191    195    196    218   5     0.00000     9.20480     0.00000  0.0
    197    199    198    203   5     0.00000    33.47200     0.00000  0.0
    198    200    199    219   5     0.00000     9.20480     0.00000  0.0
    199    201    200    220   5     0.00000     9.20480     0.00000  0.0
    200    202    201    204   5     0.00000    33.47200     0.00000  0.0
    201    203    202    221   5     0.00000     9.20480     0.00000  0.0
    198    202    203    222   5     0.00000     9.20480     0.00000  0.0
    201    205    204    209   5     0.00000    33.47200     0.00000  0.0
    204    206    205    223   5     0.00000     9.20480     0.00000  0.0
    205    207    206    224   5     0.00000     9.20480     0.00000  0.0
    206    208    207    210   5     0.00000    33.47200     0.00000  0.0
    207    209    208    225   5     0.00000     9.20480     0.00000  0.0
    204    208    209    226   5     0.00000     9.20480     0.00000  0.0
    210    228    227    232   5     0.00000    33.47200     0.00000  0.0
    227    229    228    256   5     0.00000     9.20480     0.00000  0.0
    228    230    229    257   5     0.00000     9.20480     0.00000  0.0
    229    231    230    233   5     0.00000    33.47200     0.00000  0.0
    230    232    231    258   5     0.00000     9.20480     0.00000  0.0
    227    231    232    259   5     0.00000     9.20480     0.00000  0.0
    233    237    236    241   5     0.00000    33.47200     0.00000  0.0
    236    238    237    260   5     0.00000     9.20480     0.00000  0.0
    237    239    238    261   5     0.00000     9.20480     0.00000  0.0
    238    240    239    242   5     0.00000    33.47200     0.00000  0.0
    239    241    240    262   5     0.00000     9.20480     0.00000  0.0
    236    240    241    263   5     0.00000     9.20480     0.00000  0.0
    242    244    243    248   5     0.00000    33.47200     0.00000  0.0
    243    245    244    264   5     0.00000     9.20480     0.00000  0.0
    244    246    245    265   5     0.00000     9.20480     0.00000  0.0
    245    247    246    249   5     0.00000    33.47200     0.00000  0.0
    246    248    247    266   5     0.00000     9.20480     0.00000  0.0
    243    247    248    267   5     0.00000     9.20480     0.00000  0.0
    246    250    249    254   5     0.00000    33.47200     0.00000  0.0
    249    251    250    268   5     0.00000     9.20480     0.00000  0.0
    250    252    251    269   5     0.00000     9.20480     0.00000  0.0
    251    253    252    255   5     0.00000    33.47200     0.00000  0.0
    252    254    253    270   5     0.00000     9.20480     0.00000  0.0
    249    253    254    271   5     0.00000     9.20480     0.00000  0.0
    255    273    272    277   5     0.00000    33.47200     0.00000  0.0
    272    274    273    301   5     0.00000     9.20480     0.00000  0.0
    273    275    274    302   5     0.00000     9.20480     0.00000  0.0
    274    276    275    278   5     0.00000    33.47200     0.00000  0.0
    275    277    276    303   5     0.00000     9.20480     0.00000  0.0
    272    276    277    304   5     0.00000     9.20480     0.00000  0.0
    278    282    281    286   5     0.00000    33.47200     0.00000  0.0
    281    283    282    305   5     0.00000     9.20480     0.00000  0.0
    282    284    283    306   5     0.00000     9.20480     0.00000  0.0
    283    285    284    287   5     0.00000    33.47200     0.00000  0.0
    284    286    285    307   5     0.00000     9.20480     0.00000  0.0
    281    285    286    308   5     0.00000     9.20480     0.00000  0.0
    287    289    288    293   5     0.00000    33.47200     0.00000  0.0
    288    290    289    309   5     0.00000     9.20480     0.00000  0.0
    289    291    290    310   5     0.00000     9.20480     0.00000  0.0
    290    292    291    294   5     0.00000    33.47200     0.00000  0.0
    291    293    292    311   5     0.00000     9.20480     0.00000  0.0
    288    292    293    312   5     0.00000     9.20480     0.00000  0.0
    291    295    294    299   5     0.00000    33.47200     0.00000  0.0
    294    296    295    313   5     0.00000     9.20480     0.00000  0.0
    295    297    296    314   5     0.00000     9.20480     0.00000  0.0
    296    298    297    300   5     0.00000    33.47200     0.00000  0.0
    297    299    298    315   5     0.00000     9.20480     0.00000  0.0
    294    298    299    316   5     0.00000     9.20480     0.00000  0.0
    300    318    317    322   5     0.00000    33.47200     0.00000  0.0
    317    319    318    346   5     0.00000     9.20480     0.00000  0.0
    318    320    319    347   5     0.00000     9.20480     0.00000  0.0
    319    321    320    323   5     0.00000    33.47200     0.00000  0.0
    320    322    321    348   5     0.00000     9.20480     0.00000  0.0
    317    321    322    349   5     0.00000     9.20480     0.00000  0.0
    323    327    326    331   5     0.00000    33.47200     0.00000  0.0
    326    328    327    350   5     0.00000     9.20480     0.00000  0.0
    327    329    328    351   5     0.00000     9.20480     0.00000  0.0
    328    330    329    332   5     0.00000    33.47200     0.00000  0.0
    329    331    330    352   5     0.00000     9.20480     0.00000  0.0
    326    330    331    353   5     0.00000     9.20480     0.00000  0.0
    332    334    333    338   5     0.00000    33.47200     0.00000  0.0
    333    335    334    354   5     0.00000     9.20480     0.00000  0.0
    334    336    335    355   5     0.00000     9.20480     0.00000  0.0
    335    337    336    339   5     0.00000    33.47200     0.00000  0.0
    336    338    337    356   5     0.00000     9.20480     0.00000  0.0
    333    337    338    357   5     0.00000     9.20480     0.00000  0.0
    336    340    339    344   5     0.00000    33.47200     0.00000  0.0
    339    341    340    358   5     0.00000     9.20480     0.00000  0.0
    340    342    341    359   5     0.00000     9.20480     0.00000  0.0
    341    343    342    345   5     0.00000    33.47200     0.00000  0.0
    342    344    343    360   5     0.00000     9.20480     0.00000  0.0
    339    343    344    361   5     0.00000     9.20480     0.00000  0.0
    345    363    362    367   5     0.00000    33.47200     0.00000  0.0
    362    364    363    391   5     0.00000     9.20480     0.00000  0.0
    363    365    364    392   5     0.00000     9.20480     0.00000  0.0
    364    366    365    368   5     0.00000    33.47200     0.00000  0.0
    365    367    366    393   5     0.00000     9.20480     0.00000  0.0
    362    366    367    394   5     0.00000     9.20480     0.00000  0.0
    368    372    371    376   5     0.00000    33.47200     0.00000  0.0
    371    373    372    395   5     0.00000     9.20480     0.00000  0.0
    372    374    373    396   5     0.00000     9.20480     0.00000  0.0
    373    375    374    377   5     0.00000    33.47200     0.00000  0.0
    374    376    375    397   5     0.00000     9.20480     0.00000  0.0
    371    375    376    398   5     0.00000     9.20480     0.00000  0.0
    377    379    378    383   5     0.00000    33.47200     0.00000  0.0
    378    380    379    399   5     0.00000     9.20480     0.00000  0.0
    379    381    380    400   5     0.00000     9.20480     0.00000  0.0
    380    382    381    384   5     0.00000    33.47200     0.00000  0.0
    381    383    382    401   5     0.00000     9.20480     0.00000  0.0
    378    382    383    402   5     0.00000     9.20480     0.00000  0.0
    381    385    384    389   5     0.00000    33.47200     0.00000  0.0
    384    386    385    403   5     0.00000     9.20480     0.00000  0.0
    385    387    386    404   5     0.00000     9.20480     0.00000  0.0
    386    388    387    390   5     0.00000    33.47200     0.00000  0.0
    387    389    388    405   5     0.00000     9.20480     0.00000  0.0
    384    388    389    406   5     0.00000     9.20480     0.00000  0.0
    390    408    407    412   5     0.00000    33.47200     0.00000  0.0
    407    409    408    436   5     0.00000     9.20480     0.00000  0.0
    408    410    409    437   5     0.00000     9.20480     0.00000  0.0
    409    411    410    413   5     0.00000    33.47200     0.00000  0.0
    410    412    411    438   5     0.00000     9.20480     0.00000  0.0
    407    411    412    439   5     0.00000     9.20480     0.00000  0.0
    413    417    416    421   5     0.00000    33.47200     0.00000  0.0
    416    418    417    440   5     0.00000     9.20480     0.00000  0.0
    417    419    418    441   5     0.00000     9.20480     0.00000  0.0
    418    420    419    422   5     0.00000    33.47200     0.00000  0.0
    419    421    420    442   5     0.00000     9.20480     0.00000  0.0
    416    420    421    443   5     0.00000     9.20480     0.00000  0.0
    422    424    423    428   5     0.00000    33.47200     0.00000  0.0
    423    425    424    444   5     0.00000     9.20480     0.00000  0.0
    424    426    425    445   5     0.00000     9.20480     0.00000  0.0
    425    427    426    429   5     0.00000    33.47200     0.00000  0.0
    426    428    427    446   5     0.00000     9.20480     0.00000  0.0
    423    427    428    447   5     0.00000     9.20480     0.00000  0.0
    426    430    429    434   5     0.00000    33.47200     0.00000  0.0
    429    431    430    448   5     0.00000     9.20480     0.00000  0.0
    430    432    431    449   5     0.00000     9.20480     0.00000  0.0
    431    433    432    435   5     0.00000    33.47200     0.00000  0.0
    432    434    433    450   5     0.00000     9.20480     0.00000  0.0
    429    433    434    451   5     0.00000     9.20480     0.00000  0.0
    435    453    452    457   5     0.00000    33.47200     0.00000  0.0
    452    454    453    481   5     0.00000     9.20480     0.00000  0.0
    453    455    454    482   5     0.00000     9.20480     0.00000  0.0
    454    456    455    458   5     0.00000    33.47200     0.00000  0.0
    455    457    456    483   5     0.00000     9.20480     0.00000  0.0
    452    456    457    484   5     0.00000     9.20480     0.00000  0.0
    458    462    461    466   5     0.00000    33.47200     0.00000  0.0
    461    463    462    485   5     0.00000     9.20480     0.00000  0.0
    462    464    463    486   5     0.00000     9.20480     0.00000  0.0
    463    465    464    467   5     0.00000    33.47200     0.00000  0.0
    464    466    465    487   5     0.00000     9.20480     0.00000  0.0
    461    465    466    488   5     0.00000     9.20480     0.00000  0.0
    467    469    468    473   5     0.00000    33.47200     0.00000  0.0
    468    470    469    489   5     0.00000     9.20480     0.00000  0.0
    469    471    470    490   5     0.00000     9.20480     0.00000  0.0
    470    472    471    474   5     0.00000    33.47200     0.00000  0.0
    471    473    472    491   5     0.00000     9.20480     0.00000  0.0
    468    472    473    492   5     0.00000     9.20480     0.00000  0.0
    471    475    474    479   5     0.00000    33.47200     0.00000  0.0
    474    476    475    493   5     0.00000     9.20480     0.00000  0.0
    475    477    476    494   5     0.00000     9.20480     0.00000  0.0
    476    478    477    480   5     0.00000    33.47200     0.00000  0.0
    477    479    478    495   5     0.00000     9.20480     0.00000  0.0
    474    478    479    496   5     0.00000     9.20480     0.00000  0.0
    480    498    497    502   5     0.00000    33.47200     0.00000  0.0
    497    499    498    526   5     0.00000     9.20480     0.00000  0.0
    498    500    499    527   5     0.00000     9.20480     0.00000  0.0
    499    501    500    503   5     0.00000    33.47200     0.00000  0.0
    500    502    501    528   5     0.00000     9.20480     0.00000  0.0
    497    501    502    529   5     0.00000     9.20480     0.00000  0.0
    503    507    506    511   5     0.00000    33.47200     0.00000  0.0
    506    508    507    530   5     0.00000     9.20480     0.00000  0.0
    507    509    508    531   5     0.00000     9.20480     0.00000  0.0
    508    510    509    512   5     0.00000    33.47200     0.00000  0.0
    509    511    510    532   5     0.00000     9.20480     0.00000  0.0
    506    510    511    533   5     0.00000     9.20480     0.00000  0.0
    512    514    513    518   5     0.00000    33.47200     0.00000  0.0
    513    515    514    534   5     0.00000     9.20480     0.00000  0.0
    514    516    515    535   5     0.00000     9.20480     0.00000  0.0
    515    517    516    519   5     0.00000    33.47200     0.00000  0.0
    516    518    517    536   5     0.00000     9.20480     0.00000  0.0
    513    517    518    537   5     0.00000     9.20480     0.00000  0.0
    516    520    519    524   5     0.00000    33.47200     0.00000  0.0
    519    521    520    538   5     0.00000     9.20480     0.00000  0.0
    520    522    521    539   5     0.00000     9.20480     0.00000  0.0
    521    523    522    525   5     0.00000    33.47200     0.00000  0.0
    522    524    523    540   5     0.00000     9.20480     0.00000  0.0
    519    523    524    541   5     0.00000     9.20480     0.00000  0.0
    525    543    542    547   5     0.00000    33.47200     0.00000  0.0
    542    544    543    571   5     0.00000     9.20480     0.00000  0.0
    543    545    544    572   5     0.00000     9.20480     0.00000  0.0
    544    546    545    548   5     0.00000    33.47200     0.00000  0.0
    545    547    546    573   5     0.00000     9.20480     0.00000  0.0
    542    546    547    574   5     0.00000     9.20480     0.00000  0.0
    548    552    551    556   5     0.00000    33.47200     0.00000  0.0
    551    553    552    575   5     0.00000     9.20480     0.00000  0.0
    552    554    553    576   5     0.00000     9.20480     0.00000  0.0
    553    555    554    557   5     0.00000    33.47200     0.00000  0.0
    554    556    555    577   5     0.00000     9.20480     0.00000  0.0
    551    555    556    578   5     0.00000     9.20480     0.00000  0.0
    557    559    558    563   5     0.00000    33.47200     0.00000  0.0
    558    560    559    579   5     0.00000     9.20480     0.00000  0.0
    559    561    560    580   5     0.00000     9.20480     0.00000  0.0
    560    562    561    564   5     0.00000    33.47200     0.00000  0.0
    561    563    562    581   5     0.00000     9.20480     0.00000  0.0
    558    562    563    582   5     0.00000     9.20480     0.00000  0.0
    561    565    564    569   5     0.00000    33.47200     0.00000  0.0
    564    566    565    583   5     0.00000     9.20480     0.00000  0.0
    565    567    566    584   5     0.00000     9.20480     0.00000  0.0
    566    568    567    570   5     0.00000    33.47200     0.00000  0.0
    567    569    568    585   5     0.00000     9.20480     0.00000  0.0
    564    568    569    586   5     0.00000     9.20480     0.00000  0.0
    570    588    587    592   5     0.00000    33.47200     0.00000  0.0
    587    589    588    616   5     0.00000     9.20480     0.00000  0.0
    588    590    589    617   5     0.00000     9.20480     0.00000  0.0
    589    591    590    593   5     0.00000    33.47200     0.00000  0.0
    590    592    591    618   5     0.00000     9.20480     0.00000  0.0
    587    591    592    619   5     0.00000     9.20480     0.00000  0.0
    593    597    596    601   5     0.00000    33.47200     0.00000  0.0
    596    598    597    620   5     0.00000     9.20480     0.00000  0.0
    597    599    598    621   5     0.00000     9.20480     0.00000  0.0
    598    600    599    602   5     0.00000    33.47200     0.00000  0.0
    599    601    600    622   5     0.00000     9.20480     0.00000  0.0
    596    600    601    623   5     0.00000     9.20480     0.00000  0.0
    602    604    603    608   5     0.00000    33.47200     0.00000  0.0
    603    605    604    624   5     0.00000     9.20480     0.00000  0.0
    604    606    605    625   5     0.00000     9.20480     0.00000  0.0
    605    607    606    609   5     0.00000    33.47200     0.00000  0.0
    606    608    607    626   5     0.00000     9.20480     0.00000  0.0
    603    607    608    627   5     0.00000     9.20480     0.00000  0.0
    606    610    609    614   5     0.00000    33.47200     0.00000  0.0
    609    611    610    628   5     0.00000     9.20480     0.00000  0.0
    610    612    611    629   5     0.00000     9.20480     0.00000  0.0
    611    613    612    615   5     0.00000    33.47200     0.00000  0.0
    612    614    613    630   5     0.00000     9.20480     0.00000  0.0
    609    613    614    631   5     0.00000     9.20480     0.00000  0.0
    615    633    632    637   5     0.00000    33.47200     0.00000  0.0
    632    634    633    661   5     0.00000     9.20480     0.00000  0.0
    633    635    634    662   5     0.00000     9.20480     0.00000  0.0
    634    636    635    638   5     0.00000    33.47200     0.00000  0.0
    635    637    636    663   5     0.00000     9.20480     0.00000  0.0
    632    636    637    664   5     0.00000     9.20480     0.00000  0.0
    638    642    641    646   5     0.00000    33.47200     0.00000  0.0
    641    643    642    665   5     0.00000     9.20480     0.00000  0.0
    642    644    643    666   5     0.00000     9.20480     0.00000  0.0
    643    645    644    647   5     0.00000    33.47200     0.00000  0.0
    644    646    645    667   5     0.00000     9.20480     0.00000  0.0
    641    645    646    668   5     0.00000     9.20480     0.00000  0.0
    647    649    648    653   5     0.00000    33.47200     0.00000  0.0
    648    650    649    669   5     0.00000     9.20480     0.00000  0.0
    649    651    650    670   5     0.00000     9.20480     0.00000  0.0
    650    652    651    654   5     0.00000    33.47200     0.00000  0.0
    651    653    652    671   5     0.00000     9.20480     0.00000  0.0
    648    652    653    672   5     0.00000     9.20480     0.00000  0.0
    651    655    654    659   5     0.00000    33.47200     0.00000  0.0
    654    656    655    673   5     0.00000     9.20480     0.00000  0.0
    655    657    656    674   5     0.00000     9.20480     0.00000  0.0
    656    658    657    660   5     0.00000    33.47200     0.00000  0.0
    657    659    658    675   5     0.00000     9.20480     0.00000  0.0
    654    658    659    676   5     0.00000     9.20480     0.00000  0.0
    660    678    677    682   5     0.00000    33.47200     0.00000  0.0
    677    679    678    706   5     0.00000     9.20480     0.00000  0.0
    678    680    679    707   5     0.00000     9.20480     0.00000  0.0
    679    681    680    683   5     0.00000    33.47200     0.00000  0.0
    680    682    681    708   5     0.00000     9.20480     0.00000  0.0
    677    681    682    709   5     0.00000     9.20480     0.00000  0.0
    683    687    686    691   5     0.00000    33.47200     0.00000  0.0
    686    688    687    710   5     0.00000     9.20480     0.00000  0.0
    687    689    688    711   5     0.00000     9.20480     0.00000  0.0
    688    690    689    692   5     0.00000    33.47200     0.00000  0.0
    689    691    690    712   5     0.00000     9.20480     0.00000  0.0
    686    690    691    713   5     0.00000     9.20480     0.00000  0.0
    692    694    693    698   5     0.00000    33.47200     0.00000  0.0
    693    695    694    714   5     0.00000     9.20480     0.00000  0.0
    694    696    695    715   5     0.00000     9.20480     0.00000  0.0
    695    697    696    699   5     0.00000    33.47200     0.00000  0.0
    696    698    697    716   5     0.00000     9.20480     0.00000  0.0
    693    697    698    717   5     0.00000     9.20480     0.00000  0.0
    696    700    699    704   5     0.00000    33.47200     0.00000  0.0
    699    701    700    718   5     0.00000     9.20480     0.00000  0.0
    700    702    701    719   5     0.00000     9.20480     0.00000  0.0
    701    703    702    705   5     0.00000    33.47200     0.00000  0.0
    702    704    703    720   5     0.00000     9.20480     0.00000  0.0
    699    703    704    721   5     0.00000     9.20480     0.00000  0.0
    705    723    722    727   5     0.00000    33.47200     0.00000  0.0
    722    724    723    751   5     0.00000     9.20480     0.00000  0.0
    723    725    724    752   5     0.00000     9.20480     0.00000  0.0
    724    726    725    728   5     0.00000    33.47200     0.00000  0.0
    725    727    726    753   5     0.00000     9.20480     0.00000  0.0
    722    726    727    754   5     0.00000     9.20480     0.00000  0.0
    728    732    731    736   5     0.00000    33.47200     0.00000  0.0
    731    733    732    755   5     0.00000     9.20480     0.00000  0.0
    732    734    733    756   5     0.00000     9.20480     0.00000  0.0
    733    735    734    737   5     0.00000    33.47200     0.00000  0.0
    734    736    735    757   5     0.00000     9.20480     0.00000  0.0
    731    735    736    758   5     0.00000     9.20480     0.00000  0.0
    737    739    738    743   5     0.00000    33.47200     0.00000  0.0
    738    740    739    759   5     0.00000     9.20480     0.00000  0.0
    739    741    740    760   5     0.00000     9.20480     0.00000  0.0
    740    742    741    744   5     0.00000    33.47200     0.00000  0.0
    741    743    742    761   5     0.00000     9.20480     0.00000  0.0
    738    742    743    762   5     0.00000     9.20480     0.00000  0.0
    741    745    744    749   5     0.00000    33.47200     0.00000  0.0
    744    746    745    763   5     0.00000     9.20480     0.00000  0.0
    745    747    746    764   5     0.00000     9.20480     0.00000  0.0
    746    748    747    750   5     0.00000    33.47200     0.00000  0.0
    747    749    748    765   5     0.00000     9.20480     0.00000  0.0
    744    748    749    766   5     0.00000     9.20480     0.00000  0.0
    750    768    767    772   5     0.00000    33.47200     0.00000  0.0
    767    769    768    796   5     0.00000     9.20480     0.00000  0.0
    768    770    769    797   5     0.00000     9.20480     0.00000  0.0
    769    771    770    773   5     0.00000    33.47200     0.00000  0.0
    770    772    771    798   5     0.00000     9.20480     0.00000  0.0
    767    771    772    799   5     0.00000     9.20480     0.00000  0.0
    773    777    776    781   5     0.00000    33.47200     0.00000  0.0
    776    778    777    800   5     0.00000     9.20480     0.00000  0.0
    777    779    778    801   5     0.00000     9.20480     0.00000  0.0
    778    780    779    782   5     0.00000    33.47200     0.00000  0.0
    779    781    780    802   5     0.00000     9.20480     0.00000  0.0
    776    780    781    803   5     0.00000     9.20480     0.00000  0.0
    782    784    783    788   5     0.00000    33.47200     0.00000  0.0
    783    785    784    804   5     0.00000     9.20480     0.00000  0.0
    784    786    785    805   5     0.00000     9.20480     0.00000  0.0
    785    787    786    789   5     0.00000    33.47200     0.00000  0.0
    786    788    787    806   5     0.00000     9.20480     0.00000  0.0
    783    787    788    807   5     0.00000     9.20480     0.00000  0.0
    786    790    789    794   5     0.00000    33.47200     0.00000  0.0
    789    791    790    808   5     0.00000     9.20480     0.00000  0.0
    790    792    791    809   5     0.00000     9.20480     0.00000  0.0
    791    793    792    795   5     0.00000    33.47200     0.00000  0.0
    792    794    793    810   5     0.00000     9.20480     0.00000  0.0
    789    793    794    811   5     0.00000     9.20480     0.00000  0.0
    795    813    812    817   5     0.00000    33.47200     0.00000  0.0
    812    814    813    841   5     0.00000     9.20480     0.00000  0.0
    813    815    814    842   5     0.00000     9.20480     0.00000  0.0
    814    816    815    818   5     0.00000    33.47200     0.00000  0.0
    815    817    816    843   5     0.00000     9.20480     0.00000  0.0
    812    816    817    844   5     0.00000     9.20480     0.00000  0.0
    818    822    821    826   5     0.00000    33.47200     0.00000  0.0
    821    823    822    845   5     0.00000     9.20480     0.00000  0.0
    822    824    823    846   5     0.00000     9.20480     0.00000  0.0
    823    825    824    827   5     0.00000    33.47200     0.00000  0.0
    824    826    825    847   5     0.00000     9.20480     0.00000  0.0
    821    825    826    848   5     0.00000     9.20480     0.00000  0.0
    827    829    828    833   5     0.00000    33.47200     0.00000  0.0
    828    830    829    849   5     0.00000     9.20480     0.00000  0.0
    829    831    830    850   5     0.00000     9.20480     0.00000  0.0
    830    832    831    834   5     0.00000    33.47200     0.00000  0.0
    831    833    832    851   5     0.00000     9.20480     0.00000  0.0
    828    832    833    852   5     0.00000     9.20480     0.00000  0.0
    831    835    834    839   5     0.00000    33.47200     0.00000  0.0
    834    836    835    853   5     0.00000     9.20480     0.00000  0.0
    835    837    836    854   5     0.00000     9.20480     0.00000  0.0
    836    838    837    840   5     0.00000    33.47200     0.00000  0.0
    837    839    838    855   5     0.00000     9.20480     0.00000  0.0
    834    838    839    856   5     0.00000     9.20480     0.00000  0.0
    840    858    857    862   5     0.00000    33.47200     0.00000  0.0
    857    859    858    886   5     0.00000     9.20480     0.00000  0.0
    858    860    859    887   5     0.00000     9.20480     0.00000  0.0
    859    861    860    863   5     0.00000    33.47200     0.00000  0.0
    860    862    861    888   5     0.00000     9.20480     0.00000  0.0
    857    861    862    889   5     0.00000     9.20480     0.00000  0.0
    863    867    866    871   5     0.00000    33.47200     0.00000  0.0
    866    868    867    890   5     0.00000     9.20480     0.00000  0.0
    867    869    868    891   5     0.00000     9.20480     0.00000  0.0
    868    870    869    872   5     0.00000    33.47200     0.00000  0.0
    869    871    870    892   5     0.00000     9.20480     0.00000  0.0
    866    870    871    893   5     0.00000     9.20480     0.00000  0.0
    872    874    873    878   5     0.00000    33.47200     0.00000  0.0
    873    875    874    894   5     0.00000     9.20480     0.00000  0.0
    874    876    875    895   5     0.00000     9.20480     0.00000  0.0
    875    877    876    879   5     0.00000    33.47200     0.00000  0.0
    876    878    877    896   5     0.00000     9.20480     0.00000  0.0
    873    877    878    897   5     0.00000     9.20480     0.00000  0.0
    876    880    879    884   5     0.00000    33.47200     0.00000  0.0
    879    881    880    898   5     0.00000     9.20480     0.00000  0.0
    880    882    881    899   5     0.00000     9.20480     0.00000  0.0
    881    883    882    885   5     0.00000    33.47200     0.00000  0.0
    882    884    883    900   5     0.00000     9.20480     0.00000  0.0
    879    883    884    901   5     0.00000     9.20480     0.00000  0.0
